 vasp.6.4.2 20Jul23 (build Oct 18 2023 14:14:43) complex                        
  
 executed on             LinuxIFC date 2024.05.09  11:39:14
 running   64 mpi-ranks, on    1 nodes
 distrk:  each k-point on   64 cores,    1 groups
 distr:  one band on NCORE=   8 cores,    8 groups


--------------------------------------------------------------------------------------------------------


 INCAR:
   ALGO = Fast
   EDIFF = 0.0001
   ENCUT = 520
   IBRION = 2
   ISIF = 3
   ISMEAR = 0
   ISPIN = 2
   KPAR = 1
   LASPH = True
   LCHARG = False
   LORBIT = 11
   LREAL = Auto
   LWAVE = False
   MAGMOM = 2*0.6
   NCORE = 8
   NELM = 100
   NSW = 99
   PREC = Accurate
   SIGMA = 0.8

 POTCAR:   PAW_PBE Si 05Jan2001                   
 POTCAR:   PAW_PBE Si 05Jan2001                   
   VRHFIN =Si: s2p2                                                                                 
   LEXCH  = PE                                                                                      
   EATOM  =   103.0669 eV,    7.5752 Ry                                                             
                                                                                                    
   TITEL  = PAW_PBE Si 05Jan2001                                                                    
   LULTRA =        F    use ultrasoft PP ?                                                          
   IUNSCR =        1    unscreen: 0-lin 1-nonlin 2-no                                               
   RPACOR =    1.500    partial core radius                                                         
   POMASS =   28.085; ZVAL   =    4.000    mass and valenz                                          
   RCORE  =    1.900    outmost cutoff radius                                                       
   RWIGS  =    2.480; RWIGS  =    1.312    wigner-seitz radius (au A)                               
   ENMAX  =  245.345; ENMIN  =  184.009 eV                                                          
   ICORE  =        2    local potential                                                             
   LCOR   =        T    correct aug charges                                                         
   LPAW   =        T    paw PP                                                                      
   EAUG   =  322.069                                                                                
   DEXC   =    -.007                                                                                
   RMAX   =    2.944    core radius for proj-oper                                                   
   RAUG   =    1.300    factor for augmentation sphere                                              
   RDEP   =    1.993    radius for radial grids                                                     
   QCUT   =   -4.246; QGAM   =    8.493    optimization parameters                                  
                                                                                                    
   Description                                                                                      
     l     E      TYP  RCUT    TYP  RCUT                                                            
     0   .000     23  1.900                                                                         
     0   .000     23  1.900                                                                         
     1   .000     23  1.900                                                                         
     1   .000     23  1.900                                                                         
     2   .000      7  1.900                                                                         
  local pseudopotential read in
  partial core-charges read in
  atomic valenz-charges read in
  non local Contribution for L=           0  read in
    real space projection operators read in
  non local Contribution for L=           0  read in
    real space projection operators read in
  non local Contribution for L=           1  read in
    real space projection operators read in
  non local Contribution for L=           1  read in
    real space projection operators read in
    PAW grid and wavefunctions read in
 
   number of l-projection  operators is LMAX  =           4
   number of lm-projection operators is LMMAX =           8
 
 -----------------------------------------------------------------------------
|                                                                             |
|               ----> ADVICE to this user running VASP <----                  |
|                                                                             |
|     You have a (more or less) 'small supercell' and for smaller cells       |
|     it is recommended to use the reciprocal-space projection scheme!        |
|     The real-space optimization is not efficient for small cells and it     |
|     is also less accurate ...                                               |
|     Therefore, set LREAL=.FALSE. in the INCAR file.                         |
|                                                                             |
 -----------------------------------------------------------------------------

 Optimization of the real space projectors (new method)

 maximal supplied QI-value         = 19.84
 optimisation between [QCUT,QGAM] = [ 11.51, 23.22] = [ 37.09,150.92] Ry 
 Optimized for a Real-space Cutoff    1.21 Angstroem

   l    n(q)    QCUT    max X(q) W(low)/X(q) W(high)/X(q)  e(spline) 
   0      8    11.508     8.708    0.18E-04    0.44E-05    0.47E-08
   0      8    11.508   106.241    0.70E-04    0.15E-03    0.51E-07
   1      8    11.508     5.901    0.63E-05    0.23E-04    0.21E-07
   1      8    11.508    73.241    0.15E-03    0.36E-04    0.79E-07
 PAW_PBE Si 05Jan2001                   :
 energy of atom  1       EATOM= -103.0669
 kinetic energy error for atom=    0.0005 (will be added to EATOM!!)
 
 
 POSCAR: Si2
  positions in direct lattice
  No initial velocities read in
 exchange correlation table for  LEXCH =        8
   RHO(1)=    0.500       N(1)  =     2000
   RHO(2)=  100.500       N(2)  =     4000
 


--------------------------------------------------------------------------------------------------------


 ion  position               nearest neighbor table
   1  0.125  0.125  0.125-   2 2.38   2 2.38   2 2.38   2 2.38
   2  0.875  0.875  0.875-   1 2.38   1 2.38   1 2.38   1 2.38
 
  LATTYP: Found a face centered cubic cell.
 ALAT       =     5.5000000000
  
  Lattice vectors:
  
 A1 = (   0.0000000000,   2.7500000000,   2.7500000000)
 A2 = (   2.7500000000,   0.0000000000,   2.7500000000)
 A3 = (   2.7500000000,   2.7500000000,   0.0000000000)


Analysis of symmetry for initial positions (statically):
=====================================================================
 Subroutine PRICEL returns:
 Original cell was already a primitive cell.
 

 Routine SETGRP: Setting up the symmetry group for a 
 face centered cubic supercell.


 Subroutine GETGRP returns: Found 48 space group operations
 (whereof 12 operations were pure point group operations)
 out of a pool of 48 trial point group operations.


The static configuration has the point symmetry D_3d.
 The point group associated with its full space group is O_h .


Analysis of symmetry for dynamics (positions and initial velocities):
=====================================================================
 Subroutine PRICEL returns:
 Original cell was already a primitive cell.
 

 Routine SETGRP: Setting up the symmetry group for a 
 face centered cubic supercell.


 Subroutine GETGRP returns: Found 48 space group operations
 (whereof 12 operations were pure point group operations)
 out of a pool of 48 trial point group operations.


The dynamic configuration has the point symmetry D_3d.
 The point group associated with its full space group is O_h .


Analysis of structural, dynamic, and magnetic symmetry:
=====================================================================
 Subroutine PRICEL returns:
 Original cell was already a primitive cell.
 

 Routine SETGRP: Setting up the symmetry group for a 
 face centered cubic supercell.


 Subroutine GETGRP returns: Found 48 space group operations
 (whereof 12 operations were pure point group operations)
 out of a pool of 48 trial point group operations.


The overall configuration has the point symmetry D_3d.
 The point group associated with its full space group is O_h .


 Subroutine INISYM returns: Found 48 space group operations
 (whereof 12 operations are pure point group operations),
 and found     1 'primitive' translations


----------------------------------------------------------------------------------------

                                     Primitive cell                                     

  volume of cell :      41.5938

  direct lattice vectors                    reciprocal lattice vectors
     0.000000000  2.750000000  2.750000000    -0.181818182  0.181818182  0.181818182
     2.750000000  0.000000000  2.750000000     0.181818182 -0.181818182  0.181818182
     2.750000000  2.750000000  0.000000000     0.181818182  0.181818182 -0.181818182

  length of vectors
     3.889087297  3.889087297  3.889087297     0.314918329  0.314918329  0.314918329

  position of ions in fractional coordinates (direct lattice)
     0.125000000  0.125000000  0.125000000
     0.875000000  0.875000000  0.875000000

  ion indices of the primitive-cell ions
   primitive index   ion index
                 1           1
                 2           2

----------------------------------------------------------------------------------------

 
 
 KPOINTS: pymatgen with grid density = 763 / numbe

Automatic generation of k-mesh.
 Grid dimensions read from file:
 generate k-points for:    7    7    7

 Generating k-lattice:

  Cartesian coordinates                     Fractional coordinates (reciprocal lattice)
    -0.025974026  0.025974026  0.025974026     0.142857143  0.000000000  0.000000000
     0.025974026 -0.025974026  0.025974026     0.000000000  0.142857143  0.000000000
     0.025974026  0.025974026 -0.025974026     0.000000000  0.000000000  0.142857143

  Length of vectors
     0.044988333  0.044988333  0.044988333

  Shift w.r.t. Gamma in fractional coordinates (k-lattice)
     0.000000000  0.000000000  0.000000000

 
 Subroutine IBZKPT returns following result:
 ===========================================
 
 Found     20 irreducible k-points:
 
 Following reciprocal coordinates:
            Coordinates               Weight
  0.000000  0.000000  0.000000      1.000000
  0.142857  0.000000  0.000000      8.000000
  0.285714  0.000000  0.000000      8.000000
  0.428571  0.000000  0.000000      8.000000
  0.142857  0.142857  0.000000      6.000000
  0.285714  0.142857  0.000000     24.000000
  0.428571  0.142857  0.000000     24.000000
 -0.428571  0.142857  0.000000     24.000000
 -0.285714  0.142857  0.000000     24.000000
 -0.142857  0.142857  0.000000     12.000000
  0.285714  0.285714  0.000000      6.000000
  0.428571  0.285714  0.000000     24.000000
 -0.428571  0.285714  0.000000     24.000000
 -0.285714  0.285714  0.000000     12.000000
  0.428571  0.428571  0.000000      6.000000
 -0.428571  0.428571  0.000000     12.000000
  0.428571  0.285714  0.142857     24.000000
 -0.428571  0.285714  0.142857     48.000000
 -0.428571  0.428571  0.142857     24.000000
 -0.285714  0.428571  0.142857     24.000000
 
 Following cartesian coordinates:
            Coordinates               Weight
  0.000000  0.000000  0.000000      1.000000
 -0.025974  0.025974  0.025974      8.000000
 -0.051948  0.051948  0.051948      8.000000
 -0.077922  0.077922  0.077922      8.000000
  0.000000  0.000000  0.051948      6.000000
 -0.025974  0.025974  0.077922     24.000000
 -0.051948  0.051948  0.103896     24.000000
  0.103896 -0.103896 -0.051948     24.000000
  0.077922 -0.077922 -0.025974     24.000000
  0.051948 -0.051948  0.000000     12.000000
  0.000000  0.000000  0.103896      6.000000
 -0.025974  0.025974  0.129870     24.000000
  0.129870 -0.129870 -0.025974     24.000000
  0.103896 -0.103896  0.000000     12.000000
  0.000000  0.000000  0.155844      6.000000
  0.155844 -0.155844  0.000000     12.000000
 -0.000000  0.051948  0.103896     24.000000
  0.155844 -0.103896 -0.051948     48.000000
  0.181818 -0.129870 -0.025974     24.000000
  0.155844 -0.103896  0.000000     24.000000
 


--------------------------------------------------------------------------------------------------------




 Dimension of arrays:
   k-points           NKPTS =     20   k-points in BZ     NKDIM =     20   number of bands    NBANDS=     16
   number of dos      NEDOS =    301   number of ions     NIONS =      2
   non local maximal  LDIM  =      4   non local SUM 2l+1 LMDIM =      8
   total plane-waves  NPLWV =  27000
   max r-space proj   IRMAX =   4876   max aug-charges    IRDMAX=  21901
   dimension x,y,z NGX =    30 NGY =   30 NGZ =   30
   dimension x,y,z NGXF=    60 NGYF=   60 NGZF=   60
   support grid    NGXF=    60 NGYF=   60 NGZF=   60
   ions per type =               2
   NGX,Y,Z   is equivalent  to a cutoff of  12.82, 12.82, 12.82 a.u.
   NGXF,Y,Z  is equivalent  to a cutoff of  25.65, 25.65, 25.65 a.u.

 SYSTEM =  unknown system                          
 POSCAR =  Si2                                     

 Startparameter for this run:
   NWRITE =      2    write-flag & timer
   PREC   = accura    normal or accurate (medium, high low for compatibility)
   ISTART =      0    job   : 0-new  1-cont  2-samecut
   ICHARG =      2    charge: 1-file 2-atom 10-const
   ISPIN  =      2    spin polarized calculation?
   LNONCOLLINEAR =      F non collinear calculations
   LSORBIT =      F    spin-orbit coupling
   INIWAV =      1    electr: 0-lowe 1-rand  2-diag
   LASPH  =      T    aspherical Exc in radial PAW
 Electronic Relaxation 1
   ENCUT  =  520.0 eV  38.22 Ry    6.18 a.u.   7.23  7.23  7.23*2*pi/ulx,y,z
   ENINI  =  520.0     initial cutoff
   ENAUG  =  322.1 eV  augmentation charge cutoff
   NELM   =    100;   NELMIN=  2; NELMDL= -5     # of ELM steps 
   EDIFF  = 0.1E-03   stopping-criterion for ELM
   LREAL  =      T    real-space projection
   NLSPLINE    = F    spline interpolate recip. space projectors
   LCOMPAT=      F    compatible to vasp.4.4
   GGA_COMPAT  = T    GGA compatible to vasp.4.4-vasp.4.6
   LMAXPAW     = -100 max onsite density
   LMAXMIX     =    2 max onsite mixed and CHGCAR
   VOSKOWN=      0    Vosko Wilk Nusair interpolation
   ROPT   =   -0.00025
 Ionic relaxation
   EDIFFG = 0.1E-02   stopping-criterion for IOM
   NSW    =     99    number of steps for IOM
   NBLOCK =      1;   KBLOCK =     99    inner block; outer block 
   IBRION =      2    ionic relax: 0-MD 1-quasi-New 2-CG
   NFREE  =      1    steps in history (QN), initial steepest desc. (CG)
   ISIF   =      3    stress and relaxation
   IWAVPR =     11    prediction:  0-non 1-charg 2-wave 3-comb
   ISYM   =      2    0-nonsym 1-usesym 2-fastsym
   LCORR  =      T    Harris-Foulkes like correction to forces

   POTIM  = 0.5000    time-step for ionic-motion
   TEIN   =    0.0    initial temperature
   TEBEG  =    0.0;   TEEND  =   0.0 temperature during run
   SMASS  =  -3.00    Nose mass-parameter (am)
   estimated Nose-frequenzy (Omega)   =  0.10E-29 period in steps = 0.13E+47 mass=  -0.346E-27a.u.
   SCALEE = 1.0000    scale energy and forces
   NPACO  =    256;   APACO  = 10.0  distance and # of slots for P.C.
   PSTRESS=    0.0 pullay stress

  Mass of Ions in am
   POMASS =  28.09
  Ionic Valenz
   ZVAL   =   4.00
  Atomic Wigner-Seitz radii
   RWIGS  =  -1.00
  virtual crystal weights 
   VCA    =   1.00
   NELECT =       8.0000    total number of electrons
   NUPDOWN=      -1.0000    fix difference up-down

 DOS related values:
   EMIN   =  10.00;   EMAX   =-10.00  energy-range for DOS
   EFERMI =   0.00;   METHOD = LEGACY      
   ISMEAR =     0;   SIGMA  =   0.80  broadening in eV -4-tet -1-fermi 0-gaus

 Electronic relaxation 2 (details)
   IALGO  =     68    algorithm
   LDIAG  =      T    sub-space diagonalisation (order eigenvalues)
   LSUBROT=      F    optimize rotation matrix (better conditioning)
   TURBO    =      0    0=normal 1=particle mesh
   IRESTART =      0    0=no restart 2=restart with 2 vectors
   NREBOOT  =      0    no. of reboots
   NMIN     =      0    reboot dimension
   EREF     =   0.00    reference energy to select bands
   IMIX   =      4    mixing-type and parameters
     AMIX     =   0.40;   BMIX     =  1.00
     AMIX_MAG =   1.60;   BMIX_MAG =  1.00
     AMIN     =   0.10
     WC   =   100.;   INIMIX=   1;  MIXPRE=   1;  MAXMIX= -45

 Intra band minimization:
   WEIMIN = 0.0010     energy-eigenvalue tresh-hold
   EBREAK =  0.16E-05  absolut break condition
   DEPER  =   0.30     relativ break condition  

   TIME   =   0.40     timestep for ELM

  volume/ion in A,a.u.               =      20.80       140.34
  Fermi-wavevector in a.u.,A,eV,Ry     =   0.944993  1.785779 12.150174  0.893013
  Thomas-Fermi vector in A             =   2.072852
 
 Write flags
   LWAVE        =      F    write WAVECAR
   LDOWNSAMPLE  =      F    k-point downsampling of WAVECAR
   LCHARG       =      F    write CHGCAR
   LVTOT        =      F    write LOCPOT, total local potential
   LVHAR        =      F    write LOCPOT, Hartree potential only
   LELF         =      F    write electronic localiz. function (ELF)
   LORBIT       =     11    0 simple, 1 ext, 2 COOP (PROOUT), +10 PAW based schemes


 Dipole corrections
   LMONO  =      F    monopole corrections only (constant potential shift)
   LDIPOL =      F    correct potential (dipole corrections)
   IDIPOL =      0    1-x, 2-y, 3-z, 4-all directions 
   EPSILON=  1.0000000 bulk dielectric constant

 Exchange correlation treatment:
   GGA     =    --    GGA type
   LEXCH   =     8    internal setting for exchange type
   LIBXC   =     F    Libxc                    
   VOSKOWN =     0    Vosko Wilk Nusair interpolation
   LHFCALC =     F    Hartree Fock is set to
   LHFONE  =     F    Hartree Fock one center treatment
   AEXX    =    0.0000 exact exchange contribution

 Linear response parameters
   LEPSILON=     F    determine dielectric tensor
   LRPA    =     F    only Hartree local field effects (RPA)
   LNABLA  =     F    use nabla operator in PAW spheres
   LVEL    =     F    velocity operator in full k-point grid
   CSHIFT  =0.1000    complex shift for real part using Kramers Kronig
   OMEGAMAX=  -1.0    maximum frequency
   DEG_THRESHOLD= 0.2000000E-02 threshold for treating states as degnerate
   RTIME   =   -0.100 relaxation time in fs
  (WPLASMAI=    0.000 imaginary part of plasma frequency in eV, 0.658/RTIME)
   DFIELD  = 0.0000000 0.0000000 0.0000000 field for delta impulse in time
 
  Optional k-point grid parameters
   LKPOINTS_OPT  =     F    use optional k-point grid
   KPOINTS_OPT_MODE=     1    mode for optional k-point grid
 
 Orbital magnetization related:
   ORBITALMAG=     F  switch on orbital magnetization
   LCHIMAG   =     F  perturbation theory with respect to B field
   DQ        =  0.001000  dq finite difference perturbation B field
   LLRAUG    =     F  two centre corrections for induced B field
   LBONE     =     F  B-component reconstruction in AE one-centre
   LVGVCALC  =     T  calculate vGv susceptibility
   LVGVAPPL  =     F  apply vGv susceptibility instead of pGv for G=0

 Random number generation:
   RANDOM_GENERATOR = DEFAULT
   PCG_SEED         = not used


--------------------------------------------------------------------------------------------------------


 conjugate gradient relaxation of ions
 charge density and potential will be updated during run
 spin polarized calculation
 RMM-DIIS sequential band-by-band and
  variant of blocked Davidson during initial phase
 perform sub-space diagonalisation
    before iterative eigenvector-optimisation
 modified Broyden-mixing scheme, WC =      100.0
 initial mixing is a Kerker type mixing with AMIX =  0.4000 and BMIX =      1.0000
 Hartree-type preconditioning will be used
 using additional bands           12
 real space projection scheme for non local part
 use partial core corrections
 calculate Harris-corrections to forces 
   (improved forces if not selfconsistent)
 use gradient corrections 
 use of overlap-Matrix (Vanderbilt PP)
 Gauss-broadening in eV      SIGMA  =   0.80


--------------------------------------------------------------------------------------------------------


  energy-cutoff  :      520.00
  volume of cell :       41.59
      direct lattice vectors                 reciprocal lattice vectors
     0.000000000  2.750000000  2.750000000    -0.181818182  0.181818182  0.181818182
     2.750000000  0.000000000  2.750000000     0.181818182 -0.181818182  0.181818182
     2.750000000  2.750000000  0.000000000     0.181818182  0.181818182 -0.181818182

  length of vectors
     3.889087297  3.889087297  3.889087297     0.314918329  0.314918329  0.314918329


 
 k-points in units of 2pi/SCALE and weight: pymatgen with grid density = 763 / numbe
   0.00000000  0.00000000  0.00000000       0.003
  -0.02597403  0.02597403  0.02597403       0.023
  -0.05194805  0.05194805  0.05194805       0.023
  -0.07792208  0.07792208  0.07792208       0.023
   0.00000000  0.00000000  0.05194805       0.017
  -0.02597403  0.02597403  0.07792208       0.070
  -0.05194805  0.05194805  0.10389610       0.070
   0.10389610 -0.10389610 -0.05194805       0.070
   0.07792208 -0.07792208 -0.02597403       0.070
   0.05194805 -0.05194805  0.00000000       0.035
   0.00000000  0.00000000  0.10389610       0.017
  -0.02597403  0.02597403  0.12987013       0.070
   0.12987013 -0.12987013 -0.02597403       0.070
   0.10389610 -0.10389610  0.00000000       0.035
   0.00000000  0.00000000  0.15584416       0.017
   0.15584416 -0.15584416  0.00000000       0.035
  -0.00000000  0.05194805  0.10389610       0.070
   0.15584416 -0.10389610 -0.05194805       0.140
   0.18181818 -0.12987013 -0.02597403       0.070
   0.15584416 -0.10389610  0.00000000       0.070
 
 k-points in reciprocal lattice and weights: pymatgen with grid density = 763 / numbe
   0.00000000  0.00000000  0.00000000       0.003
   0.14285714  0.00000000  0.00000000       0.023
   0.28571429  0.00000000  0.00000000       0.023
   0.42857143  0.00000000  0.00000000       0.023
   0.14285714  0.14285714  0.00000000       0.017
   0.28571429  0.14285714  0.00000000       0.070
   0.42857143  0.14285714  0.00000000       0.070
  -0.42857143  0.14285714  0.00000000       0.070
  -0.28571429  0.14285714  0.00000000       0.070
  -0.14285714  0.14285714  0.00000000       0.035
   0.28571429  0.28571429  0.00000000       0.017
   0.42857143  0.28571429  0.00000000       0.070
  -0.42857143  0.28571429  0.00000000       0.070
  -0.28571429  0.28571429  0.00000000       0.035
   0.42857143  0.42857143  0.00000000       0.017
  -0.42857143  0.42857143  0.00000000       0.035
   0.42857143  0.28571429  0.14285714       0.070
  -0.42857143  0.28571429  0.14285714       0.140
  -0.42857143  0.42857143  0.14285714       0.070
  -0.28571429  0.42857143  0.14285714       0.070
 
 position of ions in fractional coordinates (direct lattice) 
   0.12500000  0.12500000  0.12500000
   0.87500000  0.87500000  0.87500000
 
 position of ions in cartesian coordinates  (Angst):
   0.68750000  0.68750000  0.68750000
   4.81250000  4.81250000  4.81250000
 


--------------------------------------------------------------------------------------------------------


 k-point   1 :   0.0000 0.0000 0.0000  plane waves:    1139
 k-point   2 :   0.1429 0.0000 0.0000  plane waves:    1131
 k-point   3 :   0.2857 0.0000 0.0000  plane waves:    1119
 k-point   4 :   0.4286 0.0000 0.0000  plane waves:    1131
 k-point   5 :   0.1429 0.1429 0.0000  plane waves:    1130
 k-point   6 :   0.2857 0.1429 0.0000  plane waves:    1116
 k-point   7 :   0.4286 0.1429 0.0000  plane waves:    1123
 k-point   8 :  -0.4286 0.1429 0.0000  plane waves:    1114
 k-point   9 :  -0.2857 0.1429 0.0000  plane waves:    1120
 k-point  10 :  -0.1429 0.1429 0.0000  plane waves:    1115
 k-point  11 :   0.2857 0.2857 0.0000  plane waves:    1106
 k-point  12 :   0.4286 0.2857 0.0000  plane waves:    1118
 k-point  13 :  -0.4286 0.2857 0.0000  plane waves:    1121
 k-point  14 :  -0.2857 0.2857 0.0000  plane waves:    1119
 k-point  15 :   0.4286 0.4286 0.0000  plane waves:    1110
 k-point  16 :  -0.4286 0.4286 0.0000  plane waves:    1126
 k-point  17 :   0.4286 0.2857 0.1429  plane waves:    1117
 k-point  18 :  -0.4286 0.2857 0.1429  plane waves:    1127
 k-point  19 :  -0.4286 0.4286 0.1429  plane waves:    1118
 k-point  20 :  -0.2857 0.4286 0.1429  plane waves:    1127

 maximum and minimum number of plane-waves per node :       149      130

 maximum number of plane-waves:      1139
 maximum index in each direction: 
   IXMAX=    7   IYMAX=    7   IZMAX=    7
   IXMIN=   -7   IYMIN=   -7   IZMIN=   -7


 real space projection operators:
  total allocation   :        590.50 KBytes
  max/ min on nodes  :         87.25         39.88


 parallel 3D FFT for wavefunctions:
    minimum data exchange during FFTs selected (reduces bandwidth)
 parallel 3D FFT for charge:
    minimum data exchange during FFTs selected (reduces bandwidth)


 total amount of memory used by VASP MPI-rank0    31266. kBytes
=======================================================================

   base      :      30000. kBytes
   nonlr-proj:        263. kBytes
   fftplans  :        246. kBytes
   grid      :        557. kBytes
   one-center:          6. kBytes
   wavefun   :        194. kBytes
 
     INWAV:  cpu time      0.0002: real time      0.0006
 Broyden mixing: mesh for mixing (old mesh)
   NGX = 15   NGY = 15   NGZ = 15
  (NGX  = 60   NGY  = 60   NGZ  = 60)
  gives a total of   3375 points

 initial charge density was supplied:
 charge density of overlapping atoms calculated
 number of electron       8.0000000 magnetization       1.2000000
 keeping initial charge density in first step


--------------------------------------------------------------------------------------------------------


 Maximum index for non-local projection operator          638
 Maximum index for augmentation-charges          703 (set IRDMAX)


--------------------------------------------------------------------------------------------------------


 First call to EWALD:  gamma=   0.512
 Maximum number of real-space cells 3x 3x 3
 Maximum number of reciprocal cells 3x 3x 3

    FEWALD:  cpu time      0.0028: real time      0.0057


--------------------------------------- Ionic step        1  -------------------------------------------




--------------------------------------- Iteration      1(   1)  ---------------------------------------


    POTLOK:  cpu time      0.0177: real time      0.0404
    SETDIJ:  cpu time      0.1768: real time      0.3573
     EDDAV:  cpu time      0.2116: real time      0.4213
       DOS:  cpu time      0.0013: real time      0.0026
    --------------------------------------------
      LOOP:  cpu time      0.4075: real time      0.8216

 eigenvalue-minimisations  :  1280
 total energy-change (2. order) : 0.5386773E+01  (-0.2678243E+03)
 number of electron       8.0000000 magnetization       1.2000000
 augmentation part        8.0000000 magnetization       1.2000000

 Free energy of the ion-electron system (eV)
  ---------------------------------------------------
  alpha Z        PSCENC =         3.23732084
  Ewald energy   TEWEN  =      -225.65453461
  -Hartree energ DENC   =       -11.58535014
  -exchange      EXHF   =         0.00000000
  -V(xc)+E(xc)   XCENC  =       -18.67198536
  PAW double counting   =        65.91709927      -30.72587073
  entropy T*S    EENTRO =        -0.11478316
  eigenvalues    EBANDS =        16.85217422
  atomic energy  EATOM  =       206.13270273
  Solvation  Ediel_sol  =         0.00000000
  ---------------------------------------------------
  free energy    TOTEN  =         5.38677307 eV

  energy without entropy =        5.50155623  energy(sigma->0) =        5.44416465


--------------------------------------------------------------------------------------------------------




--------------------------------------- Iteration      1(   2)  ---------------------------------------


     EDDAV:  cpu time      0.2637: real time      0.5349
       DOS:  cpu time      0.0013: real time      0.0027
    --------------------------------------------
      LOOP:  cpu time      0.2650: real time      0.5376

 eigenvalue-minimisations  :  1728
 total energy-change (2. order) :-0.1579576E+02  (-0.1528048E+02)
 number of electron       8.0000000 magnetization       1.2000000
 augmentation part        8.0000000 magnetization       1.2000000

 Free energy of the ion-electron system (eV)
  ---------------------------------------------------
  alpha Z        PSCENC =         3.23732084
  Ewald energy   TEWEN  =      -225.65453461
  -Hartree energ DENC   =       -11.58535014
  -exchange      EXHF   =         0.00000000
  -V(xc)+E(xc)   XCENC  =       -18.67198536
  PAW double counting   =        65.91709927      -30.72587073
  entropy T*S    EENTRO =        -0.06034141
  eigenvalues    EBANDS =         1.00197727
  atomic energy  EATOM  =       206.13270273
  Solvation  Ediel_sol  =         0.00000000
  ---------------------------------------------------
  free energy    TOTEN  =       -10.40898213 eV

  energy without entropy =      -10.34864072  energy(sigma->0) =      -10.37881142


--------------------------------------------------------------------------------------------------------




--------------------------------------- Iteration      1(   3)  ---------------------------------------


     EDDAV:  cpu time      0.2341: real time      0.4841
       DOS:  cpu time      0.0013: real time      0.0027
    --------------------------------------------
      LOOP:  cpu time      0.2354: real time      0.4868

 eigenvalue-minimisations  :  1584
 total energy-change (2. order) :-0.4204797E+00  (-0.4195625E+00)
 number of electron       8.0000000 magnetization       1.2000000
 augmentation part        8.0000000 magnetization       1.2000000

 Free energy of the ion-electron system (eV)
  ---------------------------------------------------
  alpha Z        PSCENC =         3.23732084
  Ewald energy   TEWEN  =      -225.65453461
  -Hartree energ DENC   =       -11.58535014
  -exchange      EXHF   =         0.00000000
  -V(xc)+E(xc)   XCENC  =       -18.67198536
  PAW double counting   =        65.91709927      -30.72587073
  entropy T*S    EENTRO =        -0.06089985
  eigenvalues    EBANDS =         0.58205603
  atomic energy  EATOM  =       206.13270273
  Solvation  Ediel_sol  =         0.00000000
  ---------------------------------------------------
  free energy    TOTEN  =       -10.82946182 eV

  energy without entropy =      -10.76856196  energy(sigma->0) =      -10.79901189


--------------------------------------------------------------------------------------------------------




--------------------------------------- Iteration      1(   4)  ---------------------------------------


     EDDAV:  cpu time      0.2561: real time      0.5291
       DOS:  cpu time      0.0013: real time      0.0027
    --------------------------------------------
      LOOP:  cpu time      0.2574: real time      0.5317

 eigenvalue-minimisations  :  1728
 total energy-change (2. order) :-0.2524048E-02  (-0.2523885E-02)
 number of electron       8.0000000 magnetization       1.2000000
 augmentation part        8.0000000 magnetization       1.2000000

 Free energy of the ion-electron system (eV)
  ---------------------------------------------------
  alpha Z        PSCENC =         3.23732084
  Ewald energy   TEWEN  =      -225.65453461
  -Hartree energ DENC   =       -11.58535014
  -exchange      EXHF   =         0.00000000
  -V(xc)+E(xc)   XCENC  =       -18.67198536
  PAW double counting   =        65.91709927      -30.72587073
  entropy T*S    EENTRO =        -0.06090384
  eigenvalues    EBANDS =         0.57953597
  atomic energy  EATOM  =       206.13270273
  Solvation  Ediel_sol  =         0.00000000
  ---------------------------------------------------
  free energy    TOTEN  =       -10.83198587 eV

  energy without entropy =      -10.77108202  energy(sigma->0) =      -10.80153394


--------------------------------------------------------------------------------------------------------




--------------------------------------- Iteration      1(   5)  ---------------------------------------


     EDDAV:  cpu time      0.2340: real time      0.4849
       DOS:  cpu time      0.0013: real time      0.0028
    CHARGE:  cpu time      0.0122: real time      0.0254
    MIXING:  cpu time      0.0011: real time      0.0024
    --------------------------------------------
      LOOP:  cpu time      0.2486: real time      0.5154

 eigenvalue-minimisations  :  1592
 total energy-change (2. order) :-0.2316415E-04  (-0.2316334E-04)
 number of electron       7.9999999 magnetization      -0.2653900
 augmentation part       -0.4693657 magnetization      -0.3139385

 Broyden mixing:
  rms(total) = 0.35574E+00    rms(broyden)= 0.35574E+00
  rms(prec ) = 0.84951E+00
  weight for this iteration     100.00

 Free energy of the ion-electron system (eV)
  ---------------------------------------------------
  alpha Z        PSCENC =         3.23732084
  Ewald energy   TEWEN  =      -225.65453461
  -Hartree energ DENC   =       -11.58535014
  -exchange      EXHF   =         0.00000000
  -V(xc)+E(xc)   XCENC  =       -18.67198536
  PAW double counting   =        65.91709927      -30.72587073
  entropy T*S    EENTRO =        -0.06090386
  eigenvalues    EBANDS =         0.57951283
  atomic energy  EATOM  =       206.13270273
  Solvation  Ediel_sol  =         0.00000000
  ---------------------------------------------------
  free energy    TOTEN  =       -10.83200903 eV

  energy without entropy =      -10.77110516  energy(sigma->0) =      -10.80155710


--------------------------------------------------------------------------------------------------------




--------------------------------------- Iteration      1(   6)  ---------------------------------------


    POTLOK:  cpu time      0.0168: real time      0.0467
    SETDIJ:  cpu time      0.1767: real time      0.3551
    EDDIAG:  cpu time      0.0332: real time      0.0666
  RMM-DIIS:  cpu time      0.0605: real time      0.1228
    ORTHCH:  cpu time      0.0095: real time      0.0191
       DOS:  cpu time      0.0013: real time      0.0028
    CHARGE:  cpu time      0.0113: real time      0.0225
    MIXING:  cpu time      0.0006: real time      0.0011
    --------------------------------------------
      LOOP:  cpu time      0.3100: real time      0.6366

 eigenvalue-minimisations  :  1280
 total energy-change (2. order) :-0.6583683E-01  (-0.3660032E-02)
 number of electron       7.9999999 magnetization       0.3303865
 augmentation part       -0.4634825 magnetization       0.3428897

 Broyden mixing:
  rms(total) = 0.17929E+00    rms(broyden)= 0.17929E+00
  rms(prec ) = 0.49253E+00
  weight for this iteration     100.00

 eigenvalues of (default mixing * dielectric matrix)
  average eigenvalue GAMMA=   0.8970
  0.8970

 Free energy of the ion-electron system (eV)
  ---------------------------------------------------
  alpha Z        PSCENC =         3.23732084
  Ewald energy   TEWEN  =      -225.65453461
  -Hartree energ DENC   =       -12.98886213
  -exchange      EXHF   =         0.00000000
  -V(xc)+E(xc)   XCENC  =       -18.52547075
  PAW double counting   =        69.38636451      -34.29291966
  entropy T*S    EENTRO =        -0.05629564
  eigenvalues    EBANDS =         1.86384886
  atomic energy  EATOM  =       206.13270273
  Solvation  Ediel_sol  =         0.00000000
  ---------------------------------------------------
  free energy    TOTEN  =       -10.89784586 eV

  energy without entropy =      -10.84155022  energy(sigma->0) =      -10.86969804


--------------------------------------------------------------------------------------------------------




--------------------------------------- Iteration      1(   7)  ---------------------------------------


    POTLOK:  cpu time      0.0136: real time      0.0392
    SETDIJ:  cpu time      0.1761: real time      0.3586
    EDDIAG:  cpu time      0.0337: real time      0.0676
  RMM-DIIS:  cpu time      0.0602: real time      0.1216
    ORTHCH:  cpu time      0.0094: real time      0.0190
       DOS:  cpu time      0.0013: real time      0.0028
    CHARGE:  cpu time      0.0113: real time      0.0222
    MIXING:  cpu time      0.0006: real time      0.0011
    --------------------------------------------
      LOOP:  cpu time      0.3065: real time      0.6323

 eigenvalue-minimisations  :  1280
 total energy-change (2. order) : 0.5001253E-01  (-0.3584765E-02)
 number of electron       7.9999999 magnetization       0.0131513
 augmentation part       -0.4588035 magnetization      -0.0031975

 Broyden mixing:
  rms(total) = 0.82672E-01    rms(broyden)= 0.82672E-01
  rms(prec ) = 0.14304E+00
  weight for this iteration     100.00

 eigenvalues of (default mixing * dielectric matrix)
  average eigenvalue GAMMA=   1.5084
  0.7960  2.2208

 Free energy of the ion-electron system (eV)
  ---------------------------------------------------
  alpha Z        PSCENC =         3.23732084
  Ewald energy   TEWEN  =      -225.65453461
  -Hartree energ DENC   =       -14.68928756
  -exchange      EXHF   =         0.00000000
  -V(xc)+E(xc)   XCENC  =       -18.24611420
  PAW double counting   =        72.77723482      -37.77050396
  entropy T*S    EENTRO =        -0.06489615
  eigenvalues    EBANDS =         3.43024476
  atomic energy  EATOM  =       206.13270273
  Solvation  Ediel_sol  =         0.00000000
  ---------------------------------------------------
  free energy    TOTEN  =       -10.84783333 eV

  energy without entropy =      -10.78293718  energy(sigma->0) =      -10.81538525


--------------------------------------------------------------------------------------------------------




--------------------------------------- Iteration      1(   8)  ---------------------------------------


    POTLOK:  cpu time      0.0178: real time      0.0473
    SETDIJ:  cpu time      0.1783: real time      0.3599
    EDDIAG:  cpu time      0.0350: real time      0.0699
  RMM-DIIS:  cpu time      0.0601: real time      0.1220
    ORTHCH:  cpu time      0.0095: real time      0.0191
       DOS:  cpu time      0.0013: real time      0.0028
    CHARGE:  cpu time      0.0116: real time      0.0224
    MIXING:  cpu time      0.0005: real time      0.0009
    --------------------------------------------
      LOOP:  cpu time      0.3141: real time      0.6442

 eigenvalue-minimisations  :  1280
 total energy-change (2. order) :-0.9182090E-02  (-0.9277137E-03)
 number of electron       7.9999999 magnetization      -0.0059673
 augmentation part       -0.4575085 magnetization      -0.0072185

 Broyden mixing:
  rms(total) = 0.17325E-01    rms(broyden)= 0.17325E-01
  rms(prec ) = 0.30052E-01
  weight for this iteration     100.00

 eigenvalues of (default mixing * dielectric matrix)
  average eigenvalue GAMMA=   1.3089
  2.4458  0.8229  0.6580

 Free energy of the ion-electron system (eV)
  ---------------------------------------------------
  alpha Z        PSCENC =         3.23732084
  Ewald energy   TEWEN  =      -225.65453461
  -Hartree energ DENC   =       -15.26639384
  -exchange      EXHF   =         0.00000000
  -V(xc)+E(xc)   XCENC  =       -18.15793857
  PAW double counting   =        73.61314893      -38.63163154
  entropy T*S    EENTRO =        -0.06623439
  eigenvalues    EBANDS =         3.93654503
  atomic energy  EATOM  =       206.13270273
  Solvation  Ediel_sol  =         0.00000000
  ---------------------------------------------------
  free energy    TOTEN  =       -10.85701542 eV

  energy without entropy =      -10.79078103  energy(sigma->0) =      -10.82389822


--------------------------------------------------------------------------------------------------------




--------------------------------------- Iteration      1(   9)  ---------------------------------------


    POTLOK:  cpu time      0.0229: real time      0.0403
    SETDIJ:  cpu time      0.1778: real time      0.3600
    EDDIAG:  cpu time      0.0459: real time      0.0926
  RMM-DIIS:  cpu time      0.0617: real time      0.1246
    ORTHCH:  cpu time      0.0094: real time      0.0189
       DOS:  cpu time      0.0015: real time      0.0030
    CHARGE:  cpu time      0.0122: real time      0.0243
    MIXING:  cpu time      0.0006: real time      0.0010
    --------------------------------------------
      LOOP:  cpu time      0.3320: real time      0.6649

 eigenvalue-minimisations  :  1280
 total energy-change (2. order) : 0.6474921E-03  (-0.5739782E-04)
 number of electron       7.9999999 magnetization      -0.0028539
 augmentation part       -0.4578643 magnetization      -0.0019922

 Broyden mixing:
  rms(total) = 0.87178E-02    rms(broyden)= 0.87178E-02
  rms(prec ) = 0.18106E-01
  weight for this iteration     100.00

 eigenvalues of (default mixing * dielectric matrix)
  average eigenvalue GAMMA=   1.4406
  2.4693  1.8301  0.8194  0.6434

 Free energy of the ion-electron system (eV)
  ---------------------------------------------------
  alpha Z        PSCENC =         3.23732084
  Ewald energy   TEWEN  =      -225.65453461
  -Hartree energ DENC   =       -15.26371521
  -exchange      EXHF   =         0.00000000
  -V(xc)+E(xc)   XCENC  =       -18.15523456
  PAW double counting   =        73.38466717      -38.39675537
  entropy T*S    EENTRO =        -0.06579508
  eigenvalues    EBANDS =         3.92497615
  atomic energy  EATOM  =       206.13270273
  Solvation  Ediel_sol  =         0.00000000
  ---------------------------------------------------
  free energy    TOTEN  =       -10.85636793 eV

  energy without entropy =      -10.79057285  energy(sigma->0) =      -10.82347039


--------------------------------------------------------------------------------------------------------




--------------------------------------- Iteration      1(  10)  ---------------------------------------


    POTLOK:  cpu time      0.0154: real time      0.0411
    SETDIJ:  cpu time      0.1799: real time      0.3591
    EDDIAG:  cpu time      0.0335: real time      0.0673
  RMM-DIIS:  cpu time      0.0603: real time      0.1214
    ORTHCH:  cpu time      0.0095: real time      0.0189
       DOS:  cpu time      0.0019: real time      0.0037
    --------------------------------------------
      LOOP:  cpu time      0.3005: real time      0.6115

 eigenvalue-minimisations  :  1269
 total energy-change (2. order) :-0.5524201E-04  (-0.3590467E-04)
 number of electron       7.9999999 magnetization      -0.0028539
 augmentation part       -0.4578643 magnetization      -0.0019922

 Free energy of the ion-electron system (eV)
  ---------------------------------------------------
  alpha Z        PSCENC =         3.23732084
  Ewald energy   TEWEN  =      -225.65453461
  -Hartree energ DENC   =       -15.26127706
  -exchange      EXHF   =         0.00000000
  -V(xc)+E(xc)   XCENC  =       -18.15038034
  PAW double counting   =        72.98057005      -37.98052743
  entropy T*S    EENTRO =        -0.06499164
  eigenvalues    EBANDS =         3.90469429
  atomic energy  EATOM  =       206.13270273
  Solvation  Ediel_sol  =         0.00000000
  ---------------------------------------------------
  free energy    TOTEN  =       -10.85642317 eV

  energy without entropy =      -10.79143153  energy(sigma->0) =      -10.82392735


--------------------------------------------------------------------------------------------------------




 average (electrostatic) potential at core
  the test charge radii are     0.9892
  (the norm of the test charge is              1.0000)
       1 -83.7019       2 -83.7019
 
 
 
 E-fermi :   5.7123     XC(G=0):  -9.2717     alpha+bet :-11.5327

 Fermi energy:         5.7122904125

 spin component 1

 k-point     1 :       0.0000    0.0000    0.0000
  band No.  band energies     occupation 
      1      -6.2663      1.00000
      2       5.4299      0.69121
      3       5.4299      0.69121
      4       5.4299      0.69121
      5       7.9889      0.00003
      6       7.9889      0.00003
      7       7.9889      0.00003
      8       8.3679      0.00000
      9      13.1418      0.00000
     10      13.1418      0.00000
     11      13.2374      0.00000
     12      16.5684      0.00000
     13      16.5684      0.00000
     14      16.5684      0.00000
     15      20.5879      0.00000
     16      28.0888      0.00000

 k-point     2 :       0.1429    0.0000    0.0000
  band No.  band energies     occupation 
      1      -6.0089      1.00000
      2       3.5185      0.99995
      3       5.0875      0.86532
      4       5.0875      0.86532
      5       7.7565      0.00015
      6       8.4910      0.00000
      7       8.4910      0.00000
      8      10.1366      0.00000
      9      12.6013      0.00000
     10      12.6013      0.00000
     11      14.1761      0.00000
     12      15.9529      0.00000
     13      17.9841      0.00000
     14      17.9841      0.00000
     15      22.0866      0.00000
     16      25.6283      0.00000

 k-point     3 :       0.2857    0.0000    0.0000
  band No.  band energies     occupation 
      1      -5.2688      1.00000
      2       0.9682      1.00000
      3       4.5870      0.97667
      4       4.5870      0.97667
      5       7.2080      0.00410
      6       8.9537      0.00000
      7       8.9537      0.00000
      8      12.6131      0.00000
      9      12.8669      0.00000
     10      12.8669      0.00000
     11      14.1996      0.00000
     12      17.7676      0.00000
     13      20.2030      0.00000
     14      20.2042      0.00000
     15      22.4808      0.00000
     16      22.4941      0.00000

 k-point     4 :       0.4286    0.0000    0.0000
  band No.  band energies     occupation 
      1      -4.2720      1.00000
      2      -0.9934      1.00000
      3       4.3046      0.99358
      4       4.3046      0.99358
      5       6.8817      0.01936
      6       8.8328      0.00000
      7       8.8328      0.00000
      8      13.1665      0.00000
      9      14.8156      0.00000
     10      14.8156      0.00000
     11      15.6582      0.00000
     12      17.7828      0.00000
     13      17.7828      0.00000
     14      18.6705      0.00000
     15      22.6478      0.00000
     16      24.9752      0.00000

 k-point     5 :       0.1429    0.1429    0.0000
  band No.  band energies     occupation 
      1      -5.9217      1.00000
      2       3.7640      0.99971
      3       4.5011      0.98386
      4       4.5011      0.98386
      5       7.3292      0.00213
      6       9.3395      0.00000
      7       9.3395      0.00000
      8       9.5934      0.00000
      9      11.8166      0.00000
     10      13.5267      0.00000
     11      14.5784      0.00000
     12      17.1691      0.00000
     13      17.1691      0.00000
     14      17.6806      0.00000
     15      22.8367      0.00000
     16      25.1275      0.00000

 k-point     6 :       0.2857    0.1429    0.0000
  band No.  band energies     occupation 
      1      -5.3350      1.00000
      2       1.7154      1.00000
      3       3.9187      0.99924
      4       3.9759      0.99893
      5       7.5097      0.00074
      6       9.1866      0.00000
      7      10.0018      0.00000
      8      10.1138      0.00000
      9      13.3122      0.00000
     10      13.8925      0.00000
     11      15.5015      0.00000
     12      17.3253      0.00000
     13      18.7740      0.00000
     14      20.1659      0.00000
     15      21.8830      0.00000
     16      22.4687      0.00000

 k-point     7 :       0.4286    0.1429    0.0000
  band No.  band energies     occupation 
      1      -4.3643      1.00000
      2      -0.3925      1.00000
      3       3.2484      0.99999
      4       3.7895      0.99966
      5       7.5565      0.00056
      6       9.1716      0.00000
      7       9.9361      0.00000
      8      11.1504      0.00000
      9      14.8012      0.00000
     10      15.5605      0.00000
     11      16.0407      0.00000
     12      17.4703      0.00000
     13      18.1633      0.00000
     14      20.8359      0.00000
     15      22.5661      0.00000
     16      22.7643      0.00000

 k-point     8 :      -0.4286    0.1429    0.0000
  band No.  band energies     occupation 
      1      -3.8336      1.00000
      2      -1.2190      1.00000
      3       2.8510      1.00000
      4       3.9769      0.99892
      5       7.6300      0.00035
      6       9.1111      0.00000
      7       9.5605      0.00000
      8      13.4604      0.00000
      9      13.9875      0.00000
     10      14.3887      0.00000
     11      16.2314      0.00000
     12      18.3699      0.00000
     13      18.8320      0.00000
     14      19.2496      0.00000
     15      23.2400      0.00000
     16      25.0594      0.00000

 k-point     9 :      -0.2857    0.1429    0.0000
  band No.  band energies     occupation 
      1      -4.7182      1.00000
      2       0.2627      1.00000
      3       2.8658      1.00000
      4       4.4705      0.98592
      5       7.9927      0.00003
      6       9.3108      0.00000
      7       9.3229      0.00000
      8      11.9259      0.00000
      9      12.1801      0.00000
     10      15.1334      0.00000
     11      16.3462      0.00000
     12      17.4397      0.00000
     13      19.3224      0.00000
     14      21.1027      0.00000
     15      21.3623      0.00000
     16      22.5849      0.00000

 k-point    10 :      -0.1429    0.1429    0.0000
  band No.  band energies     occupation 
      1      -5.5871      1.00000
      2       2.3164      1.00000
      3       3.5489      0.99993
      4       5.0415      0.88216
      5       8.3643      0.00000
      6       8.7009      0.00000
      7       8.9311      0.00000
      8      10.8914      0.00000
      9      11.6777      0.00000
     10      13.7949      0.00000
     11      15.3352      0.00000
     12      16.6037      0.00000
     13      18.0299      0.00000
     14      20.3563      0.00000
     15      21.8713      0.00000
     16      23.6338      0.00000

 k-point    11 :       0.2857    0.2857    0.0000
  band No.  band energies     occupation 
      1      -4.9049      1.00000
      2       1.2818      1.00000
      3       3.3755      0.99998
      4       3.3755      0.99998
      5       6.4136      0.10754
      6       8.0776      0.00001
      7      11.6874      0.00000
      8      11.6874      0.00000
      9      13.8637      0.00000
     10      14.6785      0.00000
     11      17.3385      0.00000
     12      18.6285      0.00000
     13      18.6285      0.00000
     14      19.5218      0.00000
     15      21.8452      0.00000
     16      21.8453      0.00000

 k-point    12 :       0.4286    0.2857    0.0000
  band No.  band energies     occupation 
      1      -4.0335      1.00000
      2      -0.1735      1.00000
      3       2.4365      1.00000
      4       3.1227      1.00000
      5       6.6971      0.04085
      6       8.1528      0.00001
      7      11.8746      0.00000
      8      12.1005      0.00000
      9      16.1998      0.00000
     10      16.3164      0.00000
     11      16.8441      0.00000
     12      17.4531      0.00000
     13      19.3420      0.00000
     14      20.1955      0.00000
     15      21.4863      0.00000
     16      23.0159      0.00000

 k-point    13 :      -0.4286    0.2857    0.0000
  band No.  band energies     occupation 
      1      -3.1574      1.00000
      2      -1.3015      1.00000
      3       1.5196      1.00000
      4       3.2840      0.99999
      5       6.9323      0.01552
      6      10.3386      0.00000
      7      11.6023      0.00000
      8      11.6271      0.00000
      9      14.2591      0.00000
     10      14.3994      0.00000
     11      18.6343      0.00000
     12      18.9639      0.00000
     13      19.2786      0.00000
     14      22.5060      0.00000
     15      22.6755      0.00000
     16      22.9868      0.00000

 k-point    14 :      -0.2857    0.2857    0.0000
  band No.  band energies     occupation 
      1      -3.7810      1.00000
      2      -0.5777      1.00000
      3       1.4526      1.00000
      4       3.8122      0.99961
      5       7.5067      0.00076
      6      10.8026      0.00000
      7      11.1340      0.00000
      8      11.8405      0.00000
      9      12.3194      0.00000
     10      13.4105      0.00000
     11      18.5591      0.00000
     12      19.1725      0.00000
     13      19.9231      0.00000
     14      21.7085      0.00000
     15      21.8293      0.00000
     16      22.8726      0.00000

 k-point    15 :       0.4286    0.4286    0.0000
  band No.  band energies     occupation 
      1      -3.2731      1.00000
      2      -1.1453      1.00000
      3       2.7631      1.00000
      4       2.7631      1.00000
      5       6.0795      0.25815
      6       6.5980      0.05871
      7      14.2609      0.00000
      8      14.2609      0.00000
      9      16.5870      0.00000
     10      16.7728      0.00000
     11      17.2756      0.00000
     12      17.2756      0.00000
     13      18.8052      0.00000
     14      19.2299      0.00000
     15      22.3648      0.00000
     16      23.1141      0.00000

 k-point    16 :      -0.4286    0.4286    0.0000
  band No.  band energies     occupation 
      1      -2.3614      1.00000
      2      -2.0722      1.00000
      3       1.9163      1.00000
      4       2.8221      1.00000
      5       6.3792      0.11919
      6       7.5948      0.00044
      7      14.0447      0.00000
      8      14.4116      0.00000
      9      14.7086      0.00000
     10      15.0785      0.00000
     11      18.8056      0.00000
     12      18.9889      0.00000
     13      19.1088      0.00000
     14      19.8697      0.00000
     15      22.2659      0.00000
     16      22.6959      0.00000

 k-point    17 :       0.4286    0.2857    0.1429
  band No.  band energies     occupation 
      1      -4.6081      1.00000
      2       0.5807      1.00000
      3       2.4413      1.00000
      4       3.7107      0.99980
      5       8.0089      0.00002
      6       9.2192      0.00000
      7       9.5253      0.00000
      8      11.4531      0.00000
      9      13.5430      0.00000
     10      16.1853      0.00000
     11      16.5390      0.00000
     12      17.8270      0.00000
     13      18.9510      0.00000
     14      20.6736      0.00000
     15      20.7971      0.00000
     16      23.6189      0.00000

 k-point    18 :      -0.4286    0.2857    0.1429
  band No.  band energies     occupation 
      1      -3.6079      1.00000
      2      -0.8927      1.00000
      3       1.8770      1.00000
      4       3.2005      1.00000
      5       8.4852      0.00000
      6       8.8834      0.00000
      7      10.8193      0.00000
      8      11.9059      0.00000
      9      13.6106      0.00000
     10      15.2399      0.00000
     11      17.4473      0.00000
     12      18.5802      0.00000
     13      19.6864      0.00000
     14      21.1730      0.00000
     15      22.5286      0.00000
     16      23.3354      0.00000

 k-point    19 :      -0.4286    0.4286    0.1429
  band No.  band energies     occupation 
      1      -3.0796      1.00000
      2      -1.2329      1.00000
      3       1.9780      1.00000
      4       2.3774      1.00000
      5       7.6590      0.00029
      6       8.0323      0.00002
      7      11.4635      0.00000
      8      13.8877      0.00000
      9      14.4263      0.00000
     10      16.2506      0.00000
     11      17.6402      0.00000
     12      19.1846      0.00000
     13      19.6692      0.00000
     14      20.6829      0.00000
     15      21.9212      0.00000
     16      22.6171      0.00000

 k-point    20 :      -0.2857    0.4286    0.1429
  band No.  band energies     occupation 
      1      -2.6656      1.00000
      2      -1.6140      1.00000
      3       1.3713      1.00000
      4       2.4643      1.00000
      5       8.1758      0.00001
      6      10.2557      0.00000
      7      10.9469      0.00000
      8      11.1185      0.00000
      9      14.3123      0.00000
     10      15.4746      0.00000
     11      18.3295      0.00000
     12      19.6051      0.00000
     13      20.4884      0.00000
     14      21.5947      0.00000
     15      22.6484      0.00000
     16      23.5024      0.00000
 Fermi energy:         5.7122904125

 spin component 2

 k-point     1 :       0.0000    0.0000    0.0000
  band No.  band energies     occupation 
      1      -6.2657      1.00000
      2       5.4329      0.68932
      3       5.4329      0.68932
      4       5.4329      0.68932
      5       7.9865      0.00003
      6       7.9865      0.00003
      7       7.9865      0.00003
      8       8.3715      0.00000
      9      13.1383      0.00000
     10      13.1383      0.00000
     11      13.2389      0.00000
     12      16.5626      0.00000
     13      16.5626      0.00000
     14      16.5626      0.00000
     15      20.5913      0.00000
     16      28.0844      0.00000

 k-point     2 :       0.1429    0.0000    0.0000
  band No.  band energies     occupation 
      1      -6.0083      1.00000
      2       3.5203      0.99995
      3       5.0899      0.86439
      4       5.0899      0.86439
      5       7.7562      0.00015
      6       8.4891      0.00000
      7       8.4891      0.00000
      8      10.1395      0.00000
      9      12.5973      0.00000
     10      12.5973      0.00000
     11      14.1772      0.00000
     12      15.9492      0.00000
     13      17.9790      0.00000
     14      17.9790      0.00000
     15      22.0884      0.00000
     16      25.6545      0.00000

 k-point     3 :       0.2857    0.0000    0.0000
  band No.  band energies     occupation 
      1      -5.2679      1.00000
      2       0.9692      1.00000
      3       4.5890      0.97647
      4       4.5890      0.97647
      5       7.2082      0.00409
      6       8.9513      0.00000
      7       8.9513      0.00000
      8      12.6154      0.00000
      9      12.8634      0.00000
     10      12.8634      0.00000
     11      14.1985      0.00000
     12      17.7690      0.00000
     13      20.1998      0.00000
     14      20.2004      0.00000
     15      22.4781      0.00000
     16      22.4952      0.00000

 k-point     4 :       0.4286    0.0000    0.0000
  band No.  band energies     occupation 
      1      -4.2707      1.00000
      2      -0.9931      1.00000
      3       4.3065      0.99352
      4       4.3065      0.99352
      5       6.8821      0.01932
      6       8.8295      0.00000
      7       8.8295      0.00000
      8      13.1647      0.00000
      9      14.8130      0.00000
     10      14.8130      0.00000
     11      15.6616      0.00000
     12      17.7810      0.00000
     13      17.7810      0.00000
     14      18.6740      0.00000
     15      22.6472      0.00000
     16      24.9711      0.00000

 k-point     5 :       0.1429    0.1429    0.0000
  band No.  band energies     occupation 
      1      -5.9211      1.00000
      2       3.7670      0.99971
      3       4.5026      0.98376
      4       4.5026      0.98376
      5       7.3270      0.00216
      6       9.3387      0.00000
      7       9.3387      0.00000
      8       9.5953      0.00000
      9      11.8139      0.00000
     10      13.5232      0.00000
     11      14.5799      0.00000
     12      17.1633      0.00000
     13      17.1633      0.00000
     14      17.6785      0.00000
     15      22.8376      0.00000
     16      25.1273      0.00000

 k-point     6 :       0.2857    0.1429    0.0000
  band No.  band energies     occupation 
      1      -5.3342      1.00000
      2       1.7172      1.00000
      3       3.9200      0.99923
      4       3.9770      0.99892
      5       7.5083      0.00075
      6       9.1864      0.00000
      7       9.9995      0.00000
      8      10.1128      0.00000
      9      13.3134      0.00000
     10      13.8891      0.00000
     11      15.5007      0.00000
     12      17.3249      0.00000
     13      18.7692      0.00000
     14      20.1630      0.00000
     15      21.8812      0.00000
     16      22.4668      0.00000

 k-point     7 :       0.4286    0.1429    0.0000
  band No.  band energies     occupation 
      1      -4.3631      1.00000
      2      -0.3916      1.00000
      3       3.2494      0.99999
      4       3.7906      0.99966
      5       7.5552      0.00056
      6       9.1708      0.00000
      7       9.9338      0.00000
      8      11.1490      0.00000
      9      14.7992      0.00000
     10      15.5580      0.00000
     11      16.0430      0.00000
     12      17.4685      0.00000
     13      18.1645      0.00000
     14      20.8360      0.00000
     15      22.5655      0.00000
     16      22.7597      0.00000

 k-point     8 :      -0.4286    0.1429    0.0000
  band No.  band energies     occupation 
      1      -3.8321      1.00000
      2      -1.2186      1.00000
      3       2.8517      1.00000
      4       3.9784      0.99891
      5       7.6289      0.00035
      6       9.1102      0.00000
      7       9.5577      0.00000
      8      13.4595      0.00000
      9      13.9876      0.00000
     10      14.3862      0.00000
     11      16.2299      0.00000
     12      18.3682      0.00000
     13      18.8336      0.00000
     14      19.2512      0.00000
     15      23.2391      0.00000
     16      25.0183      0.00000

 k-point     9 :      -0.2857    0.1429    0.0000
  band No.  band energies     occupation 
      1      -4.7172      1.00000
      2       0.2638      1.00000
      3       2.8662      1.00000
      4       4.4725      0.98580
      5       7.9920      0.00003
      6       9.3082      0.00000
      7       9.3223      0.00000
      8      11.9260      0.00000
      9      12.1766      0.00000
     10      15.1324      0.00000
     11      16.3465      0.00000
     12      17.4389      0.00000
     13      19.3221      0.00000
     14      21.0996      0.00000
     15      21.3606      0.00000
     16      22.5851      0.00000

 k-point    10 :      -0.1429    0.1429    0.0000
  band No.  band energies     occupation 
      1      -5.5863      1.00000
      2       2.3184      1.00000
      3       3.5493      0.99993
      4       5.0441      0.88122
      5       8.3637      0.00000
      6       8.6986      0.00000
      7       8.9316      0.00000
      8      10.8917      0.00000
      9      11.6733      0.00000
     10      13.7936      0.00000
     11      15.3359      0.00000
     12      16.6012      0.00000
     13      18.0252      0.00000
     14      20.3519      0.00000
     15      21.8701      0.00000
     16      23.6328      0.00000

 k-point    11 :       0.2857    0.2857    0.0000
  band No.  band energies     occupation 
      1      -4.9040      1.00000
      2       1.2844      1.00000
      3       3.3761      0.99998
      4       3.3761      0.99998
      5       6.4114      0.10826
      6       8.0747      0.00001
      7      11.6875      0.00000
      8      11.6875      0.00000
      9      13.8661      0.00000
     10      14.6750      0.00000
     11      17.3410      0.00000
     12      18.6238      0.00000
     13      18.6238      0.00000
     14      19.5217      0.00000
     15      21.8441      0.00000
     16      21.8442      0.00000

 k-point    12 :       0.4286    0.2857    0.0000
  band No.  band energies     occupation 
      1      -4.0324      1.00000
      2      -0.1714      1.00000
      3       2.4363      1.00000
      4       3.1233      1.00000
      5       6.6948      0.04120
      6       8.1506      0.00001
      7      11.8752      0.00000
      8      12.0995      0.00000
      9      16.1974      0.00000
     10      16.3184      0.00000
     11      16.8450      0.00000
     12      17.4514      0.00000
     13      19.3412      0.00000
     14      20.1963      0.00000
     15      21.4820      0.00000
     16      23.0112      0.00000

 k-point    13 :      -0.4286    0.2857    0.0000
  band No.  band energies     occupation 
      1      -3.1558      1.00000
      2      -1.3001      1.00000
      3       1.5188      1.00000
      4       3.2847      0.99999
      5       6.9298      0.01569
      6      10.3376      0.00000
      7      11.6030      0.00000
      8      11.6251      0.00000
      9      14.2599      0.00000
     10      14.3971      0.00000
     11      18.6325      0.00000
     12      18.9624      0.00000
     13      19.2816      0.00000
     14      22.5058      0.00000
     15      22.6700      0.00000
     16      22.9875      0.00000

 k-point    14 :      -0.2857    0.2857    0.0000
  band No.  band energies     occupation 
      1      -3.7797      1.00000
      2      -0.5759      1.00000
      3       1.4517      1.00000
      4       3.8134      0.99961
      5       7.5044      0.00077
      6      10.8006      0.00000
      7      11.1354      0.00000
      8      11.8406      0.00000
      9      12.3162      0.00000
     10      13.4098      0.00000
     11      18.5586      0.00000
     12      19.1698      0.00000
     13      19.9241      0.00000
     14      21.7068      0.00000
     15      21.8307      0.00000
     16      22.8716      0.00000

 k-point    15 :       0.4286    0.4286    0.0000
  band No.  band energies     occupation 
      1      -3.2718      1.00000
      2      -1.1433      1.00000
      3       2.7635      1.00000
      4       2.7635      1.00000
      5       6.0770      0.25956
      6       6.5951      0.05930
      7      14.2611      0.00000
      8      14.2611      0.00000
      9      16.5838      0.00000
     10      16.7764      0.00000
     11      17.2748      0.00000
     12      17.2748      0.00000
     13      18.8097      0.00000
     14      19.2269      0.00000
     15      22.3662      0.00000
     16      23.1098      0.00000

 k-point    16 :      -0.4286    0.4286    0.0000
  band No.  band energies     occupation 
      1      -2.3596      1.00000
      2      -2.0706      1.00000
      3       1.9157      1.00000
      4       2.8225      1.00000
      5       6.3766      0.12012
      6       7.5930      0.00044
      7      14.0438      0.00000
      8      14.4122      0.00000
      9      14.7095      0.00000
     10      15.0766      0.00000
     11      18.8094      0.00000
     12      18.9868      0.00000
     13      19.1071      0.00000
     14      19.8719      0.00000
     15      22.2654      0.00000
     16      22.6934      0.00000

 k-point    17 :       0.4286    0.2857    0.1429
  band No.  band energies     occupation 
      1      -4.6071      1.00000
      2       0.5828      1.00000
      3       2.4410      1.00000
      4       3.7117      0.99980
      5       8.0077      0.00002
      6       9.2175      0.00000
      7       9.5239      0.00000
      8      11.4532      0.00000
      9      13.5414      0.00000
     10      16.1853      0.00000
     11      16.5396      0.00000
     12      17.8249      0.00000
     13      18.9495      0.00000
     14      20.6704      0.00000
     15      20.7968      0.00000
     16      23.6513      0.00000

 k-point    18 :      -0.4286    0.2857    0.1429
  band No.  band energies     occupation 
      1      -3.6065      1.00000
      2      -0.8914      1.00000
      3       1.8768      1.00000
      4       3.2009      1.00000
      5       8.4838      0.00000
      6       8.8821      0.00000
      7      10.8181      0.00000
      8      11.9054      0.00000
      9      13.6100      0.00000
     10      15.2389      0.00000
     11      17.4456      0.00000
     12      18.5806      0.00000
     13      19.6870      0.00000
     14      21.1720      0.00000
     15      22.5289      0.00000
     16      23.3303      0.00000

 k-point    19 :      -0.4286    0.4286    0.1429
  band No.  band energies     occupation 
      1      -3.0781      1.00000
      2      -1.2309      1.00000
      3       1.9775      1.00000
      4       2.3770      1.00000
      5       7.6575      0.00029
      6       8.0303      0.00002
      7      11.4628      0.00000
      8      13.8873      0.00000
      9      14.4264      0.00000
     10      16.2504      0.00000
     11      17.6396      0.00000
     12      19.1851      0.00000
     13      19.6704      0.00000
     14      20.6819      0.00000
     15      21.9201      0.00000
     16      22.6128      0.00000

 k-point    20 :      -0.2857    0.4286    0.1429
  band No.  band energies     occupation 
      1      -2.6638      1.00000
      2      -1.6122      1.00000
      3       1.3702      1.00000
      4       2.4641      1.00000
      5       8.1741      0.00001
      6      10.2550      0.00000
      7      10.9456      0.00000
      8      11.1174      0.00000
      9      14.3127      0.00000
     10      15.4738      0.00000
     11      18.3299      0.00000
     12      19.6048      0.00000
     13      20.4885      0.00000
     14      21.5920      0.00000
     15      22.6500      0.00000
     16      23.4780      0.00000


--------------------------------------------------------------------------------------------------------


 soft charge-density along one line, spin component           1
         0         1         2         3         4         5         6         7         8         9
 total charge-density along one line
 
 soft charge-density along one line, spin component           2
         0         1         2         3         4         5         6         7         8         9
 total charge-density along one line
 
 pseudopotential strength for first ion, spin component:           1
 18.458  -0.001   0.000   0.000   0.000  -0.000  -0.000  -0.000
 -0.001   0.006  -0.000  -0.000  -0.000   0.000   0.000   0.000
  0.000  -0.000   4.182   0.000   0.000  -0.004  -0.000  -0.000
  0.000  -0.000   0.000   4.182   0.000  -0.000  -0.004  -0.000
  0.000  -0.000   0.000   0.000   4.182  -0.000  -0.000  -0.004
 -0.000   0.000  -0.004  -0.000  -0.000   0.005   0.000   0.000
 -0.000   0.000  -0.000  -0.004  -0.000   0.000   0.005   0.000
 -0.000   0.000  -0.000  -0.000  -0.004   0.000   0.000   0.005
 pseudopotential strength for first ion, spin component:           2
 18.460  -0.001  -0.000  -0.000  -0.000   0.000   0.000   0.000
 -0.001   0.006   0.000   0.000   0.000  -0.000  -0.000  -0.000
 -0.000   0.000   4.183  -0.000  -0.000  -0.004   0.000   0.000
 -0.000   0.000  -0.000   4.183  -0.000   0.000  -0.004   0.000
 -0.000   0.000  -0.000  -0.000   4.183   0.000   0.000  -0.004
  0.000  -0.000  -0.004   0.000   0.000   0.005  -0.000  -0.000
  0.000  -0.000   0.000  -0.004   0.000  -0.000   0.005  -0.000
  0.000  -0.000   0.000   0.000  -0.004  -0.000  -0.000   0.005
 total augmentation occupancy for first ion, spin component:           1
  1.500  -0.745  -0.000   0.000   0.000  -0.000   0.000   0.000
 -0.745   0.733   0.000   0.000  -0.000   0.000  -0.000   0.000
  0.000   0.000   1.001   0.000  -0.000  -0.533   0.000   0.000
 -0.000   0.000   0.000   1.001   0.000  -0.000  -0.533   0.000
 -0.000  -0.000  -0.000   0.000   1.001   0.000   0.000  -0.533
 -0.000  -0.000  -0.533   0.000   0.000   0.337   0.000   0.000
  0.000  -0.000   0.000  -0.533   0.000  -0.000   0.337   0.000
  0.000   0.000   0.000   0.000  -0.533  -0.000   0.000   0.337
 total augmentation occupancy for first ion, spin component:           2
 -0.000  -0.007   0.000   0.000   0.000   0.000   0.000   0.000
 -0.007   0.007   0.000   0.000   0.000   0.000   0.000   0.000
  0.000   0.000  -0.000   0.000   0.000  -0.001   0.000   0.000
  0.000   0.000   0.000  -0.000   0.000   0.000  -0.001   0.000
  0.000   0.000   0.000   0.000  -0.000   0.000   0.000  -0.001
  0.000   0.000  -0.001   0.000   0.000   0.002   0.000   0.000
  0.000   0.000   0.000  -0.001   0.000   0.000   0.002   0.000
  0.000   0.000   0.000   0.000  -0.001   0.000   0.000   0.002


------------------------ aborting loop because EDIFF is reached ----------------------------------------





 total charge

# of ion       s       p       d       tot
------------------------------------------
    1        0.752   0.913   0.000   1.666
    2        0.752   0.913   0.000   1.666
--------------------------------------------------
tot          1.505   1.827   0.000   3.331



 magnetization (x)

# of ion       s       p       d       tot
------------------------------------------
    1        0.000   0.000   0.000   0.001
    2        0.000   0.000   0.000   0.001
--------------------------------------------------
tot          0.001   0.001   0.000   0.001
 
    CHARGE:  cpu time      0.0123: real time      0.0244
    FORLOC:  cpu time      0.0002: real time      0.0010
    FORNL :  cpu time      0.0322: real time      0.0635
    STRESS:  cpu time      0.0972: real time      0.1925
    FORCOR:  cpu time      0.0085: real time      0.0185
    FORHAR:  cpu time      0.0012: real time      0.0022
    MIXING:  cpu time      0.0005: real time      0.0009
    OFIELD:  cpu time      0.0002: real time      0.0002

  FORCE on cell =-STRESS in cart. coord.  units (eV):
  Direction    XX          YY          ZZ          XY          YZ          ZX
  --------------------------------------------------------------------------------------
  Alpha Z     3.23732     3.23732     3.23732
  Ewald     -75.21821   -75.21821   -75.21821    -0.00000     0.00000    -0.00000
  Hartree     5.09586     5.09586     5.09586     0.00000     0.00000     0.00000
  E(xc)     -25.12842   -25.12842   -25.12842     0.00000     0.00000     0.00000
  Local     -29.69319   -29.69319   -29.69319     0.00000     0.00000     0.00000
  n-local    78.26859    79.26236    73.84520     2.09091    -1.10438     0.59453
  augment   -11.65412   -11.65412   -11.65412    -0.00000    -0.00000    -0.00000
  Kinetic    57.84674    55.82402    53.83130     3.52175    -0.82277     0.93628
  Fock        0.00000     0.00000     0.00000     0.00000     0.00000     0.00000
  -------------------------------------------------------------------------------------
  Total      -0.40136    -0.40136    -0.40136     0.00000    -0.00000    -0.00000
  in kB     -15.46030   -15.46030   -15.46030     0.00000    -0.00000    -0.00000
  external pressure =      -15.46 kB  Pullay stress =        0.00 kB


 VOLUME and BASIS-vectors are now :
 -----------------------------------------------------------------------------
  energy-cutoff  :      520.00
  volume of cell :       41.59
      direct lattice vectors                 reciprocal lattice vectors
     0.000000000  2.750000000  2.750000000    -0.181818182  0.181818182  0.181818182
     2.750000000  0.000000000  2.750000000     0.181818182 -0.181818182  0.181818182
     2.750000000  2.750000000  0.000000000     0.181818182  0.181818182 -0.181818182

  length of vectors
     3.889087297  3.889087297  3.889087297     0.314918329  0.314918329  0.314918329


 FORCES acting on ions
    electron-ion (+dipol)            ewald-force                    non-local-force                 convergence-correction
 -----------------------------------------------------------------------------------------------
   0.216E-07 0.216E-07 0.240E-07   0.862E-15 -.929E-15 -.546E-16   0.694E-17 0.590E-16 0.173E-16   -.373E-12 -.373E-12 -.372E-12
   -.216E-07 -.216E-07 -.240E-07   -.102E-14 0.256E-15 -.355E-15   -.208E-16 -.104E-16 0.243E-16   0.374E-12 0.372E-12 0.372E-12
 -----------------------------------------------------------------------------------------------
   -.138E-12 0.860E-13 0.103E-12   -.158E-15 -.674E-15 -.410E-15   -.139E-16 0.486E-16 0.416E-16   0.276E-15 -.913E-15 0.132E-15
 
 
 POSITION                                       TOTAL-FORCE (eV/Angst)
 -----------------------------------------------------------------------------------
      0.68750      0.68750      0.68750         0.000000      0.000000      0.000000
      4.81250      4.81250      4.81250        -0.000000     -0.000000     -0.000000
 -----------------------------------------------------------------------------------
    total drift:                               -0.000000      0.000000      0.000000


--------------------------------------------------------------------------------------------------------



  FREE ENERGIE OF THE ION-ELECTRON SYSTEM (eV)
  ---------------------------------------------------
  free  energy   TOTEN  =       -10.85642317 eV

  energy  without entropy=      -10.79143153  energy(sigma->0) =      -10.82392735
 


--------------------------------------------------------------------------------------------------------


    POTLOK:  cpu time      0.1874: real time      0.3784


--------------------------------------------------------------------------------------------------------




--------------------------------------------------------------------------------------------------------


    WAVPRE:  cpu time      0.0028: real time      0.0070
    FEWALD:  cpu time      0.0002: real time      0.0007
    GENKIN:  cpu time      0.0031: real time      0.0060

 real space projection operators:
  total allocation   :        598.00 KBytes
  max/ min on nodes  :         88.00         40.62

    ORTHCH:  cpu time      0.0189: real time      0.0384
     LOOP+:  cpu time      3.5335: real time      7.2076


--------------------------------------- Ionic step        2  -------------------------------------------




--------------------------------------- Iteration      2(   1)  ---------------------------------------


    POTLOK:  cpu time      0.0085: real time      0.0173
    SETDIJ:  cpu time      0.1773: real time      0.3567
     EDDAV:  cpu time      0.2410: real time      0.4757
       DOS:  cpu time      0.0014: real time      0.0030
    CHARGE:  cpu time      0.0116: real time      0.0231
    MIXING:  cpu time      0.0003: real time      0.0007
    --------------------------------------------
      LOOP:  cpu time      0.4402: real time      0.8765

 eigenvalue-minimisations  :  1656
 total energy-change (2. order) :-0.7135827E-02  (-0.1454149E-01)
 number of electron       8.0000000 magnetization      -0.0002833
 augmentation part       -0.4567200 magnetization      -0.0001868

 Broyden mixing:
  rms(total) = 0.27343E-01    rms(broyden)= 0.27342E-01
  rms(prec ) = 0.10042E+00
  weight for this iteration     100.00

 Free energy of the ion-electron system (eV)
  ---------------------------------------------------
  alpha Z        PSCENC =         3.33319627
  Ewald energy   TEWEN  =      -227.86053527
  -Hartree energ DENC   =       -15.42429899
  -exchange      EXHF   =         0.00000000
  -V(xc)+E(xc)   XCENC  =       -18.00752172
  PAW double counting   =        73.00199806      -38.00291032
  entropy T*S    EENTRO =        -0.06910769
  eigenvalues    EBANDS =         6.03297318
  atomic energy  EATOM  =       206.13270273
  Solvation  Ediel_sol  =         0.00000000
  ---------------------------------------------------
  free energy    TOTEN  =       -10.86350375 eV

  energy without entropy =      -10.79439606  energy(sigma->0) =      -10.82894991


--------------------------------------------------------------------------------------------------------




[...]
     15      23.0228      0.00000
     16      25.3326      0.00000

 k-point     5 :       0.1429    0.1429    0.0000
  band No.  band energies     occupation 
      1      -5.8542      1.00000
      2       3.9719      0.99964
      3       4.6693      0.98412
      4       4.6693      0.98412
      5       7.5116      0.00201
      6       9.5598      0.00000
      7       9.5598      0.00000
      8       9.9215      0.00000
      9      12.0407      0.00000
     10      13.7254      0.00000
     11      14.8621      0.00000
     12      17.4223      0.00000
     13      17.4223      0.00000
     14      17.9451      0.00000
     15      23.1773      0.00000
     16      25.5266      0.00000

 k-point     6 :       0.2857    0.1429    0.0000
  band No.  band energies     occupation 
      1      -5.2574      1.00000
      2       1.8857      1.00000
      3       4.0874      0.99925
      4       4.1358      0.99900
      5       7.6991      0.00067
      6       9.4562      0.00000
      7      10.1851      0.00000
      8      10.3385      0.00000
      9      13.6443      0.00000
     10      14.1018      0.00000
     11      15.7699      0.00000
     12      17.6161      0.00000
     13      19.0553      0.00000
     14      20.4689      0.00000
     15      22.2184      0.00000
     16      22.8422      0.00000

 k-point     7 :       0.4286    0.1429    0.0000
  band No.  band energies     occupation 
      1      -4.2676      1.00000
      2      -0.2611      1.00000
      3       3.4083      0.99999
      4       3.9483      0.99969
      5       7.7564      0.00047
      6       9.4042      0.00000
      7      10.1397      0.00000
      8      11.3729      0.00000
      9      15.0418      0.00000
     10      15.8029      0.00000
     11      16.4001      0.00000
     12      17.7611      0.00000
     13      18.5178      0.00000
     14      21.1777      0.00000
     15      22.9620      0.00000
     16      23.0888      0.00000

 k-point     8 :      -0.4286    0.1429    0.0000
  band No.  band energies     occupation 
      1      -3.7227      1.00000
      2      -1.1069      1.00000
      3       3.0025      1.00000
      4       4.1410      0.99897
      5       7.8441      0.00027
      6       9.3265      0.00000
      7       9.7536      0.00000
      8      13.7245      0.00000
      9      14.2471      0.00000
     10      14.6216      0.00000
     11      16.5157      0.00000
     12      18.6672      0.00000
     13      19.1763      0.00000
     14      19.6645      0.00000
     15      23.6065      0.00000
     16      25.4057      0.00000

 k-point     9 :      -0.2857    0.1429    0.0000
  band No.  band energies     occupation 
      1      -4.6288      1.00000
      2       0.4068      1.00000
      3       3.0116      1.00000
      4       4.6447      0.98577
      5       8.2286      0.00002
      6       9.5112      0.00000
      7       9.5321      0.00000
      8      12.1977      0.00000
      9      12.3699      0.00000
     10      15.3984      0.00000
     11      16.6736      0.00000
     12      17.7398      0.00000
     13      19.6406      0.00000
     14      21.4323      0.00000
     15      21.6964      0.00000
     16      22.9827      0.00000

 k-point    10 :      -0.1429    0.1429    0.0000
  band No.  band energies     occupation 
      1      -5.5138      1.00000
      2       2.4960      1.00000
      3       3.6973      0.99994
      4       5.2264      0.87750
      5       8.6195      0.00000
      6       8.9039      0.00000
      7       9.1478      0.00000
      8      11.1697      0.00000
      9      11.8477      0.00000
     10      14.0637      0.00000
     11      15.6252      0.00000
     12      16.8535      0.00000
     13      18.3013      0.00000
     14      20.6591      0.00000
     15      22.2224      0.00000
     16      24.0030      0.00000

 k-point    11 :       0.2857    0.2857    0.0000
  band No.  band energies     occupation 
      1      -4.8204      1.00000
      2       1.4674      1.00000
      3       3.5246      0.99998
      4       3.5246      0.99998
      5       6.5788      0.10969
      6       8.2514      0.00001
      7      11.9441      0.00000
      8      11.9441      0.00000
      9      14.2420      0.00000
     10      14.8922      0.00000
     11      17.6651      0.00000
     12      18.9077      0.00000
     13      18.9077      0.00000
     14      19.8030      0.00000
     15      22.1989      0.00000
     16      22.1989      0.00000

 k-point    12 :       0.4286    0.2857    0.0000
  band No.  band energies     occupation 
      1      -3.9334      1.00000
      2      -0.0122      1.00000
      3       2.5659      1.00000
      4       3.2685      1.00000
      5       6.8618      0.04194
      6       8.3328      0.00001
      7      12.1533      0.00000
      8      12.3457      0.00000
      9      16.4484      0.00000
     10      16.7050      0.00000
     11      17.1600      0.00000
     12      17.7404      0.00000
     13      19.6471      0.00000
     14      20.5347      0.00000
     15      21.7945      0.00000
     16      23.3604      0.00000

 k-point    13 :      -0.4286    0.2857    0.0000
  band No.  band energies     occupation 
      1      -3.0361      1.00000
      2      -1.1662      1.00000
      3       1.6307      1.00000
      4       3.4335      0.99999
      5       7.0995      0.01583
      6      10.5462      0.00000
      7      11.8581      0.00000
      8      11.8878      0.00000
      9      14.5668      0.00000
     10      14.6326      0.00000
     11      18.9199      0.00000
     12      19.2634      0.00000
     13      19.6942      0.00000
     14      22.8578      0.00000
     15      23.0184      0.00000
     16      23.3803      0.00000

 k-point    14 :      -0.2857    0.2857    0.0000
  band No.  band energies     occupation 
      1      -3.6733      1.00000
      2      -0.4285      1.00000
      3       1.5600      1.00000
      4       3.9722      0.99964
      5       7.6914      0.00070
      6      11.0363      0.00000
      7      11.3670      0.00000
      8      12.1383      0.00000
      9      12.5040      0.00000
     10      13.6881      0.00000
     11      18.8519      0.00000
     12      19.4698      0.00000
     13      20.3104      0.00000
     14      22.0298      0.00000
     15      22.2294      0.00000
     16      23.2578      0.00000

 k-point    15 :       0.4286    0.4286    0.0000
  band No.  band energies     occupation 
      1      -3.1609      1.00000
      2      -0.9969      1.00000
      3       2.9029      1.00000
      4       2.9029      1.00000
      5       6.2328      0.26875
      6       6.7501      0.06288
      7      14.5598      0.00000
      8      14.5598      0.00000
      9      16.8260      0.00000
     10      17.1897      0.00000
     11      17.5661      0.00000
     12      17.5661      0.00000
     13      19.2063      0.00000
     14      19.5041      0.00000
     15      22.6798      0.00000
     16      23.4524      0.00000

 k-point    16 :      -0.4286    0.4286    0.0000
  band No.  band energies     occupation 
      1      -2.2296      1.00000
      2      -1.9404      1.00000
      3       2.0322      1.00000
      4       2.9632      1.00000
      5       6.5335      0.12545
      6       7.7715      0.00042
      7      14.3415      0.00000
      8      14.7520      0.00000
      9      14.9854      0.00000
     10      15.3042      0.00000
     11      19.2260      0.00000
     12      19.2639      0.00000
     13      19.4178      0.00000
     14      20.2633      0.00000
     15      22.5945      0.00000
     16      23.0260      0.00000

 k-point    17 :       0.4286    0.2857    0.1429
  band No.  band energies     occupation 
      1      -4.5176      1.00000
      2       0.7483      1.00000
      3       2.5698      1.00000
      4       3.8672      0.99982
      5       8.2020      0.00002
      6       9.4407      0.00000
      7       9.7328      0.00000
      8      11.7035      0.00000
      9      13.8031      0.00000
     10      16.4887      0.00000
     11      16.8795      0.00000
     12      18.0883      0.00000
     13      19.2550      0.00000
     14      20.9918      0.00000
     15      21.1396      0.00000
     16      24.0115      0.00000

 k-point    18 :      -0.4286    0.2857    0.1429
  band No.  band energies     occupation 
      1      -3.4962      1.00000
      2      -0.7551      1.00000
      3       2.0017      1.00000
      4       3.3436      1.00000
      5       8.6840      0.00000
      6       9.0888      0.00000
      7      11.0516      0.00000
      8      12.1554      0.00000
      9      13.8789      0.00000
     10      15.5196      0.00000
     11      17.7279      0.00000
     12      18.9176      0.00000
     13      20.0529      0.00000
     14      21.5029      0.00000
     15      22.9213      0.00000
     16      23.7029      0.00000

 k-point    19 :      -0.4286    0.4286    0.1429
  band No.  band energies     occupation 
      1      -2.9615      1.00000
      2      -1.0837      1.00000
      3       2.0965      1.00000
      4       2.5016      1.00000
      5       7.8410      0.00027
      6       8.2115      0.00002
      7      11.7149      0.00000
      8      14.1902      0.00000
      9      14.6847      0.00000
     10      16.5609      0.00000
     11      17.9585      0.00000
     12      19.5257      0.00000
     13      20.0393      0.00000
     14      20.9809      0.00000
     15      22.2628      0.00000
     16      22.9864      0.00000

 k-point    20 :      -0.2857    0.4286    0.1429
  band No.  band energies     occupation 
      1      -2.5358      1.00000
      2      -1.4730      1.00000
      3       1.4731      1.00000
      4       2.5911      1.00000
      5       8.3627      0.00001
      6      10.4523      0.00000
      7      11.2053      0.00000
      8      11.3599      0.00000
      9      14.5993      0.00000
     10      15.7647      0.00000
     11      18.6705      0.00000
     12      19.9540      0.00000
     13      20.7972      0.00000
     14      21.9190      0.00000
     15      23.0492      0.00000
     16      23.8673      0.00000


--------------------------------------------------------------------------------------------------------


 soft charge-density along one line, spin component           1
         0         1         2         3         4         5         6         7         8         9
 total charge-density along one line
 
 soft charge-density along one line, spin component           2
         0         1         2         3         4         5         6         7         8         9
 total charge-density along one line
 
 pseudopotential strength for first ion, spin component:           1
 18.437  -0.001   0.000   0.000   0.000  -0.000  -0.000  -0.000
 -0.001   0.006  -0.000  -0.000  -0.000   0.000   0.000   0.000
  0.000  -0.000   4.180  -0.000  -0.000  -0.004   0.000   0.000
  0.000  -0.000  -0.000   4.180  -0.000   0.000  -0.004   0.000
  0.000  -0.000  -0.000  -0.000   4.180   0.000   0.000  -0.004
 -0.000   0.000  -0.004   0.000   0.000   0.005  -0.000  -0.000
 -0.000   0.000   0.000  -0.004   0.000  -0.000   0.005  -0.000
 -0.000   0.000   0.000   0.000  -0.004  -0.000  -0.000   0.005
 pseudopotential strength for first ion, spin component:           2
 18.439  -0.001  -0.000  -0.000  -0.000   0.000   0.000   0.000
 -0.001   0.006   0.000   0.000   0.000  -0.000  -0.000  -0.000
 -0.000   0.000   4.181  -0.000  -0.000  -0.004   0.000   0.000
 -0.000   0.000  -0.000   4.181  -0.000   0.000  -0.004   0.000
 -0.000   0.000  -0.000  -0.000   4.181   0.000   0.000  -0.004
  0.000  -0.000  -0.004   0.000   0.000   0.005  -0.000  -0.000
  0.000  -0.000   0.000  -0.004   0.000  -0.000   0.005  -0.000
  0.000  -0.000   0.000   0.000  -0.004  -0.000  -0.000   0.005
 total augmentation occupancy for first ion, spin component:           1
  1.498  -0.751  -0.000   0.000   0.000   0.000   0.000   0.000
 -0.751   0.747   0.000  -0.000  -0.000   0.000   0.000   0.000
  0.000   0.000   1.014   0.000  -0.000  -0.545   0.000  -0.000
  0.000  -0.000   0.000   1.014   0.000  -0.000  -0.545   0.000
  0.000  -0.000  -0.000   0.000   1.014  -0.000  -0.000  -0.545
  0.000  -0.000  -0.545   0.000   0.000   0.347  -0.000  -0.000
 -0.000   0.000   0.000  -0.545  -0.000  -0.000   0.347  -0.000
 -0.000   0.000  -0.000  -0.000  -0.545  -0.000   0.000   0.347
 total augmentation occupancy for first ion, spin component:           2
 -0.000  -0.000   0.000   0.000   0.000   0.000   0.000   0.000
 -0.000   0.000   0.000  -0.000   0.000   0.000   0.000   0.000
  0.000   0.000  -0.000   0.000   0.000  -0.000   0.000   0.000
  0.000  -0.000   0.000  -0.000   0.000   0.000  -0.000   0.000
  0.000   0.000   0.000   0.000  -0.000   0.000   0.000  -0.000
  0.000   0.000  -0.000   0.000   0.000   0.000  -0.000   0.000
  0.000   0.000   0.000  -0.000   0.000  -0.000   0.000   0.000
  0.000   0.000   0.000   0.000  -0.000   0.000   0.000   0.000


------------------------ aborting loop because EDIFF is reached ----------------------------------------





 total charge

# of ion       s       p       d       tot
------------------------------------------
    1        0.752   0.926   0.000   1.677
    2        0.752   0.926   0.000   1.677
--------------------------------------------------
tot          1.504   1.851   0.000   3.355



 magnetization (x)

# of ion       s       p       d       tot
------------------------------------------
    1        0.000   0.000   0.000   0.000
    2        0.000   0.000   0.000   0.000
--------------------------------------------------
tot          0.000   0.000   0.000   0.000
 
    CHARGE:  cpu time      0.0112: real time      0.0225
    FORLOC:  cpu time      0.0002: real time      0.0008
    FORNL :  cpu time      0.0322: real time      0.0641
    STRESS:  cpu time      0.1007: real time      0.1998
    FORCOR:  cpu time      0.0082: real time      0.0182
    FORHAR:  cpu time      0.0009: real time      0.0018
    MIXING:  cpu time      0.0005: real time      0.0008
    OFIELD:  cpu time      0.0000: real time      0.0000

  FORCE on cell =-STRESS in cart. coord.  units (eV):
  Direction    XX          YY          ZZ          XY          YZ          ZX
  --------------------------------------------------------------------------------------
  Alpha Z     3.29848     3.29848     3.29848
  Ewald     -75.68893   -75.68893   -75.68893    -0.00000    -0.00000    -0.00000
  Hartree     5.01772     5.01772     5.01772     0.00000     0.00000     0.00000
  E(xc)     -25.23675   -25.23675   -25.23675     0.00000     0.00000     0.00000
  Local     -29.41582   -29.41582   -29.41582     0.00000     0.00000     0.00000
  n-local    78.58671    79.58294    74.15240     2.12624    -1.12988     0.61156
  augment   -11.65752   -11.65752   -11.65752    -0.00000    -0.00000    -0.00000
  Kinetic    58.24918    56.11200    54.37662     3.52356    -0.79521     0.93060
  Fock        0.00000     0.00000     0.00000     0.00000     0.00000     0.00000
  -------------------------------------------------------------------------------------
  Total       0.00380     0.00380     0.00380     0.00000     0.00000    -0.00000
  in kB       0.14922     0.14922     0.14922     0.00000     0.00000    -0.00000
  external pressure =        0.15 kB  Pullay stress =        0.00 kB


 VOLUME and BASIS-vectors are now :
 -----------------------------------------------------------------------------
  energy-cutoff  :      520.00
  volume of cell :       40.82
      direct lattice vectors                 reciprocal lattice vectors
     0.000000000  2.732897336  2.732897336    -0.182956013  0.182956013  0.182956013
     2.732897336 -0.000000000  2.732897336     0.182956013 -0.182956013  0.182956013
     2.732897336  2.732897336 -0.000000000     0.182956013  0.182956013 -0.182956013

  length of vectors
     3.864900477  3.864900477  3.864900477     0.316889110  0.316889110  0.316889110


 FORCES acting on ions
    electron-ion (+dipol)            ewald-force                    non-local-force                 convergence-correction
 -----------------------------------------------------------------------------------------------
   0.209E-07 0.209E-07 0.247E-07   -.570E-14 -.162E-14 -.329E-14   -.833E-16 0.451E-16 0.312E-16   0.587E-09 0.587E-09 0.587E-09
   -.209E-07 -.209E-07 -.247E-07   0.563E-14 0.153E-14 0.266E-14   0.125E-15 0.278E-16 -.971E-16   -.587E-09 -.587E-09 -.587E-09
 -----------------------------------------------------------------------------------------------
   -.132E-12 0.829E-13 0.938E-13   -.735E-16 -.900E-16 -.628E-15   0.416E-16 0.729E-16 -.659E-16   -.963E-16 -.105E-14 0.816E-16
 
 
 POSITION                                       TOTAL-FORCE (eV/Angst)
 -----------------------------------------------------------------------------------
      0.68322      0.68322      0.68322        -0.000000     -0.000000     -0.000000
      4.78257      4.78257      4.78257         0.000000      0.000000      0.000000
 -----------------------------------------------------------------------------------
    total drift:                               -0.000000      0.000000      0.000000


--------------------------------------------------------------------------------------------------------



  FREE ENERGIE OF THE ION-ELECTRON SYSTEM (eV)
  ---------------------------------------------------
  free  energy   TOTEN  =       -10.86028327 eV

  energy  without entropy=      -10.79472212  energy(sigma->0) =      -10.82750270
 
 d Force = 0.0000000E+00[ 0.000E+00, 0.000E+00]  d Energy = 0.1306234E-02-0.131E-02
 d Force = 0.0000000E+00[ 0.000E+00, 0.000E+00]  d Ewald  =-0.7938387E+00 0.794E+00


--------------------------------------------------------------------------------------------------------


    POTLOK:  cpu time      0.1867: real time      0.3783


--------------------------------------------------------------------------------------------------------




--------------------------------------------------------------------------------------------------------


  
 reached required accuracy - stopping structural energy minimisation
     LOOP+:  cpu time      1.8737: real time      3.7868
    4ORBIT:  cpu time      0.0000: real time      0.0000



 total charge

# of ion       s       p       d       tot
------------------------------------------
    1        0.752   0.926   0.000   1.677
    2        0.752   0.926   0.000   1.677
--------------------------------------------------
tot          1.504   1.851   0.000   3.355



 magnetization (x)

# of ion       s       p       d       tot
------------------------------------------
    1        0.000   0.000   0.000   0.000
    2        0.000   0.000   0.000   0.000
--------------------------------------------------
tot          0.000   0.000   0.000   0.000
 

 total amount of memory used by VASP MPI-rank0    31266. kBytes
=======================================================================

   base      :      30000. kBytes
   nonlr-proj:        263. kBytes
   fftplans  :        246. kBytes
   grid      :        557. kBytes
   one-center:          6. kBytes
   wavefun   :        194. kBytes
 
  
  
 General timing and accounting informations for this job:
 ========================================================
  
                  Total CPU time used (sec):        9.172
                            User time (sec):        5.779
                          System time (sec):        3.393
                         Elapsed time (sec):       19.561
  
                   Maximum memory used (kb):      177620.
                   Average memory used (kb):          N/A
  
                          Minor page faults:        42318
                          Major page faults:           59
                 Voluntary context switches:         3451
