 vasp.6.4.2 20Jul23 (build Oct 18 2023 14:14:43) complex                        
  
 executed on             LinuxIFC date 2024.05.09  11:39:43
 running   64 mpi-ranks, on    1 nodes
 distrk:  each k-point on   64 cores,    1 groups
 distr:  one band on NCORE=   8 cores,    8 groups


--------------------------------------------------------------------------------------------------------


 INCAR:
   ALGO = Fast
   EDIFF = 0.0001
   ENCUT = 520
   IBRION = 2
   ISIF = 3
   ISMEAR = 0
   ISPIN = 2
   KPAR = 1
   LASPH = True
   LCHARG = False
   LORBIT = 11
   LREAL = Auto
   LWAVE = False
   MAGMOM = 2*0.6
   NCORE = 8
   NELM = 100
   NSW = 99
   PREC = Accurate
   SIGMA = 0.11151018873740826

 POTCAR:   PAW_PBE Si 05Jan2001                   
 POTCAR:   PAW_PBE Si 05Jan2001                   
   VRHFIN =Si: s2p2                                                                                 
   LEXCH  = PE                                                                                      
   EATOM  =   103.0669 eV,    7.5752 Ry                                                             
                                                                                                    
   TITEL  = PAW_PBE Si 05Jan2001                                                                    
   LULTRA =        F    use ultrasoft PP ?                                                          
   IUNSCR =        1    unscreen: 0-lin 1-nonlin 2-no                                               
   RPACOR =    1.500    partial core radius                                                         
   POMASS =   28.085; ZVAL   =    4.000    mass and valenz                                          
   RCORE  =    1.900    outmost cutoff radius                                                       
   RWIGS  =    2.480; RWIGS  =    1.312    wigner-seitz radius (au A)                               
   ENMAX  =  245.345; ENMIN  =  184.009 eV                                                          
   ICORE  =        2    local potential                                                             
   LCOR   =        T    correct aug charges                                                         
   LPAW   =        T    paw PP                                                                      
   EAUG   =  322.069                                                                                
   DEXC   =    -.007                                                                                
   RMAX   =    2.944    core radius for proj-oper                                                   
   RAUG   =    1.300    factor for augmentation sphere                                              
   RDEP   =    1.993    radius for radial grids                                                     
   QCUT   =   -4.246; QGAM   =    8.493    optimization parameters                                  
                                                                                                    
   Description                                                                                      
     l     E      TYP  RCUT    TYP  RCUT                                                            
     0   .000     23  1.900                                                                         
     0   .000     23  1.900                                                                         
     1   .000     23  1.900                                                                         
     1   .000     23  1.900                                                                         
     2   .000      7  1.900                                                                         
  local pseudopotential read in
  partial core-charges read in
  atomic valenz-charges read in
  non local Contribution for L=           0  read in
    real space projection operators read in
  non local Contribution for L=           0  read in
    real space projection operators read in
  non local Contribution for L=           1  read in
    real space projection operators read in
  non local Contribution for L=           1  read in
    real space projection operators read in
    PAW grid and wavefunctions read in
 
   number of l-projection  operators is LMAX  =           4
   number of lm-projection operators is LMMAX =           8
 
 -----------------------------------------------------------------------------
|                                                                             |
|               ----> ADVICE to this user running VASP <----                  |
|                                                                             |
|     You have a (more or less) 'small supercell' and for smaller cells       |
|     it is recommended to use the reciprocal-space projection scheme!        |
|     The real-space optimization is not efficient for small cells and it     |
|     is also less accurate ...                                               |
|     Therefore, set LREAL=.FALSE. in the INCAR file.                         |
|                                                                             |
 -----------------------------------------------------------------------------

 Optimization of the real space projectors (new method)

 maximal supplied QI-value         = 19.84
 optimisation between [QCUT,QGAM] = [ 11.51, 23.22] = [ 37.09,150.92] Ry 
 Optimized for a Real-space Cutoff    1.21 Angstroem

   l    n(q)    QCUT    max X(q) W(low)/X(q) W(high)/X(q)  e(spline) 
   0      8    11.508     8.708    0.18E-04    0.44E-05    0.47E-08
   0      8    11.508   106.241    0.70E-04    0.15E-03    0.51E-07
   1      8    11.508     5.901    0.63E-05    0.23E-04    0.21E-07
   1      8    11.508    73.241    0.15E-03    0.36E-04    0.79E-07
 PAW_PBE Si 05Jan2001                   :
 energy of atom  1       EATOM= -103.0669
 kinetic energy error for atom=    0.0005 (will be added to EATOM!!)
 
 
 POSCAR: Si2
  positions in direct lattice
  No initial velocities read in
 exchange correlation table for  LEXCH =        8
   RHO(1)=    0.500       N(1)  =     2000
   RHO(2)=  100.500       N(2)  =     4000
 


--------------------------------------------------------------------------------------------------------


 ion  position               nearest neighbor table
   1  0.125  0.125  0.125-   2 2.38   2 2.38   2 2.38   2 2.38
   2  0.875  0.875  0.875-   1 2.38   1 2.38   1 2.38   1 2.38
 
  LATTYP: Found a face centered cubic cell.
 ALAT       =     5.5000000000
  
  Lattice vectors:
  
 A1 = (   0.0000000000,   2.7500000000,   2.7500000000)
 A2 = (   2.7500000000,   0.0000000000,   2.7500000000)
 A3 = (   2.7500000000,   2.7500000000,   0.0000000000)


Analysis of symmetry for initial positions (statically):
=====================================================================
 Subroutine PRICEL returns:
 Original cell was already a primitive cell.
 

 Routine SETGRP: Setting up the symmetry group for a 
 face centered cubic supercell.


 Subroutine GETGRP returns: Found 48 space group operations
 (whereof 12 operations were pure point group operations)
 out of a pool of 48 trial point group operations.


The static configuration has the point symmetry D_3d.
 The point group associated with its full space group is O_h .


Analysis of symmetry for dynamics (positions and initial velocities):
=====================================================================
 Subroutine PRICEL returns:
 Original cell was already a primitive cell.
 

 Routine SETGRP: Setting up the symmetry group for a 
 face centered cubic supercell.


 Subroutine GETGRP returns: Found 48 space group operations
 (whereof 12 operations were pure point group operations)
 out of a pool of 48 trial point group operations.


The dynamic configuration has the point symmetry D_3d.
 The point group associated with its full space group is O_h .


Analysis of structural, dynamic, and magnetic symmetry:
=====================================================================
 Subroutine PRICEL returns:
 Original cell was already a primitive cell.
 

 Routine SETGRP: Setting up the symmetry group for a 
 face centered cubic supercell.


 Subroutine GETGRP returns: Found 48 space group operations
 (whereof 12 operations were pure point group operations)
 out of a pool of 48 trial point group operations.


The overall configuration has the point symmetry D_3d.
 The point group associated with its full space group is O_h .


 Subroutine INISYM returns: Found 48 space group operations
 (whereof 12 operations are pure point group operations),
 and found     1 'primitive' translations


----------------------------------------------------------------------------------------

                                     Primitive cell                                     

  volume of cell :      41.5938

  direct lattice vectors                    reciprocal lattice vectors
     0.000000000  2.750000000  2.750000000    -0.181818182  0.181818182  0.181818182
     2.750000000  0.000000000  2.750000000     0.181818182 -0.181818182  0.181818182
     2.750000000  2.750000000  0.000000000     0.181818182  0.181818182 -0.181818182

  length of vectors
     3.889087297  3.889087297  3.889087297     0.314918329  0.314918329  0.314918329

  position of ions in fractional coordinates (direct lattice)
     0.125000000  0.125000000  0.125000000
     0.875000000  0.875000000  0.875000000

  ion indices of the primitive-cell ions
   primitive index   ion index
                 1           1
                 2           2

----------------------------------------------------------------------------------------

 
 
 KPOINTS: pymatgen with grid density = 763 / numbe

Automatic generation of k-mesh.
 Grid dimensions read from file:
 generate k-points for:    7    7    7

 Generating k-lattice:

  Cartesian coordinates                     Fractional coordinates (reciprocal lattice)
    -0.025974026  0.025974026  0.025974026     0.142857143  0.000000000  0.000000000
     0.025974026 -0.025974026  0.025974026     0.000000000  0.142857143  0.000000000
     0.025974026  0.025974026 -0.025974026     0.000000000  0.000000000  0.142857143

  Length of vectors
     0.044988333  0.044988333  0.044988333

  Shift w.r.t. Gamma in fractional coordinates (k-lattice)
     0.000000000  0.000000000  0.000000000

 
 Subroutine IBZKPT returns following result:
 ===========================================
 
 Found     20 irreducible k-points:
 
 Following reciprocal coordinates:
            Coordinates               Weight
  0.000000  0.000000  0.000000      1.000000
  0.142857  0.000000  0.000000      8.000000
  0.285714  0.000000  0.000000      8.000000
  0.428571  0.000000  0.000000      8.000000
  0.142857  0.142857  0.000000      6.000000
  0.285714  0.142857  0.000000     24.000000
  0.428571  0.142857  0.000000     24.000000
 -0.428571  0.142857  0.000000     24.000000
 -0.285714  0.142857  0.000000     24.000000
 -0.142857  0.142857  0.000000     12.000000
  0.285714  0.285714  0.000000      6.000000
  0.428571  0.285714  0.000000     24.000000
 -0.428571  0.285714  0.000000     24.000000
 -0.285714  0.285714  0.000000     12.000000
  0.428571  0.428571  0.000000      6.000000
 -0.428571  0.428571  0.000000     12.000000
  0.428571  0.285714  0.142857     24.000000
 -0.428571  0.285714  0.142857     48.000000
 -0.428571  0.428571  0.142857     24.000000
 -0.285714  0.428571  0.142857     24.000000
 
 Following cartesian coordinates:
            Coordinates               Weight
  0.000000  0.000000  0.000000      1.000000
 -0.025974  0.025974  0.025974      8.000000
 -0.051948  0.051948  0.051948      8.000000
 -0.077922  0.077922  0.077922      8.000000
  0.000000  0.000000  0.051948      6.000000
 -0.025974  0.025974  0.077922     24.000000
 -0.051948  0.051948  0.103896     24.000000
  0.103896 -0.103896 -0.051948     24.000000
  0.077922 -0.077922 -0.025974     24.000000
  0.051948 -0.051948  0.000000     12.000000
  0.000000  0.000000  0.103896      6.000000
 -0.025974  0.025974  0.129870     24.000000
  0.129870 -0.129870 -0.025974     24.000000
  0.103896 -0.103896  0.000000     12.000000
  0.000000  0.000000  0.155844      6.000000
  0.155844 -0.155844  0.000000     12.000000
 -0.000000  0.051948  0.103896     24.000000
  0.155844 -0.103896 -0.051948     48.000000
  0.181818 -0.129870 -0.025974     24.000000
  0.155844 -0.103896  0.000000     24.000000
 


--------------------------------------------------------------------------------------------------------




 Dimension of arrays:
   k-points           NKPTS =     20   k-points in BZ     NKDIM =     20   number of bands    NBANDS=     16
   number of dos      NEDOS =    301   number of ions     NIONS =      2
   non local maximal  LDIM  =      4   non local SUM 2l+1 LMDIM =      8
   total plane-waves  NPLWV =  27000
   max r-space proj   IRMAX =   4876   max aug-charges    IRDMAX=  21901
   dimension x,y,z NGX =    30 NGY =   30 NGZ =   30
   dimension x,y,z NGXF=    60 NGYF=   60 NGZF=   60
   support grid    NGXF=    60 NGYF=   60 NGZF=   60
   ions per type =               2
   NGX,Y,Z   is equivalent  to a cutoff of  12.82, 12.82, 12.82 a.u.
   NGXF,Y,Z  is equivalent  to a cutoff of  25.65, 25.65, 25.65 a.u.

 SYSTEM =  unknown system                          
 POSCAR =  Si2                                     

 Startparameter for this run:
   NWRITE =      2    write-flag & timer
   PREC   = accura    normal or accurate (medium, high low for compatibility)
   ISTART =      0    job   : 0-new  1-cont  2-samecut
   ICHARG =      2    charge: 1-file 2-atom 10-const
   ISPIN  =      2    spin polarized calculation?
   LNONCOLLINEAR =      F non collinear calculations
   LSORBIT =      F    spin-orbit coupling
   INIWAV =      1    electr: 0-lowe 1-rand  2-diag
   LASPH  =      T    aspherical Exc in radial PAW
 Electronic Relaxation 1
   ENCUT  =  520.0 eV  38.22 Ry    6.18 a.u.   7.23  7.23  7.23*2*pi/ulx,y,z
   ENINI  =  520.0     initial cutoff
   ENAUG  =  322.1 eV  augmentation charge cutoff
   NELM   =    100;   NELMIN=  2; NELMDL=  0     # of ELM steps 
   EDIFF  = 0.1E-03   stopping-criterion for ELM
   LREAL  =      T    real-space projection
   NLSPLINE    = F    spline interpolate recip. space projectors
   LCOMPAT=      F    compatible to vasp.4.4
   GGA_COMPAT  = T    GGA compatible to vasp.4.4-vasp.4.6
   LMAXPAW     = -100 max onsite density
   LMAXMIX     =    2 max onsite mixed and CHGCAR
   VOSKOWN=      0    Vosko Wilk Nusair interpolation
   ROPT   =   -0.00025
 Ionic relaxation
   EDIFFG = 0.1E-02   stopping-criterion for IOM
   NSW    =     99    number of steps for IOM
   NBLOCK =      1;   KBLOCK =     99    inner block; outer block 
   IBRION =      2    ionic relax: 0-MD 1-quasi-New 2-CG
   NFREE  =      1    steps in history (QN), initial steepest desc. (CG)
   ISIF   =      3    stress and relaxation
   IWAVPR =     11    prediction:  0-non 1-charg 2-wave 3-comb
   ISYM   =      2    0-nonsym 1-usesym 2-fastsym
   LCORR  =      T    Harris-Foulkes like correction to forces

   POTIM  = 0.5000    time-step for ionic-motion
   TEIN   =    0.0    initial temperature
   TEBEG  =    0.0;   TEEND  =   0.0 temperature during run
   SMASS  =  -3.00    Nose mass-parameter (am)
   estimated Nose-frequenzy (Omega)   =  0.10E-29 period in steps = 0.13E+47 mass=  -0.346E-27a.u.
   SCALEE = 1.0000    scale energy and forces
   NPACO  =    256;   APACO  = 10.0  distance and # of slots for P.C.
   PSTRESS=    0.0 pullay stress

  Mass of Ions in am
   POMASS =  28.09
  Ionic Valenz
   ZVAL   =   4.00
  Atomic Wigner-Seitz radii
   RWIGS  =  -1.00
  virtual crystal weights 
   VCA    =   1.00
   NELECT =       8.0000    total number of electrons
   NUPDOWN=      -1.0000    fix difference up-down

 DOS related values:
   EMIN   =  10.00;   EMAX   =-10.00  energy-range for DOS
   EFERMI =   0.00;   METHOD = LEGACY      
   ISMEAR =     0;   SIGMA  =   0.11  broadening in eV -4-tet -1-fermi 0-gaus

 Electronic relaxation 2 (details)
   IALGO  =     68    algorithm
   LDIAG  =      T    sub-space diagonalisation (order eigenvalues)
   LSUBROT=      F    optimize rotation matrix (better conditioning)
   TURBO    =      0    0=normal 1=particle mesh
   IRESTART =      0    0=no restart 2=restart with 2 vectors
   NREBOOT  =      0    no. of reboots
   NMIN     =      0    reboot dimension
   EREF     =   0.00    reference energy to select bands
   IMIX   =      4    mixing-type and parameters
     AMIX     =   0.40;   BMIX     =  1.00
     AMIX_MAG =   1.60;   BMIX_MAG =  1.00
     AMIN     =   0.10
     WC   =   100.;   INIMIX=   1;  MIXPRE=   1;  MAXMIX= -45

 Intra band minimization:
   WEIMIN = 0.0010     energy-eigenvalue tresh-hold
   EBREAK =  0.16E-05  absolut break condition
   DEPER  =   0.30     relativ break condition  

   TIME   =   0.40     timestep for ELM

  volume/ion in A,a.u.               =      20.80       140.34
  Fermi-wavevector in a.u.,A,eV,Ry     =   0.944993  1.785779 12.150174  0.893013
  Thomas-Fermi vector in A             =   2.072852
 
 Write flags
   LWAVE        =      F    write WAVECAR
   LDOWNSAMPLE  =      F    k-point downsampling of WAVECAR
   LCHARG       =      F    write CHGCAR
   LVTOT        =      F    write LOCPOT, total local potential
   LVHAR        =      F    write LOCPOT, Hartree potential only
   LELF         =      F    write electronic localiz. function (ELF)
   LORBIT       =     11    0 simple, 1 ext, 2 COOP (PROOUT), +10 PAW based schemes


 Dipole corrections
   LMONO  =      F    monopole corrections only (constant potential shift)
   LDIPOL =      F    correct potential (dipole corrections)
   IDIPOL =      0    1-x, 2-y, 3-z, 4-all directions 
   EPSILON=  1.0000000 bulk dielectric constant

 Exchange correlation treatment:
   GGA     =    --    GGA type
   LEXCH   =     8    internal setting for exchange type
   LIBXC   =     F    Libxc                    
   VOSKOWN =     0    Vosko Wilk Nusair interpolation
   LHFCALC =     F    Hartree Fock is set to
   LHFONE  =     F    Hartree Fock one center treatment
   AEXX    =    0.0000 exact exchange contribution

 Linear response parameters
   LEPSILON=     F    determine dielectric tensor
   LRPA    =     F    only Hartree local field effects (RPA)
   LNABLA  =     F    use nabla operator in PAW spheres
   LVEL    =     F    velocity operator in full k-point grid
   CSHIFT  =0.1000    complex shift for real part using Kramers Kronig
   OMEGAMAX=  -1.0    maximum frequency
   DEG_THRESHOLD= 0.2000000E-02 threshold for treating states as degnerate
   RTIME   =   -0.100 relaxation time in fs
  (WPLASMAI=    0.000 imaginary part of plasma frequency in eV, 0.658/RTIME)
   DFIELD  = 0.0000000 0.0000000 0.0000000 field for delta impulse in time
 
  Optional k-point grid parameters
   LKPOINTS_OPT  =     F    use optional k-point grid
   KPOINTS_OPT_MODE=     1    mode for optional k-point grid
 
 Orbital magnetization related:
   ORBITALMAG=     F  switch on orbital magnetization
   LCHIMAG   =     F  perturbation theory with respect to B field
   DQ        =  0.001000  dq finite difference perturbation B field
   LLRAUG    =     F  two centre corrections for induced B field
   LBONE     =     F  B-component reconstruction in AE one-centre
   LVGVCALC  =     T  calculate vGv susceptibility
   LVGVAPPL  =     F  apply vGv susceptibility instead of pGv for G=0

 Random number generation:
   RANDOM_GENERATOR = DEFAULT
   PCG_SEED         = not used


--------------------------------------------------------------------------------------------------------


 conjugate gradient relaxation of ions
 charge density and potential will be updated during run
 spin polarized calculation
 RMM-DIIS sequential band-by-band and
  variant of blocked Davidson during initial phase
 perform sub-space diagonalisation
    before iterative eigenvector-optimisation
 modified Broyden-mixing scheme, WC =      100.0
 initial mixing is a Kerker type mixing with AMIX =  0.4000 and BMIX =      1.0000
 Hartree-type preconditioning will be used
 using additional bands           12
 real space projection scheme for non local part
 use partial core corrections
 calculate Harris-corrections to forces 
   (improved forces if not selfconsistent)
 use gradient corrections 
 use of overlap-Matrix (Vanderbilt PP)
 Gauss-broadening in eV      SIGMA  =   0.11


--------------------------------------------------------------------------------------------------------


  energy-cutoff  :      520.00
  volume of cell :       41.59
      direct lattice vectors                 reciprocal lattice vectors
     0.000000000  2.750000000  2.750000000    -0.181818182  0.181818182  0.181818182
     2.750000000  0.000000000  2.750000000     0.181818182 -0.181818182  0.181818182
     2.750000000  2.750000000  0.000000000     0.181818182  0.181818182 -0.181818182

  length of vectors
     3.889087297  3.889087297  3.889087297     0.314918329  0.314918329  0.314918329


 
 k-points in units of 2pi/SCALE and weight: pymatgen with grid density = 763 / numbe
   0.00000000  0.00000000  0.00000000       0.003
  -0.02597403  0.02597403  0.02597403       0.023
  -0.05194805  0.05194805  0.05194805       0.023
  -0.07792208  0.07792208  0.07792208       0.023
   0.00000000  0.00000000  0.05194805       0.017
  -0.02597403  0.02597403  0.07792208       0.070
  -0.05194805  0.05194805  0.10389610       0.070
   0.10389610 -0.10389610 -0.05194805       0.070
   0.07792208 -0.07792208 -0.02597403       0.070
   0.05194805 -0.05194805  0.00000000       0.035
   0.00000000  0.00000000  0.10389610       0.017
  -0.02597403  0.02597403  0.12987013       0.070
   0.12987013 -0.12987013 -0.02597403       0.070
   0.10389610 -0.10389610  0.00000000       0.035
   0.00000000  0.00000000  0.15584416       0.017
   0.15584416 -0.15584416  0.00000000       0.035
  -0.00000000  0.05194805  0.10389610       0.070
   0.15584416 -0.10389610 -0.05194805       0.140
   0.18181818 -0.12987013 -0.02597403       0.070
   0.15584416 -0.10389610  0.00000000       0.070
 
 k-points in reciprocal lattice and weights: pymatgen with grid density = 763 / numbe
   0.00000000  0.00000000  0.00000000       0.003
   0.14285714  0.00000000  0.00000000       0.023
   0.28571429  0.00000000  0.00000000       0.023
   0.42857143  0.00000000  0.00000000       0.023
   0.14285714  0.14285714  0.00000000       0.017
   0.28571429  0.14285714  0.00000000       0.070
   0.42857143  0.14285714  0.00000000       0.070
  -0.42857143  0.14285714  0.00000000       0.070
  -0.28571429  0.14285714  0.00000000       0.070
  -0.14285714  0.14285714  0.00000000       0.035
   0.28571429  0.28571429  0.00000000       0.017
   0.42857143  0.28571429  0.00000000       0.070
  -0.42857143  0.28571429  0.00000000       0.070
  -0.28571429  0.28571429  0.00000000       0.035
   0.42857143  0.42857143  0.00000000       0.017
  -0.42857143  0.42857143  0.00000000       0.035
   0.42857143  0.28571429  0.14285714       0.070
  -0.42857143  0.28571429  0.14285714       0.140
  -0.42857143  0.42857143  0.14285714       0.070
  -0.28571429  0.42857143  0.14285714       0.070
 
 position of ions in fractional coordinates (direct lattice) 
   0.12500000  0.12500000  0.12500000
   0.87500000  0.87500000  0.87500000
 
 position of ions in cartesian coordinates  (Angst):
   0.68750000  0.68750000  0.68750000
   4.81250000  4.81250000  4.81250000
 


--------------------------------------------------------------------------------------------------------


 k-point   1 :   0.0000 0.0000 0.0000  plane waves:    1139
 k-point   2 :   0.1429 0.0000 0.0000  plane waves:    1131
 k-point   3 :   0.2857 0.0000 0.0000  plane waves:    1119
 k-point   4 :   0.4286 0.0000 0.0000  plane waves:    1131
 k-point   5 :   0.1429 0.1429 0.0000  plane waves:    1130
 k-point   6 :   0.2857 0.1429 0.0000  plane waves:    1116
 k-point   7 :   0.4286 0.1429 0.0000  plane waves:    1123
 k-point   8 :  -0.4286 0.1429 0.0000  plane waves:    1114
 k-point   9 :  -0.2857 0.1429 0.0000  plane waves:    1120
 k-point  10 :  -0.1429 0.1429 0.0000  plane waves:    1115
 k-point  11 :   0.2857 0.2857 0.0000  plane waves:    1106
 k-point  12 :   0.4286 0.2857 0.0000  plane waves:    1118
 k-point  13 :  -0.4286 0.2857 0.0000  plane waves:    1121
 k-point  14 :  -0.2857 0.2857 0.0000  plane waves:    1119
 k-point  15 :   0.4286 0.4286 0.0000  plane waves:    1110
 k-point  16 :  -0.4286 0.4286 0.0000  plane waves:    1126
 k-point  17 :   0.4286 0.2857 0.1429  plane waves:    1117
 k-point  18 :  -0.4286 0.2857 0.1429  plane waves:    1127
 k-point  19 :  -0.4286 0.4286 0.1429  plane waves:    1118
 k-point  20 :  -0.2857 0.4286 0.1429  plane waves:    1127

 maximum and minimum number of plane-waves per node :       149      130

 maximum number of plane-waves:      1139
 maximum index in each direction: 
   IXMAX=    7   IYMAX=    7   IZMAX=    7
   IXMIN=   -7   IYMIN=   -7   IZMIN=   -7


 real space projection operators:
  total allocation   :        590.50 KBytes
  max/ min on nodes  :         87.25         39.88


 parallel 3D FFT for wavefunctions:
    minimum data exchange during FFTs selected (reduces bandwidth)
 parallel 3D FFT for charge:
    minimum data exchange during FFTs selected (reduces bandwidth)


 total amount of memory used by VASP MPI-rank0    31266. kBytes
=======================================================================

   base      :      30000. kBytes
   nonlr-proj:        263. kBytes
   fftplans  :        246. kBytes
   grid      :        557. kBytes
   one-center:          6. kBytes
   wavefun   :        194. kBytes
 
     INWAV:  cpu time      0.0000: real time      0.0002
 Broyden mixing: mesh for mixing (old mesh)
   NGX = 15   NGY = 15   NGZ = 15
  (NGX  = 60   NGY  = 60   NGZ  = 60)
  gives a total of   3375 points

 initial charge density was supplied:
 charge density of overlapping atoms calculated
 number of electron       8.0000000 magnetization       1.2000000
 keeping initial charge density in first step


--------------------------------------------------------------------------------------------------------


 Maximum index for non-local projection operator          638
 Maximum index for augmentation-charges          703 (set IRDMAX)


--------------------------------------------------------------------------------------------------------


 First call to EWALD:  gamma=   0.512
 Maximum number of real-space cells 3x 3x 3
 Maximum number of reciprocal cells 3x 3x 3

    FEWALD:  cpu time      0.0019: real time      0.0038


--------------------------------------- Ionic step        1  -------------------------------------------




--------------------------------------- Iteration      1(   1)  ---------------------------------------


    POTLOK:  cpu time      0.0133: real time      0.0269
    SETDIJ:  cpu time      0.1772: real time      0.3634
     EDDAV:  cpu time      0.2074: real time      0.4079
       DOS:  cpu time      0.0010: real time      0.0022
    --------------------------------------------
      LOOP:  cpu time      0.3989: real time      0.8004

 eigenvalue-minimisations  :  1280
 total energy-change (2. order) : 0.5442521E+01  (-0.2678243E+03)
 number of electron       8.0000000 magnetization       1.2000000
 augmentation part        8.0000000 magnetization       1.2000000

 Free energy of the ion-electron system (eV)
  ---------------------------------------------------
  alpha Z        PSCENC =         3.23732084
  Ewald energy   TEWEN  =      -225.65453461
  -Hartree energ DENC   =       -11.58535014
  -exchange      EXHF   =         0.00000000
  -V(xc)+E(xc)   XCENC  =       -18.67198536
  PAW double counting   =        65.91709927      -30.72587073
  entropy T*S    EENTRO =        -0.00275019
  eigenvalues    EBANDS =        16.79588968
  atomic energy  EATOM  =       206.13270273
  Solvation  Ediel_sol  =         0.00000000
  ---------------------------------------------------
  free energy    TOTEN  =         5.44252150 eV

  energy without entropy =        5.44527168  energy(sigma->0) =        5.44389659


--------------------------------------------------------------------------------------------------------




--------------------------------------- Iteration      1(   2)  ---------------------------------------


     EDDAV:  cpu time      0.2684: real time      0.5518
       DOS:  cpu time      0.0009: real time      0.0018
    --------------------------------------------
      LOOP:  cpu time      0.2693: real time      0.5536

 eigenvalue-minimisations  :  1728
 total energy-change (2. order) :-0.1583258E+02  (-0.1534859E+02)
 number of electron       8.0000000 magnetization       1.2000000
 augmentation part        8.0000000 magnetization       1.2000000

 Free energy of the ion-electron system (eV)
  ---------------------------------------------------
  alpha Z        PSCENC =         3.23732084
  Ewald energy   TEWEN  =      -225.65453461
  -Hartree energ DENC   =       -11.58535014
  -exchange      EXHF   =         0.00000000
  -V(xc)+E(xc)   XCENC  =       -18.67198536
  PAW double counting   =        65.91709927      -30.72587073
  entropy T*S    EENTRO =        -0.00037087
  eigenvalues    EBANDS =         0.96092958
  atomic energy  EATOM  =       206.13270273
  Solvation  Ediel_sol  =         0.00000000
  ---------------------------------------------------
  free energy    TOTEN  =       -10.39005928 eV

  energy without entropy =      -10.38968841  energy(sigma->0) =      -10.38987384


--------------------------------------------------------------------------------------------------------




--------------------------------------- Iteration      1(   3)  ---------------------------------------


     EDDAV:  cpu time      0.2452: real time      0.4869
       DOS:  cpu time      0.0008: real time      0.0016
    --------------------------------------------
      LOOP:  cpu time      0.2460: real time      0.4885

 eigenvalue-minimisations  :  1584
 total energy-change (2. order) :-0.4205972E+00  (-0.4194706E+00)
 number of electron       8.0000000 magnetization       1.2000000
 augmentation part        8.0000000 magnetization       1.2000000

 Free energy of the ion-electron system (eV)
  ---------------------------------------------------
  alpha Z        PSCENC =         3.23732084
  Ewald energy   TEWEN  =      -225.65453461
  -Hartree energ DENC   =       -11.58535014
  -exchange      EXHF   =         0.00000000
  -V(xc)+E(xc)   XCENC  =       -18.67198536
  PAW double counting   =        65.91709927      -30.72587073
  entropy T*S    EENTRO =        -0.00011027
  eigenvalues    EBANDS =         0.54007178
  atomic energy  EATOM  =       206.13270273
  Solvation  Ediel_sol  =         0.00000000
  ---------------------------------------------------
  free energy    TOTEN  =       -10.81065648 eV

  energy without entropy =      -10.81054622  energy(sigma->0) =      -10.81060135


--------------------------------------------------------------------------------------------------------




--------------------------------------- Iteration      1(   4)  ---------------------------------------


     EDDAV:  cpu time      0.2563: real time      0.5268
       DOS:  cpu time      0.0008: real time      0.0016
    --------------------------------------------
      LOOP:  cpu time      0.2571: real time      0.5283

 eigenvalue-minimisations  :  1728
 total energy-change (2. order) :-0.2528319E-02  (-0.2528163E-02)
 number of electron       8.0000000 magnetization       1.2000000
 augmentation part        8.0000000 magnetization       1.2000000

 Free energy of the ion-electron system (eV)
  ---------------------------------------------------
  alpha Z        PSCENC =         3.23732084
  Ewald energy   TEWEN  =      -225.65453461
  -Hartree energ DENC   =       -11.58535014
  -exchange      EXHF   =         0.00000000
  -V(xc)+E(xc)   XCENC  =       -18.67198536
  PAW double counting   =        65.91709927      -30.72587073
  entropy T*S    EENTRO =        -0.00010872
  eigenvalues    EBANDS =         0.53754191
  atomic energy  EATOM  =       206.13270273
  Solvation  Ediel_sol  =         0.00000000
  ---------------------------------------------------
  free energy    TOTEN  =       -10.81318480 eV

  energy without entropy =      -10.81307608  energy(sigma->0) =      -10.81313044


--------------------------------------------------------------------------------------------------------




--------------------------------------- Iteration      1(   5)  ---------------------------------------


     EDDAV:  cpu time      0.2343: real time      0.4840
       DOS:  cpu time      0.0009: real time      0.0020
    CHARGE:  cpu time      0.0130: real time      0.0266
    MIXING:  cpu time      0.0012: real time      0.0026
    --------------------------------------------
      LOOP:  cpu time      0.2494: real time      0.5152

 eigenvalue-minimisations  :  1592
 total energy-change (2. order) :-0.2320541E-04  (-0.2320497E-04)
 number of electron       7.9999999 magnetization      -0.3286303
 augmentation part       -0.4689154 magnetization      -0.3258824

 Broyden mixing:
  rms(total) = 0.36484E+00    rms(broyden)= 0.36484E+00
  rms(prec ) = 0.86825E+00
  weight for this iteration     100.00

 Free energy of the ion-electron system (eV)
  ---------------------------------------------------
  alpha Z        PSCENC =         3.23732084
  Ewald energy   TEWEN  =      -225.65453461
  -Hartree energ DENC   =       -11.58535014
  -exchange      EXHF   =         0.00000000
  -V(xc)+E(xc)   XCENC  =       -18.67198536
  PAW double counting   =        65.91709927      -30.72587073
  entropy T*S    EENTRO =        -0.00010871
  eigenvalues    EBANDS =         0.53751869
  atomic energy  EATOM  =       206.13270273
  Solvation  Ediel_sol  =         0.00000000
  ---------------------------------------------------
  free energy    TOTEN  =       -10.81320801 eV

  energy without entropy =      -10.81309930  energy(sigma->0) =      -10.81315365


--------------------------------------------------------------------------------------------------------




--------------------------------------- Iteration      1(   6)  ---------------------------------------


    POTLOK:  cpu time      0.0174: real time      0.0483
    SETDIJ:  cpu time      0.1734: real time      0.3557
    EDDIAG:  cpu time      0.0331: real time      0.0662
  RMM-DIIS:  cpu time      0.0616: real time      0.1237
    ORTHCH:  cpu time      0.0096: real time      0.0192
       DOS:  cpu time      0.0007: real time      0.0014
    CHARGE:  cpu time      0.0123: real time      0.0223
    MIXING:  cpu time      0.0007: real time      0.0010
    --------------------------------------------
      LOOP:  cpu time      0.3088: real time      0.6378

 eigenvalue-minimisations  :  1280
 total energy-change (2. order) :-0.6361378E-01  (-0.3911189E-02)
 number of electron       7.9999999 magnetization       0.4143171
 augmentation part       -0.4629584 magnetization       0.4150421

 Broyden mixing:
  rms(total) = 0.18531E+00    rms(broyden)= 0.18531E+00
  rms(prec ) = 0.50170E+00
  weight for this iteration     100.00

 eigenvalues of (default mixing * dielectric matrix)
  average eigenvalue GAMMA=   0.8567
  0.8567

 Free energy of the ion-electron system (eV)
  ---------------------------------------------------
  alpha Z        PSCENC =         3.23732084
  Ewald energy   TEWEN  =      -225.65453461
  -Hartree energ DENC   =       -13.03053626
  -exchange      EXHF   =         0.00000000
  -V(xc)+E(xc)   XCENC  =       -18.51861260
  PAW double counting   =        69.44191907      -34.35015599
  entropy T*S    EENTRO =        -0.00000026
  eigenvalues    EBANDS =         1.86507529
  atomic energy  EATOM  =       206.13270273
  Solvation  Ediel_sol  =         0.00000000
  ---------------------------------------------------
  free energy    TOTEN  =       -10.87682179 eV

  energy without entropy =      -10.87682153  energy(sigma->0) =      -10.87682166


--------------------------------------------------------------------------------------------------------




--------------------------------------- Iteration      1(   7)  ---------------------------------------


    POTLOK:  cpu time      0.0137: real time      0.0403
    SETDIJ:  cpu time      0.1774: real time      0.3594
    EDDIAG:  cpu time      0.0328: real time      0.0657
  RMM-DIIS:  cpu time      0.0608: real time      0.1224
    ORTHCH:  cpu time      0.0095: real time      0.0190
       DOS:  cpu time      0.0008: real time      0.0016
    CHARGE:  cpu time      0.0123: real time      0.0220
    MIXING:  cpu time      0.0007: real time      0.0013
    --------------------------------------------
      LOOP:  cpu time      0.3080: real time      0.6318

 eigenvalue-minimisations  :  1280
 total energy-change (2. order) : 0.5468942E-01  (-0.3575933E-02)
 number of electron       7.9999999 magnetization       0.0111230
 augmentation part       -0.4582893 magnetization       0.0117608

 Broyden mixing:
  rms(total) = 0.99821E-01    rms(broyden)= 0.99821E-01
  rms(prec ) = 0.16651E+00
  weight for this iteration     100.00

 eigenvalues of (default mixing * dielectric matrix)
  average eigenvalue GAMMA=   1.5032
  0.7659  2.2405

 Free energy of the ion-electron system (eV)
  ---------------------------------------------------
  alpha Z        PSCENC =         3.23732084
  Ewald energy   TEWEN  =      -225.65453461
  -Hartree energ DENC   =       -14.70846009
  -exchange      EXHF   =         0.00000000
  -V(xc)+E(xc)   XCENC  =       -18.24292754
  PAW double counting   =        72.74892790      -37.74162146
  entropy T*S    EENTRO =        -0.00001189
  eigenvalues    EBANDS =         3.40647175
  atomic energy  EATOM  =       206.13270273
  Solvation  Ediel_sol  =         0.00000000
  ---------------------------------------------------
  free energy    TOTEN  =       -10.82213237 eV

  energy without entropy =      -10.82212048  energy(sigma->0) =      -10.82212642


--------------------------------------------------------------------------------------------------------




--------------------------------------- Iteration      1(   8)  ---------------------------------------


    POTLOK:  cpu time      0.0128: real time      0.0374
    SETDIJ:  cpu time      0.1776: real time      0.3600
    EDDIAG:  cpu time      0.0330: real time      0.0659
  RMM-DIIS:  cpu time      0.0608: real time      0.1226
    ORTHCH:  cpu time      0.0095: real time      0.0190
       DOS:  cpu time      0.0007: real time      0.0014
    CHARGE:  cpu time      0.0126: real time      0.0224
    MIXING:  cpu time      0.0005: real time      0.0009
    --------------------------------------------
      LOOP:  cpu time      0.3073: real time      0.6295

 eigenvalue-minimisations  :  1280
 total energy-change (2. order) :-0.1648528E-01  (-0.1124112E-02)
 number of electron       7.9999999 magnetization      -0.0084868
 augmentation part       -0.4566822 magnetization      -0.0081734

 Broyden mixing:
  rms(total) = 0.17733E-01    rms(broyden)= 0.17733E-01
  rms(prec ) = 0.30889E-01
  weight for this iteration     100.00

 eigenvalues of (default mixing * dielectric matrix)
  average eigenvalue GAMMA=   1.2992
  2.4537  0.7914  0.6525

 Free energy of the ion-electron system (eV)
  ---------------------------------------------------
  alpha Z        PSCENC =         3.23732084
  Ewald energy   TEWEN  =      -225.65453461
  -Hartree energ DENC   =       -15.38298869
  -exchange      EXHF   =         0.00000000
  -V(xc)+E(xc)   XCENC  =       -18.14437797
  PAW double counting   =        73.75718947      -38.78036464
  entropy T*S    EENTRO =        -0.00000068
  eigenvalues    EBANDS =         3.99643591
  atomic energy  EATOM  =       206.13270273
  Solvation  Ediel_sol  =         0.00000000
  ---------------------------------------------------
  free energy    TOTEN  =       -10.83861765 eV

  energy without entropy =      -10.83861696  energy(sigma->0) =      -10.83861730


--------------------------------------------------------------------------------------------------------




--------------------------------------- Iteration      1(   9)  ---------------------------------------


    POTLOK:  cpu time      0.0210: real time      0.0376
    SETDIJ:  cpu time      0.1772: real time      0.3573
    EDDIAG:  cpu time      0.0326: real time      0.0653
  RMM-DIIS:  cpu time      0.0609: real time      0.1230
    ORTHCH:  cpu time      0.0095: real time      0.0191
       DOS:  cpu time      0.0007: real time      0.0015
    CHARGE:  cpu time      0.0122: real time      0.0218
    MIXING:  cpu time      0.0005: real time      0.0009
    --------------------------------------------
      LOOP:  cpu time      0.3145: real time      0.6265

 eigenvalue-minimisations  :  1280
 total energy-change (2. order) : 0.5365841E-03  (-0.7215815E-04)
 number of electron       7.9999999 magnetization       0.0003030
 augmentation part       -0.4570206 magnetization       0.0004778

 Broyden mixing:
  rms(total) = 0.90775E-02    rms(broyden)= 0.90775E-02
  rms(prec ) = 0.18815E-01
  weight for this iteration     100.00

 eigenvalues of (default mixing * dielectric matrix)
  average eigenvalue GAMMA=   1.4753
  2.4779  1.9974  0.7842  0.6419

 Free energy of the ion-electron system (eV)
  ---------------------------------------------------
  alpha Z        PSCENC =         3.23732084
  Ewald energy   TEWEN  =      -225.65453461
  -Hartree energ DENC   =       -15.38531618
  -exchange      EXHF   =         0.00000000
  -V(xc)+E(xc)   XCENC  =       -18.14104203
  PAW double counting   =        73.52348002      -38.54001707
  entropy T*S    EENTRO =        -0.00000057
  eigenvalues    EBANDS =         3.98932581
  atomic energy  EATOM  =       206.13270273
  Solvation  Ediel_sol  =         0.00000000
  ---------------------------------------------------
  free energy    TOTEN  =       -10.83808106 eV

  energy without entropy =      -10.83808049  energy(sigma->0) =      -10.83808078


--------------------------------------------------------------------------------------------------------




--------------------------------------- Iteration      1(  10)  ---------------------------------------


    POTLOK:  cpu time      0.0152: real time      0.0465
    SETDIJ:  cpu time      0.1777: real time      0.3566
    EDDIAG:  cpu time      0.0384: real time      0.0774
  RMM-DIIS:  cpu time      0.0614: real time      0.1241
    ORTHCH:  cpu time      0.0096: real time      0.0191
       DOS:  cpu time      0.0008: real time      0.0020
    CHARGE:  cpu time      0.0122: real time      0.0223
    MIXING:  cpu time      0.0006: real time      0.0010
    --------------------------------------------
      LOOP:  cpu time      0.3159: real time      0.6491

 eigenvalue-minimisations  :  1277
 total energy-change (2. order) :-0.1126195E-03  (-0.4276833E-04)
 number of electron       7.9999999 magnetization       0.0005657
 augmentation part       -0.4574430 magnetization       0.0005252

 Broyden mixing:
  rms(total) = 0.18452E-02    rms(broyden)= 0.18452E-02
  rms(prec ) = 0.38248E-02
  weight for this iteration     100.00

 eigenvalues of (default mixing * dielectric matrix)
  average eigenvalue GAMMA=   1.4138
  2.6114  2.2700  0.8033  0.7484  0.6359

 Free energy of the ion-electron system (eV)
  ---------------------------------------------------
  alpha Z        PSCENC =         3.23732084
  Ewald energy   TEWEN  =      -225.65453461
  -Hartree energ DENC   =       -15.38559000
  -exchange      EXHF   =         0.00000000
  -V(xc)+E(xc)   XCENC  =       -18.13591102
  PAW double counting   =        73.09315806      -38.09672990
  entropy T*S    EENTRO =        -0.00000041
  eigenvalues    EBANDS =         3.97139064
  atomic energy  EATOM  =       206.13270273
  Solvation  Ediel_sol  =         0.00000000
  ---------------------------------------------------
  free energy    TOTEN  =       -10.83819368 eV

  energy without entropy =      -10.83819327  energy(sigma->0) =      -10.83819348


--------------------------------------------------------------------------------------------------------




--------------------------------------- Iteration      1(  11)  ---------------------------------------


    POTLOK:  cpu time      0.0177: real time      0.0364
    SETDIJ:  cpu time      0.1772: real time      0.3612
    EDDIAG:  cpu time      0.0327: real time      0.0655
  RMM-DIIS:  cpu time      0.0518: real time      0.1059
    ORTHCH:  cpu time      0.0096: real time      0.0191
       DOS:  cpu time      0.0007: real time      0.0013
    --------------------------------------------
      LOOP:  cpu time      0.2897: real time      0.5894

 eigenvalue-minimisations  :  1026
 total energy-change (2. order) :-0.1380110E-04  (-0.7754370E-05)
 number of electron       7.9999999 magnetization       0.0005657
 augmentation part       -0.4574430 magnetization       0.0005252

 Free energy of the ion-electron system (eV)
  ---------------------------------------------------
  alpha Z        PSCENC =         3.23732084
  Ewald energy   TEWEN  =      -225.65453461
  -Hartree energ DENC   =       -15.39829769
  -exchange      EXHF   =         0.00000000
  -V(xc)+E(xc)   XCENC  =       -18.13460748
  PAW double counting   =        73.11657321      -38.12117718
  entropy T*S    EENTRO =        -0.00000041
  eigenvalues    EBANDS =         3.98381312
  atomic energy  EATOM  =       206.13270273
  Solvation  Ediel_sol  =         0.00000000
  ---------------------------------------------------
  free energy    TOTEN  =       -10.83820748 eV

  energy without entropy =      -10.83820707  energy(sigma->0) =      -10.83820728


--------------------------------------------------------------------------------------------------------




 average (electrostatic) potential at core
  the test charge radii are     0.9892
  (the norm of the test charge is              1.0000)
       1 -83.6693       2 -83.6693
 
 
 
 E-fermi :   5.7636     XC(G=0):  -9.2604     alpha+bet :-11.5327

 Fermi energy:         5.7636075311

 spin component 1

 k-point     1 :       0.0000    0.0000    0.0000
  band No.  band energies     occupation 
      1      -6.2504      1.00000
      2       5.4507      0.99996
      3       5.4507      0.99996
      4       5.4507      0.99996
      5       7.9985      0.00000
      6       7.9985      0.00000
      7       7.9985      0.00000
      8       8.3910      0.00000
      9      13.1488      0.00000
     10      13.1488      0.00000
     11      13.2590      0.00000
     12      16.5732      0.00000
     13      16.5732      0.00000
     14      16.5732      0.00000
     15      20.6138      0.00000
     16      28.1051      0.00000

 k-point     2 :       0.1429    0.0000    0.0000
  band No.  band energies     occupation 
      1      -5.9929      1.00000
      2       3.5369      1.00000
      3       5.1070      1.00000
      4       5.1070      1.00000
      5       7.7712      0.00000
      6       8.5018      0.00000
      7       8.5018      0.00000
      8      10.1581      0.00000
      9      12.6076      0.00000
     10      12.6076      0.00000
     11      14.1962      0.00000
     12      15.9624      0.00000
     13      17.9899      0.00000
     14      17.9899      0.00000
     15      22.1087      0.00000
     16      25.6425      0.00000

 k-point     3 :       0.2857    0.0000    0.0000
  band No.  band energies     occupation 
      1      -5.2524      1.00000
      2       0.9850      1.00000
      3       4.6055      1.00000
      4       4.6055      1.00000
      5       7.2241      0.00000
      6       8.9635      0.00000
      7       8.9635      0.00000
      8      12.6341      0.00000
      9      12.8747      0.00000
     10      12.8747      0.00000
     11      14.2148      0.00000
     12      17.7872      0.00000
     13      20.2125      0.00000
     14      20.2133      0.00000
     15      22.4909      0.00000
     16      22.5121      0.00000

 k-point     4 :       0.4286    0.0000    0.0000
  band No.  band energies     occupation 
      1      -4.2547      1.00000
      2      -0.9780      1.00000
      3       4.3230      1.00000
      4       4.3230      1.00000
      5       6.8983      0.00000
      6       8.8409      0.00000
      7       8.8409      0.00000
      8      13.1803      0.00000
      9      14.8257      0.00000
     10      14.8257      0.00000
     11      15.6818      0.00000
     12      17.7944      0.00000
     13      17.7944      0.00000
     14      18.6933      0.00000
     15      22.6644      0.00000
     16      24.9836      0.00000

 k-point     5 :       0.1429    0.1429    0.0000
  band No.  band energies     occupation 
      1      -5.9057      1.00000
      2       3.7849      1.00000
      3       4.5187      1.00000
      4       4.5187      1.00000
      5       7.3398      0.00000
      6       9.3526      0.00000
      7       9.3526      0.00000
      8       9.6127      0.00000
      9      11.8263      0.00000
     10      13.5337      0.00000
     11      14.5993      0.00000
     12      17.1739      0.00000
     13      17.1739      0.00000
     14      17.6930      0.00000
     15      22.8567      0.00000
     16      25.1441      0.00000

 k-point     6 :       0.2857    0.1429    0.0000
  band No.  band energies     occupation 
      1      -5.3187      1.00000
      2       1.7337      1.00000
      3       3.9360      1.00000
      4       3.9926      1.00000
      5       7.5221      0.00000
      6       9.2012      0.00000
      7      10.0127      0.00000
      8      10.1267      0.00000
      9      13.3302      0.00000
     10      13.9002      0.00000
     11      15.5171      0.00000
     12      17.3415      0.00000
     13      18.7807      0.00000
     14      20.1767      0.00000
     15      21.8951      0.00000
     16      22.4826      0.00000

 k-point     7 :       0.4286    0.1429    0.0000
  band No.  band energies     occupation 
      1      -4.3473      1.00000
      2      -0.3759      1.00000
      3       3.2651      1.00000
      4       3.8063      1.00000
      5       7.5692      0.00000
      6       9.1853      0.00000
      7       9.9464      0.00000
      8      11.1631      0.00000
      9      14.8142      0.00000
     10      15.5706      0.00000
     11      16.0614      0.00000
     12      17.4820      0.00000
     13      18.1814      0.00000
     14      20.8530      0.00000
     15      22.5819      0.00000
     16      22.7712      0.00000

 k-point     8 :      -0.4286    0.1429    0.0000
  band No.  band energies     occupation 
      1      -3.8159      1.00000
      2      -1.2034      1.00000
      3       2.8671      1.00000
      4       3.9943      1.00000
      5       7.6431      0.00000
      6       9.1247      0.00000
      7       9.5695      0.00000
      8      13.4744      0.00000
      9      14.0041      0.00000
     10      14.3989      0.00000
     11      16.2443      0.00000
     12      18.3817      0.00000
     13      18.8519      0.00000
     14      19.2680      0.00000
     15      23.2551      0.00000
     16      25.0696      0.00000

 k-point     9 :      -0.2857    0.1429    0.0000
  band No.  band energies     occupation 
      1      -4.7015      1.00000
      2       0.2798      1.00000
      3       2.8813      1.00000
      4       4.4891      1.00000
      5       8.0065      0.00000
      6       9.3201      0.00000
      7       9.3372      0.00000
      8      11.9421      0.00000
      9      12.1882      0.00000
     10      15.1482      0.00000
     11      16.3621      0.00000
     12      17.4539      0.00000
     13      19.3387      0.00000
     14      21.1126      0.00000
     15      21.3747      0.00000
     16      22.6024      0.00000

 k-point    10 :      -0.1429    0.1429    0.0000
  band No.  band energies     occupation 
      1      -5.5709      1.00000
      2       2.3352      1.00000
      3       3.5644      1.00000
      4       5.0615      1.00000
      5       8.3779      0.00000
      6       8.7107      0.00000
      7       8.9477      0.00000
      8      10.9074      0.00000
      9      11.6838      0.00000
     10      13.8073      0.00000
     11      15.3541      0.00000
     12      16.6152      0.00000
     13      18.0370      0.00000
     14      20.3637      0.00000
     15      21.8847      0.00000
     16      23.6511      0.00000

 k-point    11 :       0.2857    0.2857    0.0000
  band No.  band energies     occupation 
      1      -4.8884      1.00000
      2       1.3018      1.00000
      3       3.3913      1.00000
      4       3.3913      1.00000
      5       6.4247      0.00000
      6       8.0874      0.00000
      7      11.7027      0.00000
      8      11.7027      0.00000
      9      13.8841      0.00000
     10      14.6856      0.00000
     11      17.3608      0.00000
     12      18.6357      0.00000
     13      18.6357      0.00000
     14      19.5387      0.00000
     15      21.8593      0.00000
     16      21.8593      0.00000

 k-point    12 :       0.4286    0.2857    0.0000
  band No.  band energies     occupation 
      1      -4.0165      1.00000
      2      -0.1546      1.00000
      3       2.4508      1.00000
      4       3.1383      1.00000
      5       6.7081      0.00000
      6       8.1640      0.00000
      7      11.8912      0.00000
      8      12.1134      0.00000
      9      16.2096      0.00000
     10      16.3360      0.00000
     11      16.8626      0.00000
     12      17.4653      0.00000
     13      19.3569      0.00000
     14      20.2143      0.00000
     15      21.4936      0.00000
     16      23.0269      0.00000

 k-point    13 :      -0.4286    0.2857    0.0000
  band No.  band energies     occupation 
      1      -3.1394      1.00000
      2      -1.2839      1.00000
      3       1.5328      1.00000
      4       3.2999      1.00000
      5       6.9429      0.00000
      6      10.3524      0.00000
      7      11.6191      0.00000
      8      11.6380      0.00000
      9      14.2766      0.00000
     10      14.4103      0.00000
     11      18.6471      0.00000
     12      18.9760      0.00000
     13      19.3004      0.00000
     14      22.5190      0.00000
     15      22.6885      0.00000
     16      23.0073      0.00000

 k-point    14 :      -0.2857    0.2857    0.0000
  band No.  band energies     occupation 
      1      -3.7636      1.00000
      2      -0.5595      1.00000
      3       1.4655      1.00000
      4       3.8291      1.00000
      5       7.5175      0.00000
      6      10.8132      0.00000
      7      11.1532      0.00000
      8      11.8562      0.00000
      9      12.3282      0.00000
     10      13.4245      0.00000
     11      18.5743      0.00000
     12      19.1838      0.00000
     13      19.9403      0.00000
     14      21.7216      0.00000
     15      21.8493      0.00000
     16      22.8866      0.00000

 k-point    15 :       0.4286    0.4286    0.0000
  band No.  band energies     occupation 
      1      -3.2557      1.00000
      2      -1.1267      1.00000
      3       2.7783      1.00000
      4       2.7783      1.00000
      5       6.0902      0.00002
      6       6.6080      0.00000
      7      14.2767      0.00000
      8      14.2767      0.00000
      9      16.5946      0.00000
     10      16.7956      0.00000
     11      17.2907      0.00000
     12      17.2907      0.00000
     13      18.8304      0.00000
     14      19.2381      0.00000
     15      22.3842      0.00000
     16      23.1211      0.00000

 k-point    16 :      -0.4286    0.4286    0.0000
  band No.  band energies     occupation 
      1      -2.3432      1.00000
      2      -2.0542      1.00000
      3       1.9297      1.00000
      4       2.8374      1.00000
      5       6.3897      0.00000
      6       7.6068      0.00000
      7      14.0577      0.00000
      8      14.4280      0.00000
      9      14.7268      0.00000
     10      15.0907      0.00000
     11      18.8290      0.00000
     12      19.0000      0.00000
     13      19.1197      0.00000
     14      19.8905      0.00000
     15      22.2813      0.00000
     16      22.7087      0.00000

 k-point    17 :       0.4286    0.2857    0.1429
  band No.  band energies     occupation 
      1      -4.5914      1.00000
      2       0.5996      1.00000
      3       2.4554      1.00000
      4       3.7272      1.00000
      5       8.0217      0.00000
      6       9.2310      0.00000
      7       9.5379      0.00000
      8      11.4685      0.00000
      9      13.5548      0.00000
     10      16.2018      0.00000
     11      16.5555      0.00000
     12      17.8392      0.00000
     13      18.9647      0.00000
     14      20.6835      0.00000
     15      20.8131      0.00000
     16      23.6316      0.00000

 k-point    18 :      -0.4286    0.2857    0.1429
  band No.  band energies     occupation 
      1      -3.5903      1.00000
      2      -0.8752      1.00000
      3       1.8912      1.00000
      4       3.2158      1.00000
      5       8.4977      0.00000
      6       8.8960      0.00000
      7      10.8322      0.00000
      8      11.9203      0.00000
      9      13.6249      0.00000
     10      15.2534      0.00000
     11      17.4601      0.00000
     12      18.5967      0.00000
     13      19.7034      0.00000
     14      21.1876      0.00000
     15      22.5454      0.00000
     16      23.3477      0.00000

 k-point    19 :      -0.4286    0.4286    0.1429
  band No.  band energies     occupation 
      1      -3.0619      1.00000
      2      -1.2142      1.00000
      3       1.9916      1.00000
      4       2.3913      1.00000
      5       7.6714      0.00000
      6       8.0439      0.00000
      7      11.4773      0.00000
      8      13.9019      0.00000
      9      14.4427      0.00000
     10      16.2655      0.00000
     11      17.6546      0.00000
     12      19.2010      0.00000
     13      19.6875      0.00000
     14      20.6975      0.00000
     15      21.9354      0.00000
     16      22.6276      0.00000

 k-point    20 :      -0.2857    0.4286    0.1429
  band No.  band energies     occupation 
      1      -2.6473      1.00000
      2      -1.5956      1.00000
      3       1.3839      1.00000
      4       2.4784      1.00000
      5       8.1880      0.00000
      6      10.2702      0.00000
      7      10.9592      0.00000
      8      11.1316      0.00000
      9      14.3288      0.00000
     10      15.4886      0.00000
     11      18.3459      0.00000
     12      19.6196      0.00000
     13      20.5050      0.00000
     14      21.6062      0.00000
     15      22.6650      0.00000
     16      23.5185      0.00000
 Fermi energy:         5.7636075311

 spin component 2

 k-point     1 :       0.0000    0.0000    0.0000
  band No.  band energies     occupation 
      1      -6.2512      1.00000
      2       5.4496      0.99997
      3       5.4496      0.99997
      4       5.4496      0.99997
      5       7.9988      0.00000
      6       7.9988      0.00000
      7       7.9988      0.00000
      8       8.3896      0.00000
      9      13.1495      0.00000
     10      13.1495      0.00000
     11      13.2546      0.00000
     12      16.5731      0.00000
     13      16.5731      0.00000
     14      16.5731      0.00000
     15      20.6075      0.00000
     16      28.1014      0.00000

 k-point     2 :       0.1429    0.0000    0.0000
  band No.  band energies     occupation 
      1      -5.9937      1.00000
      2       3.5360      1.00000
      3       5.1060      1.00000
      4       5.1060      1.00000
      5       7.7706      0.00000
      6       8.5019      0.00000
      7       8.5019      0.00000
      8      10.1567      0.00000
      9      12.6082      0.00000
     10      12.6082      0.00000
     11      14.1924      0.00000
     12      15.9611      0.00000
     13      17.9901      0.00000
     14      17.9901      0.00000
     15      22.1038      0.00000
     16      25.6686      0.00000

 k-point     3 :       0.2857    0.0000    0.0000
  band No.  band energies     occupation 
      1      -5.2531      1.00000
      2       0.9842      1.00000
      3       4.6047      1.00000
      4       4.6047      1.00000
      5       7.2232      0.00000
      6       8.9637      0.00000
      7       8.9637      0.00000
      8      12.6323      0.00000
      9      12.8750      0.00000
     10      12.8750      0.00000
     11      14.2121      0.00000
     12      17.7842      0.00000
     13      20.2132      0.00000
     14      20.2137      0.00000
     15      22.4903      0.00000
     16      22.5118      0.00000

 k-point     4 :       0.4286    0.0000    0.0000
  band No.  band energies     occupation 
      1      -4.2555      1.00000
      2      -0.9788      1.00000
      3       4.3221      1.00000
      4       4.3221      1.00000
      5       6.8972      0.00000
      6       8.8412      0.00000
      7       8.8412      0.00000
      8      13.1779      0.00000
      9      14.8259      0.00000
     10      14.8259      0.00000
     11      15.6790      0.00000
     12      17.7945      0.00000
     13      17.7945      0.00000
     14      18.6909      0.00000
     15      22.6631      0.00000
     16      24.9834      0.00000

 k-point     5 :       0.1429    0.1429    0.0000
  band No.  band energies     occupation 
      1      -5.9065      1.00000
      2       3.7837      1.00000
      3       4.5179      1.00000
      4       4.5179      1.00000
      5       7.3396      0.00000
      6       9.3526      0.00000
      7       9.3526      0.00000
      8       9.6117      0.00000
      9      11.8262      0.00000
     10      13.5345      0.00000
     11      14.5954      0.00000
     12      17.1740      0.00000
     13      17.1740      0.00000
     14      17.6914      0.00000
     15      22.8526      0.00000
     16      25.1432      0.00000

 k-point     6 :       0.2857    0.1429    0.0000
  band No.  band energies     occupation 
      1      -5.3194      1.00000
      2       1.7328      1.00000
      3       3.9352      1.00000
      4       3.9919      1.00000
      5       7.5215      0.00000
      6       9.2009      0.00000
      7      10.0122      0.00000
      8      10.1266      0.00000
      9      13.3293      0.00000
     10      13.9007      0.00000
     11      15.5145      0.00000
     12      17.3390      0.00000
     13      18.7812      0.00000
     14      20.1763      0.00000
     15      21.8944      0.00000
     16      22.4812      0.00000

 k-point     7 :       0.4286    0.1429    0.0000
  band No.  band energies     occupation 
      1      -4.3481      1.00000
      2      -0.3767      1.00000
      3       3.2643      1.00000
      4       3.8056      1.00000
      5       7.5686      0.00000
      6       9.1848      0.00000
      7       9.9465      0.00000
      8      11.1625      0.00000
      9      14.8124      0.00000
     10      15.5710      0.00000
     11      16.0597      0.00000
     12      17.4821      0.00000
     13      18.1796      0.00000
     14      20.8513      0.00000
     15      22.5815      0.00000
     16      22.7710      0.00000

 k-point     8 :      -0.4286    0.1429    0.0000
  band No.  band energies     occupation 
      1      -3.8167      1.00000
      2      -1.2042      1.00000
      3       2.8663      1.00000
      4       3.9936      1.00000
      5       7.6425      0.00000
      6       9.1241      0.00000
      7       9.5698      0.00000
      8      13.4734      0.00000
      9      14.0027      0.00000
     10      14.3991      0.00000
     11      16.2428      0.00000
     12      18.3819      0.00000
     13      18.8502      0.00000
     14      19.2669      0.00000
     15      23.2539      0.00000
     16      25.0340      0.00000

 k-point     9 :      -0.2857    0.1429    0.0000
  band No.  band energies     occupation 
      1      -4.7022      1.00000
      2       0.2789      1.00000
      3       2.8806      1.00000
      4       4.4882      1.00000
      5       8.0060      0.00000
      6       9.3204      0.00000
      7       9.3364      0.00000
      8      11.9409      0.00000
      9      12.1884      0.00000
     10      15.1462      0.00000
     11      16.3617      0.00000
     12      17.4527      0.00000
     13      19.3367      0.00000
     14      21.1118      0.00000
     15      21.3752      0.00000
     16      22.6014      0.00000

 k-point    10 :      -0.1429    0.1429    0.0000
  band No.  band energies     occupation 
      1      -5.5716      1.00000
      2       2.3343      1.00000
      3       3.5637      1.00000
      4       5.0605      1.00000
      5       8.3777      0.00000
      6       8.7110      0.00000
      7       8.9466      0.00000
      8      10.9065      0.00000
      9      11.6842      0.00000
     10      13.8071      0.00000
     11      15.3509      0.00000
     12      16.6137      0.00000
     13      18.0368      0.00000
     14      20.3641      0.00000
     15      21.8840      0.00000
     16      23.6487      0.00000

 k-point    11 :       0.2857    0.2857    0.0000
  band No.  band energies     occupation 
      1      -4.8892      1.00000
      2       1.3008      1.00000
      3       3.3906      1.00000
      4       3.3906      1.00000
      5       6.4240      0.00000
      6       8.0868      0.00000
      7      11.7024      0.00000
      8      11.7024      0.00000
      9      13.8829      0.00000
     10      14.6864      0.00000
     11      17.3570      0.00000
     12      18.6363      0.00000
     13      18.6363      0.00000
     14      19.5359      0.00000
     15      21.8578      0.00000
     16      21.8579      0.00000

 k-point    12 :       0.4286    0.2857    0.0000
  band No.  band energies     occupation 
      1      -4.0173      1.00000
      2      -0.1555      1.00000
      3       2.4501      1.00000
      4       3.1377      1.00000
      5       6.7074      0.00000
      6       8.1633      0.00000
      7      11.8905      0.00000
      8      12.1134      0.00000
      9      16.2101      0.00000
     10      16.3349      0.00000
     11      16.8608      0.00000
     12      17.4656      0.00000
     13      19.3546      0.00000
     14      20.2123      0.00000
     15      21.4938      0.00000
     16      23.0238      0.00000

 k-point    13 :      -0.4286    0.2857    0.0000
  band No.  band energies     occupation 
      1      -3.1403      1.00000
      2      -1.2848      1.00000
      3       1.5322      1.00000
      4       3.2993      1.00000
      5       6.9422      0.00000
      6      10.3515      0.00000
      7      11.6182      0.00000
      8      11.6381      0.00000
      9      14.2755      0.00000
     10      14.4104      0.00000
     11      18.6452      0.00000
     12      18.9763      0.00000
     13      19.2986      0.00000
     14      22.5202      0.00000
     15      22.6839      0.00000
     16      23.0047      0.00000

 k-point    14 :      -0.2857    0.2857    0.0000
  band No.  band energies     occupation 
      1      -3.7644      1.00000
      2      -0.5603      1.00000
      3       1.4649      1.00000
      4       3.8284      1.00000
      5       7.5170      0.00000
      6      10.8134      0.00000
      7      11.1516      0.00000
      8      11.8553      0.00000
      9      12.3283      0.00000
     10      13.4240      0.00000
     11      18.5722      0.00000
     12      19.1822      0.00000
     13      19.9398      0.00000
     14      21.7221      0.00000
     15      21.8482      0.00000
     16      22.8858      0.00000

 k-point    15 :       0.4286    0.4286    0.0000
  band No.  band energies     occupation 
      1      -3.2566      1.00000
      2      -1.1275      1.00000
      3       2.7777      1.00000
      4       2.7777      1.00000
      5       6.0894      0.00002
      6       6.6073      0.00000
      7      14.2764      0.00000
      8      14.2764      0.00000
      9      16.5953      0.00000
     10      16.7937      0.00000
     11      17.2907      0.00000
     12      17.2907      0.00000
     13      18.8271      0.00000
     14      19.2388      0.00000
     15      22.3814      0.00000
     16      23.1205      0.00000

 k-point    16 :      -0.4286    0.4286    0.0000
  band No.  band energies     occupation 
      1      -2.3440      1.00000
      2      -2.0551      1.00000
      3       1.9291      1.00000
      4       2.8368      1.00000
      5       6.3889      0.00000
      6       7.6060      0.00000
      7      14.0578      0.00000
      8      14.4274      0.00000
      9      14.7258      0.00000
     10      15.0906      0.00000
     11      18.8267      0.00000
     12      19.0006      0.00000
     13      19.1201      0.00000
     14      19.8890      0.00000
     15      22.2796      0.00000
     16      22.7064      0.00000

 k-point    17 :       0.4286    0.2857    0.1429
  band No.  band energies     occupation 
      1      -4.5922      1.00000
      2       0.5987      1.00000
      3       2.4548      1.00000
      4       3.7265      1.00000
      5       8.0211      0.00000
      6       9.2306      0.00000
      7       9.5374      0.00000
      8      11.4680      0.00000
      9      13.5547      0.00000
     10      16.2003      0.00000
     11      16.5550      0.00000
     12      17.8378      0.00000
     13      18.9634      0.00000
     14      20.6824      0.00000
     15      20.8126      0.00000
     16      23.6648      0.00000

 k-point    18 :      -0.4286    0.2857    0.1429
  band No.  band energies     occupation 
      1      -3.5911      1.00000
      2      -0.8761      1.00000
      3       1.8905      1.00000
      4       3.2151      1.00000
      5       8.4971      0.00000
      6       8.8955      0.00000
      7      10.8317      0.00000
      8      11.9199      0.00000
      9      13.6243      0.00000
     10      15.2532      0.00000
     11      17.4588      0.00000
     12      18.5952      0.00000
     13      19.7028      0.00000
     14      21.1860      0.00000
     15      22.5446      0.00000
     16      23.3447      0.00000

 k-point    19 :      -0.4286    0.4286    0.1429
  band No.  band energies     occupation 
      1      -3.0627      1.00000
      2      -1.2151      1.00000
      3       1.9910      1.00000
      4       2.3907      1.00000
      5       7.6707      0.00000
      6       8.0432      0.00000
      7      11.4769      0.00000
      8      13.9016      0.00000
      9      14.4420      0.00000
     10      16.2652      0.00000
     11      17.6544      0.00000
     12      19.1997      0.00000
     13      19.6865      0.00000
     14      20.6955      0.00000
     15      21.9340      0.00000
     16      22.6266      0.00000

 k-point    20 :      -0.2857    0.4286    0.1429
  band No.  band energies     occupation 
      1      -2.6482      1.00000
      2      -1.5965      1.00000
      3       1.3832      1.00000
      4       2.4778      1.00000
      5       8.1873      0.00000
      6      10.2691      0.00000
      7      10.9591      0.00000
      8      11.1311      0.00000
      9      14.3282      0.00000
     10      15.4884      0.00000
     11      18.3452      0.00000
     12      19.6190      0.00000
     13      20.5026      0.00000
     14      21.6047      0.00000
     15      22.6658      0.00000
     16      23.4939      0.00000


--------------------------------------------------------------------------------------------------------


 soft charge-density along one line, spin component           1
         0         1         2         3         4         5         6         7         8         9
 total charge-density along one line
 
 soft charge-density along one line, spin component           2
         0         1         2         3         4         5         6         7         8         9
 total charge-density along one line
 
 pseudopotential strength for first ion, spin component:           1
 18.457  -0.001  -0.000  -0.000  -0.000   0.000   0.000   0.000
 -0.001   0.006   0.000   0.000   0.000  -0.000  -0.000  -0.000
 -0.000   0.000   4.183  -0.000  -0.000  -0.004   0.000   0.000
 -0.000   0.000  -0.000   4.183  -0.000   0.000  -0.004   0.000
 -0.000   0.000  -0.000  -0.000   4.183   0.000   0.000  -0.004
  0.000  -0.000  -0.004   0.000   0.000   0.005  -0.000  -0.000
  0.000  -0.000   0.000  -0.004   0.000  -0.000   0.005  -0.000
  0.000  -0.000   0.000   0.000  -0.004  -0.000  -0.000   0.005
 pseudopotential strength for first ion, spin component:           2
 18.456  -0.001   0.000   0.000   0.000  -0.000  -0.000  -0.000
 -0.001   0.006  -0.000  -0.000  -0.000   0.000   0.000   0.000
  0.000  -0.000   4.182   0.000   0.000  -0.004  -0.000  -0.000
  0.000  -0.000   0.000   4.182   0.000  -0.000  -0.004  -0.000
  0.000  -0.000   0.000   0.000   4.182  -0.000  -0.000  -0.004
 -0.000   0.000  -0.004  -0.000  -0.000   0.005   0.000   0.000
 -0.000   0.000  -0.000  -0.004  -0.000   0.000   0.005   0.000
 -0.000   0.000  -0.000  -0.000  -0.004   0.000   0.000   0.005
 total augmentation occupancy for first ion, spin component:           1
  1.496  -0.744   0.000  -0.000  -0.000  -0.000  -0.000   0.000
 -0.744   0.718   0.000   0.000  -0.000   0.000  -0.000  -0.000
 -0.000   0.000   1.007  -0.000  -0.000  -0.535  -0.000  -0.000
 -0.000   0.000  -0.000   1.007  -0.000   0.000  -0.535  -0.000
 -0.000  -0.000  -0.000  -0.000   1.007   0.000  -0.000  -0.535
 -0.000   0.000  -0.535   0.000   0.000   0.337  -0.000   0.000
  0.000  -0.000   0.000  -0.535   0.000  -0.000   0.337  -0.000
  0.000  -0.000   0.000  -0.000  -0.535   0.000   0.000   0.337
 total augmentation occupancy for first ion, spin component:           2
  0.000  -0.003   0.000   0.000   0.000   0.000   0.000   0.000
 -0.003   0.003   0.000   0.000   0.000   0.000   0.000   0.000
  0.000   0.000   0.000   0.000   0.000  -0.001   0.000   0.000
  0.000   0.000   0.000   0.000   0.000   0.000  -0.001   0.000
  0.000   0.000   0.000   0.000   0.000   0.000   0.000  -0.001
  0.000   0.000  -0.001   0.000   0.000   0.001   0.000   0.000
  0.000   0.000   0.000  -0.001   0.000   0.000   0.001   0.000
  0.000   0.000   0.000   0.000  -0.001   0.000   0.000   0.001


------------------------ aborting loop because EDIFF is reached ----------------------------------------





 total charge

# of ion       s       p       d       tot
------------------------------------------
    1        0.750   0.918   0.000   1.668
    2        0.750   0.918   0.000   1.668
--------------------------------------------------
tot          1.500   1.836   0.000   3.336



 magnetization (x)

# of ion       s       p       d       tot
------------------------------------------
    1        0.000   0.000   0.000   0.000
    2        0.000   0.000   0.000   0.000
--------------------------------------------------
tot          0.000   0.000   0.000   0.000
 
    CHARGE:  cpu time      0.0120: real time      0.0215
    FORLOC:  cpu time      0.0003: real time      0.0010
    FORNL :  cpu time      0.0322: real time      0.0637
    STRESS:  cpu time      0.0991: real time      0.1967
    FORCOR:  cpu time      0.0081: real time      0.0161
    FORHAR:  cpu time      0.0010: real time      0.0020
    MIXING:  cpu time      0.0006: real time      0.0011
    OFIELD:  cpu time      0.0001: real time      0.0003

  FORCE on cell =-STRESS in cart. coord.  units (eV):
  Direction    XX          YY          ZZ          XY          YZ          ZX
  --------------------------------------------------------------------------------------
  Alpha Z     3.23732     3.23732     3.23732
  Ewald     -75.21821   -75.21821   -75.21821    -0.00000     0.00000    -0.00000
  Hartree     5.13471     5.13471     5.13471     0.00000     0.00000     0.00000
  E(xc)     -25.15148   -25.15148   -25.15148     0.00000     0.00000     0.00000
  Local     -29.76529   -29.76529   -29.76529     0.00000     0.00000     0.00000
  n-local    78.34676    79.33927    73.66543     2.21734    -1.12890     0.61938
  augment   -11.63275   -11.63275   -11.63275    -0.00000    -0.00000    -0.00000
  Kinetic    57.88471    55.85427    53.95378     3.52881    -0.85898     0.97427
  Fock        0.00000     0.00000     0.00000     0.00000     0.00000     0.00000
  -------------------------------------------------------------------------------------
  Total      -0.38096    -0.38096    -0.38096    -0.00000    -0.00000     0.00000
  in kB     -14.67460   -14.67460   -14.67460    -0.00000    -0.00000     0.00000
  external pressure =      -14.67 kB  Pullay stress =        0.00 kB


 VOLUME and BASIS-vectors are now :
 -----------------------------------------------------------------------------
  energy-cutoff  :      520.00
  volume of cell :       41.59
      direct lattice vectors                 reciprocal lattice vectors
     0.000000000  2.750000000  2.750000000    -0.181818182  0.181818182  0.181818182
     2.750000000  0.000000000  2.750000000     0.181818182 -0.181818182  0.181818182
     2.750000000  2.750000000  0.000000000     0.181818182  0.181818182 -0.181818182

  length of vectors
     3.889087297  3.889087297  3.889087297     0.314918329  0.314918329  0.314918329


 FORCES acting on ions
    electron-ion (+dipol)            ewald-force                    non-local-force                 convergence-correction
 -----------------------------------------------------------------------------------------------
   0.217E-07 0.217E-07 0.241E-07   0.862E-15 -.929E-15 -.546E-16   -.101E-15 -.555E-16 0.173E-16   0.702E-09 0.702E-09 0.702E-09
   -.217E-07 -.217E-07 -.241E-07   -.102E-14 0.256E-15 -.355E-15   0.625E-16 -.347E-17 -.416E-16   -.702E-09 -.702E-09 -.702E-09
 -----------------------------------------------------------------------------------------------
   -.129E-12 0.986E-13 0.951E-13   -.158E-15 -.674E-15 -.410E-15   -.382E-16 -.590E-16 -.243E-16   -.749E-15 -.273E-15 0.770E-15
 
 
 POSITION                                       TOTAL-FORCE (eV/Angst)
 -----------------------------------------------------------------------------------
      0.68750      0.68750      0.68750         0.000000     -0.000000     -0.000000
      4.81250      4.81250      4.81250        -0.000000      0.000000      0.000000
 -----------------------------------------------------------------------------------
    total drift:                               -0.000000      0.000000      0.000000


--------------------------------------------------------------------------------------------------------



  FREE ENERGIE OF THE ION-ELECTRON SYSTEM (eV)
  ---------------------------------------------------
  free  energy   TOTEN  =       -10.83820748 eV

  energy  without entropy=      -10.83820707  energy(sigma->0) =      -10.83820728
 


--------------------------------------------------------------------------------------------------------


    POTLOK:  cpu time      0.1881: real time      0.3801


--------------------------------------------------------------------------------------------------------




--------------------------------------------------------------------------------------------------------


    WAVPRE:  cpu time      0.0021: real time      0.0050
    FEWALD:  cpu time      0.0004: real time      0.0009
    GENKIN:  cpu time      0.0031: real time      0.0061

 real space projection operators:
  total allocation   :        598.00 KBytes
  max/ min on nodes  :         88.00         40.62
[...]

 k-point    13 :      -0.4286    0.2857    0.0000
  band No.  band energies     occupation 
      1      -2.9648      1.00000
      2      -1.0886      1.00000
      3       1.6951      1.00000
      4       3.5175      1.00000
      5       7.1900      0.00000
      6      10.6577      0.00000
      7      11.9792      0.00000
      8      12.0386      0.00000
      9      14.7285      0.00000
     10      14.7562      0.00000
     11      19.0697      0.00000
     12      19.4196      0.00000
     13      19.9102      0.00000
     14      23.0401      0.00000
     15      23.2004      0.00000
     16      23.5885      0.00000

 k-point    14 :      -0.2857    0.2857    0.0000
  band No.  band energies     occupation 
      1      -3.6089      1.00000
      2      -0.3439      1.00000
      3       1.6223      1.00000
      4       4.0617      1.00000
      5       7.7902      0.00000
      6      11.1583      0.00000
      7      11.4937      0.00000
      8      12.2943      0.00000
      9      12.6031      0.00000
     10      13.8339      0.00000
     11      19.0051      0.00000
     12      19.6250      0.00000
     13      20.5117      0.00000
     14      22.1979      0.00000
     15      22.4393      0.00000
     16      23.4563      0.00000

 k-point    15 :       0.4286    0.4286    0.0000
  band No.  band energies     occupation 
      1      -3.0945      1.00000
      2      -0.9124      1.00000
      3       2.9817      1.00000
      4       2.9817      1.00000
      5       6.3170      0.00006
      6       6.8331      0.00000
      7      14.7158      0.00000
      8      14.7158      0.00000
      9      16.9504      0.00000
     10      17.4073      0.00000
     11      17.7203      0.00000
     12      17.7203      0.00000
     13      19.4167      0.00000
     14      19.6459      0.00000
     15      22.8473      0.00000
     16      23.6249      0.00000

 k-point    16 :      -0.4286    0.4286    0.0000
  band No.  band energies     occupation 
      1      -2.1533      1.00000
      2      -1.8643      1.00000
      3       2.0987      1.00000
      4       3.0427      1.00000
      5       6.6179      0.00000
      6       7.8674      0.00000
      7      14.4948      0.00000
      8      14.9284      0.00000
      9      15.1331      0.00000
     10      15.4251      0.00000
     11      19.4081      0.00000
     12      19.4450      0.00000
     13      19.5779      0.00000
     14      20.4700      0.00000
     15      22.7668      0.00000
     16      23.1983      0.00000

 k-point    17 :       0.4286    0.2857    0.1429
  band No.  band energies     occupation 
      1      -4.4620      1.00000
      2       0.8421      1.00000
      3       2.6428      1.00000
      4       3.9548      1.00000
      5       8.3060      0.00000
      6       9.5525      0.00000
      7       9.8485      0.00000
      8      11.8363      0.00000
      9      13.9393      0.00000
     10      16.6480      0.00000
     11      17.0584      0.00000
     12      18.2265      0.00000
     13      19.4144      0.00000
     14      21.1561      0.00000
     15      21.3188      0.00000
     16      24.2212      0.00000

 k-point    18 :      -0.4286    0.2857    0.1429
  band No.  band energies     occupation 
      1      -3.4299      1.00000
      2      -0.6765      1.00000
      3       2.0732      1.00000
      4       3.4241      1.00000
      5       8.7895      0.00000
      6       9.1994      0.00000
      7      11.1743      0.00000
      8      12.2879      0.00000
      9      14.0203      0.00000
     10      15.6664      0.00000
     11      17.8754      0.00000
     12      19.0926      0.00000
     13      20.2450      0.00000
     14      21.6755      0.00000
     15      23.1252      0.00000
     16      23.8958      0.00000

 k-point    19 :      -0.4286    0.4286    0.1429
  band No.  band energies     occupation 
      1      -2.8921      1.00000
      2      -0.9988      1.00000
      3       2.1644      1.00000
      4       2.5724      1.00000
      5       7.9395      0.00000
      6       8.3083      0.00000
      7      11.8474      0.00000
      8      14.3461      0.00000
      9      14.8239      0.00000
     10      16.7223      0.00000
     11      18.1247      0.00000
     12      19.7032      0.00000
     13      20.2339      0.00000
     14      21.1379      0.00000
     15      22.4406      0.00000
     16      23.1784      0.00000

 k-point    20 :      -0.2857    0.4286    0.1429
  band No.  band energies     occupation 
      1      -2.4604      1.00000
      2      -1.3922      1.00000
      3       1.5325      1.00000
      4       2.6632      1.00000
      5       8.4635      0.00000
      6      10.5594      0.00000
      7      11.3401      0.00000
      8      11.4871      0.00000
      9      14.7507      0.00000
     10      15.9172      0.00000
     11      18.8477      0.00000
     12      20.1349      0.00000
     13      20.9598      0.00000
     14      22.0875      0.00000
     15      23.2576      0.00000
     16      24.0740      0.00000


--------------------------------------------------------------------------------------------------------


 soft charge-density along one line, spin component           1
         0         1         2         3         4         5         6         7         8         9
 total charge-density along one line
 
 soft charge-density along one line, spin component           2
         0         1         2         3         4         5         6         7         8         9
 total charge-density along one line
 
 pseudopotential strength for first ion, spin component:           1
 18.425  -0.001   0.000   0.000   0.000  -0.000  -0.000  -0.000
 -0.001   0.006  -0.000  -0.000  -0.000   0.000   0.000   0.000
  0.000  -0.000   4.179  -0.000  -0.000  -0.005   0.000   0.000
  0.000  -0.000  -0.000   4.179  -0.000   0.000  -0.005   0.000
  0.000  -0.000  -0.000  -0.000   4.179   0.000   0.000  -0.005
 -0.000   0.000  -0.005   0.000   0.000   0.005  -0.000  -0.000
 -0.000   0.000   0.000  -0.005   0.000  -0.000   0.005  -0.000
 -0.000   0.000   0.000   0.000  -0.005  -0.000  -0.000   0.005
 pseudopotential strength for first ion, spin component:           2
 18.424  -0.001   0.000   0.000   0.000  -0.000  -0.000  -0.000
 -0.001   0.006  -0.000  -0.000  -0.000   0.000   0.000   0.000
  0.000  -0.000   4.179  -0.000  -0.000  -0.005   0.000   0.000
  0.000  -0.000  -0.000   4.179  -0.000   0.000  -0.005   0.000
  0.000  -0.000  -0.000  -0.000   4.179   0.000   0.000  -0.005
 -0.000   0.000  -0.005   0.000   0.000   0.005  -0.000  -0.000
 -0.000   0.000   0.000  -0.005   0.000  -0.000   0.005  -0.000
 -0.000   0.000   0.000   0.000  -0.005  -0.000  -0.000   0.005
 total augmentation occupancy for first ion, spin component:           1
  1.490  -0.784  -0.000   0.000   0.000   0.000  -0.000   0.000
 -0.784   0.772  -0.000  -0.000  -0.000  -0.000   0.000  -0.000
 -0.000  -0.000   1.025  -0.000   0.000  -0.558  -0.000   0.000
  0.000   0.000   0.000   1.025   0.000   0.000  -0.558  -0.000
  0.000   0.000   0.000   0.000   1.025   0.000   0.000  -0.558
 -0.000  -0.000  -0.558   0.000  -0.000   0.360  -0.000  -0.000
 -0.000   0.000  -0.000  -0.558   0.000  -0.000   0.360  -0.000
  0.000   0.000   0.000   0.000  -0.558  -0.000   0.000   0.360
 total augmentation occupancy for first ion, spin component:           2
  0.000  -0.000   0.000   0.000   0.000   0.000   0.000   0.000
 -0.000   0.000   0.000   0.000   0.000   0.000   0.000   0.000
  0.000   0.000   0.000   0.000   0.000   0.000   0.000   0.000
  0.000   0.000   0.000   0.000   0.000   0.000   0.000   0.000
  0.000   0.000   0.000   0.000   0.000   0.000   0.000   0.000
  0.000   0.000   0.000   0.000   0.000  -0.000   0.000   0.000
  0.000   0.000   0.000   0.000   0.000   0.000  -0.000   0.000
  0.000   0.000   0.000   0.000   0.000   0.000   0.000  -0.000


------------------------ aborting loop because EDIFF is reached ----------------------------------------





 total charge

# of ion       s       p       d       tot
------------------------------------------
    1        0.750   0.937   0.000   1.687
    2        0.750   0.937   0.000   1.687
--------------------------------------------------
tot          1.499   1.874   0.000   3.373



 magnetization (x)

# of ion       s       p       d       tot
------------------------------------------
    1       -0.000  -0.000   0.000  -0.000
    2       -0.000  -0.000   0.000  -0.000
--------------------------------------------------
tot         -0.000  -0.000   0.000  -0.000
 
    CHARGE:  cpu time      0.0124: real time      0.0223
    FORLOC:  cpu time      0.0002: real time      0.0008
    FORNL :  cpu time      0.0321: real time      0.0637
    STRESS:  cpu time      0.0968: real time      0.1925
    FORCOR:  cpu time      0.0077: real time      0.0152
    FORHAR:  cpu time      0.0009: real time      0.0018
    MIXING:  cpu time      0.0004: real time      0.0007
    OFIELD:  cpu time      0.0000: real time      0.0000

  FORCE on cell =-STRESS in cart. coord.  units (eV):
  Direction    XX          YY          ZZ          XY          YZ          ZX
  --------------------------------------------------------------------------------------
  Alpha Z     3.32823     3.32823     3.32823
  Ewald     -75.91583   -75.91583   -75.91583     0.00000    -0.00000     0.00000
  Hartree     5.02502     5.02502     5.02502     0.00000     0.00000     0.00000
  E(xc)     -25.31204   -25.31204   -25.31204     0.00000     0.00000     0.00000
  Local     -29.37643   -29.37643   -29.37643     0.00000     0.00000     0.00000
  n-local    78.85803    79.85314    74.14817     2.27365    -1.16351     0.64274
  augment   -11.63720   -11.63720   -11.63720    -0.00000    -0.00000    -0.00000
  Kinetic    58.49350    56.29549    54.78347     3.53031    -0.82256     0.97021
  Fock        0.00000     0.00000     0.00000     0.00000     0.00000     0.00000
  -------------------------------------------------------------------------------------
  Total       0.25569     0.25569     0.25569    -0.00000    -0.00000    -0.00000
  in kB      10.12580    10.12580    10.12580    -0.00000    -0.00000    -0.00000
  external pressure =       10.13 kB  Pullay stress =        0.00 kB


 VOLUME and BASIS-vectors are now :
 -----------------------------------------------------------------------------
  energy-cutoff  :      520.00
  volume of cell :       40.46
      direct lattice vectors                 reciprocal lattice vectors
    -0.000000000  2.724729276  2.724729276    -0.183504469  0.183504469  0.183504469
     2.724729276 -0.000000000  2.724729276     0.183504469 -0.183504469  0.183504469
     2.724729276  2.724729276  0.000000000     0.183504469  0.183504469 -0.183504469

  length of vectors
     3.853349096  3.853349096  3.853349096     0.317839064  0.317839064  0.317839064


 FORCES acting on ions
    electron-ion (+dipol)            ewald-force                    non-local-force                 convergence-correction
 -----------------------------------------------------------------------------------------------
   0.193E-07 0.193E-07 0.210E-07   -.391E-14 -.443E-14 -.422E-14   0.114E-15 0.937E-16 0.660E-16   0.123E-08 0.123E-08 0.123E-08
   -.193E-07 -.193E-07 -.210E-07   0.370E-14 0.440E-14 0.438E-14   -.104E-16 -.347E-16 -.104E-15   -.123E-08 -.123E-08 -.123E-08
 -----------------------------------------------------------------------------------------------
   -.127E-12 0.871E-13 0.935E-13   -.211E-15 -.344E-16 0.163E-15   0.104E-15 0.590E-16 -.382E-16   0.288E-15 -.144E-14 -.481E-15
 
 
 POSITION                                       TOTAL-FORCE (eV/Angst)
 -----------------------------------------------------------------------------------
      0.68118      0.68118      0.68118        -0.000000     -0.000000     -0.000000
      4.76828      4.76828      4.76828         0.000000      0.000000      0.000000
 -----------------------------------------------------------------------------------
    total drift:                               -0.000000      0.000000      0.000000


--------------------------------------------------------------------------------------------------------



  FREE ENERGIE OF THE ION-ELECTRON SYSTEM (eV)
  ---------------------------------------------------
  free  energy   TOTEN  =       -10.84014101 eV

  energy  without entropy=      -10.84013967  energy(sigma->0) =      -10.84014034
 
 d Force = 0.0000000E+00[ 0.000E+00, 0.000E+00]  d Energy = 0.1933523E-02-0.193E-02
 d Force = 0.0000000E+00[ 0.000E+00, 0.000E+00]  d Ewald  = 0.2092851E+01-0.209E+01


--------------------------------------------------------------------------------------------------------


    POTLOK:  cpu time      0.1862: real time      0.3770


--------------------------------------------------------------------------------------------------------


 Steepest descent step on ions:
 trial-energy change:   -0.001934  1 .order   -0.001727   -0.010502    0.007049
  (g-gl).g = 0.105E-01      g.g   = 0.105E-01  gl.gl    = 0.000E+00
 g(Force)  = 0.348E-48   g(Stress)= 0.105E-01 ortho     = 0.000E+00
 gamma     =   0.00000
 trial     =   1.00000
 opt step  =   0.59838  (harmonic =   0.59838) maximal distance =0.00000000
 next E    =   -10.841350   (d E  =  -0.00314)


--------------------------------------------------------------------------------------------------------


    WAVPRE:  cpu time      0.0053: real time      0.0117
    FEWALD:  cpu time      0.0002: real time      0.0006
    GENKIN:  cpu time      0.0032: real time      0.0062

 real space projection operators:
  total allocation   :        598.00 KBytes
  max/ min on nodes  :         88.00         40.62

    ORTHCH:  cpu time      0.0191: real time      0.0386
     LOOP+:  cpu time      1.8925: real time      3.8568


--------------------------------------- Ionic step        3  -------------------------------------------




--------------------------------------- Iteration      3(   1)  ---------------------------------------


    POTLOK:  cpu time      0.0083: real time      0.0166
    SETDIJ:  cpu time      0.1791: real time      0.3594
     EDDAV:  cpu time      0.2319: real time      0.4569
       DOS:  cpu time      0.0007: real time      0.0015
    CHARGE:  cpu time      0.0107: real time      0.0215
    MIXING:  cpu time      0.0003: real time      0.0006
    --------------------------------------------
      LOOP:  cpu time      0.4312: real time      0.8567

 eigenvalue-minimisations  :  1576
 total energy-change (2. order) :-0.2010318E-02  (-0.2074418E-02)
 number of electron       8.0000000 magnetization       0.0000019
 augmentation part       -0.4586252 magnetization      -0.0000102

 Broyden mixing:
  rms(total) = 0.10303E-01    rms(broyden)= 0.10303E-01
  rms(prec ) = 0.37579E-01
  weight for this iteration     100.00

 Free energy of the ion-electron system (eV)
  ---------------------------------------------------
  alpha Z        PSCENC =         3.29131714
  Ewald energy   TEWEN  =      -226.90221125
  -Hartree energ DENC   =       -15.01783142
  -exchange      EXHF   =         0.00000000
  -V(xc)+E(xc)   XCENC  =       -18.06337038
  PAW double counting   =        73.96219429      -38.99042470
  entropy T*S    EENTRO =        -0.00000054
  eigenvalues    EBANDS =         4.74548210
  atomic energy  EATOM  =       206.13270273
  Solvation  Ediel_sol  =         0.00000000
  ---------------------------------------------------
  free energy    TOTEN  =       -10.84214203 eV

  energy without entropy =      -10.84214149  energy(sigma->0) =      -10.84214176


--------------------------------------------------------------------------------------------------------




--------------------------------------- Iteration      3(   2)  ---------------------------------------


    POTLOK:  cpu time      0.0123: real time      0.0374
    SETDIJ:  cpu time      0.1768: real time      0.3580
    EDDIAG:  cpu time      0.0343: real time      0.0672
  RMM-DIIS:  cpu time      0.0608: real time      0.1227
    ORTHCH:  cpu time      0.0095: real time      0.0192
       DOS:  cpu time      0.0007: real time      0.0016
    CHARGE:  cpu time      0.0119: real time      0.0221
    MIXING:  cpu time      0.0004: real time      0.0008
    --------------------------------------------
      LOOP:  cpu time      0.3067: real time      0.6288

 eigenvalue-minimisations  :  1278
 total energy-change (2. order) : 0.4334767E-03  (-0.3792782E-04)
 number of electron       8.0000000 magnetization      -0.0000037
 augmentation part       -0.4583553 magnetization       0.0000035

 Broyden mixing:
  rms(total) = 0.59221E-02    rms(broyden)= 0.59221E-02
  rms(prec ) = 0.21199E-01
  weight for this iteration     100.00

 eigenvalues of (default mixing * dielectric matrix)
  average eigenvalue GAMMA=   2.0666
  2.0666

 Free energy of the ion-electron system (eV)
  ---------------------------------------------------
  alpha Z        PSCENC =         3.29131714
  Ewald energy   TEWEN  =      -226.90221125
  -Hartree energ DENC   =       -15.10044045
  -exchange      EXHF   =         0.00000000
  -V(xc)+E(xc)   XCENC  =       -18.06052674
  PAW double counting   =        73.86170994      -38.88755742
  entropy T*S    EENTRO =        -0.00000066
  eigenvalues    EBANDS =         4.82329815
  atomic energy  EATOM  =       206.13270273
  Solvation  Ediel_sol  =         0.00000000
  ---------------------------------------------------
  free energy    TOTEN  =       -10.84170856 eV

  energy without entropy =      -10.84170790  energy(sigma->0) =      -10.84170823


--------------------------------------------------------------------------------------------------------




--------------------------------------- Iteration      3(   3)  ---------------------------------------


    POTLOK:  cpu time      0.0125: real time      0.0363
    SETDIJ:  cpu time      0.1735: real time      0.3563
    EDDIAG:  cpu time      0.0328: real time      0.0658
  RMM-DIIS:  cpu time      0.0609: real time      0.1228
    ORTHCH:  cpu time      0.0095: real time      0.0192
       DOS:  cpu time      0.0007: real time      0.0015
    CHARGE:  cpu time      0.0121: real time      0.0217
    MIXING:  cpu time      0.0005: real time      0.0009
    --------------------------------------------
      LOOP:  cpu time      0.3025: real time      0.6245

 eigenvalue-minimisations  :  1252
 total energy-change (2. order) : 0.2292781E-03  (-0.1884038E-04)
 number of electron       8.0000000 magnetization       0.0000013
 augmentation part       -0.4578554 magnetization      -0.0000200

 Broyden mixing:
  rms(total) = 0.10815E-02    rms(broyden)= 0.10815E-02
  rms(prec ) = 0.20286E-02
  weight for this iteration     100.00

 eigenvalues of (default mixing * dielectric matrix)
  average eigenvalue GAMMA=   1.4964
  0.6603  2.3324

 Free energy of the ion-electron system (eV)
  ---------------------------------------------------
  alpha Z        PSCENC =         3.29131714
  Ewald energy   TEWEN  =      -226.90221125
  -Hartree energ DENC   =       -15.20164018
  -exchange      EXHF   =         0.00000000
  -V(xc)+E(xc)   XCENC  =       -18.05875396
  PAW double counting   =        73.67358848      -38.69489143
  entropy T*S    EENTRO =        -0.00000085
  eigenvalues    EBANDS =         4.91841004
  atomic energy  EATOM  =       206.13270273
  Solvation  Ediel_sol  =         0.00000000
  ---------------------------------------------------
  free energy    TOTEN  =       -10.84147928 eV

  energy without entropy =      -10.84147843  energy(sigma->0) =      -10.84147886


--------------------------------------------------------------------------------------------------------




--------------------------------------- Iteration      3(   4)  ---------------------------------------


    POTLOK:  cpu time      0.0121: real time      0.0350

