<?xml version="1.0" encoding="ISO-8859-1"?>
<modeling>
 <generator>
  <i name="program" type="string">vasp </i>
  <i name="version" type="string">6.4.2  </i>
  <i name="subversion" type="string">20Jul23 (build Oct 18 2023 14:14:43) complex                          parallel </i>
  <i name="platform" type="string">LinuxIFC </i>
  <i name="date" type="string">2024 05 09 </i>
  <i name="time" type="string">11:39:43 </i>
 </generator>
 <incar>
  <i type="string" name="PREC">Accurate</i>
  <i type="string" name="ALGO">Fast</i>
  <i type="int" name="ISPIN">     2</i>
  <i type="int" name="NELM">   100</i>
  <i type="int" name="IBRION">     2</i>
  <i name="EDIFF">      0.00010000</i>
  <i type="int" name="NSW">    99</i>
  <i type="int" name="ISIF">     3</i>
  <i name="ENCUT">    520.00000000</i>
  <v name="MAGMOM">      0.60000000      0.60000000</v>
  <i type="string" name="LREAL">Auto</i>
  <i type="int" name="ISMEAR">     0</i>
  <i name="SIGMA">      0.11151019</i>
  <i type="logical" name="LWAVE"> F  </i>
  <i type="logical" name="LCHARG"> F  </i>
  <i type="int" name="LORBIT">    11</i>
  <i type="logical" name="LASPH"> T  </i>
 </incar>
 <primitive_cell>
  <structure name="primitive_cell" >
   <crystal>
    <varray name="basis" >
     <v>       0.00000000       2.75000000       2.75000000 </v>
     <v>       2.75000000       0.00000000       2.75000000 </v>
     <v>       2.75000000       2.75000000       0.00000000 </v>
    </varray>
    <i name="volume">     41.59375000 </i>
    <varray name="rec_basis" >
     <v>      -0.18181818       0.18181818       0.18181818 </v>
     <v>       0.18181818      -0.18181818       0.18181818 </v>
     <v>       0.18181818       0.18181818      -0.18181818 </v>
    </varray>
   </crystal>
   <varray name="positions" >
    <v>       0.12500000       0.12500000       0.12500000 </v>
    <v>       0.87500000       0.87500000       0.87500000 </v>
   </varray>
  </structure>
  <varray name="primitive_index" >
   <v type="int" >        1 </v>
   <v type="int" >        2 </v>
  </varray>
 </primitive_cell>
 <kpoints>
  <generation param="Gamma">
   <v type="int" name="divisions">       7        7        7 </v>
   <v name="usershift">      0.00000000       0.00000000       0.00000000 </v>
   <v name="genvec1">      0.14285714       0.00000000       0.00000000 </v>
   <v name="genvec2">      0.00000000       0.14285714       0.00000000 </v>
   <v name="genvec3">      0.00000000       0.00000000       0.14285714 </v>
   <v name="shift">      0.00000000       0.00000000       0.00000000 </v>
  </generation>
  <varray name="kpointlist" >
   <v>       0.00000000       0.00000000       0.00000000 </v>
   <v>       0.14285714       0.00000000       0.00000000 </v>
   <v>       0.28571429       0.00000000       0.00000000 </v>
   <v>       0.42857143       0.00000000       0.00000000 </v>
   <v>       0.14285714       0.14285714       0.00000000 </v>
   <v>       0.28571429       0.14285714       0.00000000 </v>
   <v>       0.42857143       0.14285714       0.00000000 </v>
   <v>      -0.42857143       0.14285714       0.00000000 </v>
   <v>      -0.28571429       0.14285714       0.00000000 </v>
   <v>      -0.14285714       0.14285714       0.00000000 </v>
   <v>       0.28571429       0.28571429       0.00000000 </v>
   <v>       0.42857143       0.28571429       0.00000000 </v>
   <v>      -0.42857143       0.28571429       0.00000000 </v>
   <v>      -0.28571429       0.28571429       0.00000000 </v>
   <v>       0.42857143       0.42857143       0.00000000 </v>
   <v>      -0.42857143       0.42857143       0.00000000 </v>
   <v>       0.42857143       0.28571429       0.14285714 </v>
   <v>      -0.42857143       0.28571429       0.14285714 </v>
   <v>      -0.42857143       0.42857143       0.14285714 </v>
   <v>      -0.28571429       0.42857143       0.14285714 </v>
  </varray>
  <varray name="weights" >
   <v>       0.00291545 </v>
   <v>       0.02332362 </v>
   <v>       0.02332362 </v>
   <v>       0.02332362 </v>
   <v>       0.01749271 </v>
   <v>       0.06997085 </v>
   <v>       0.06997085 </v>
   <v>       0.06997085 </v>
   <v>       0.06997085 </v>
   <v>       0.03498542 </v>
   <v>       0.01749271 </v>
   <v>       0.06997085 </v>
   <v>       0.06997085 </v>
   <v>       0.03498542 </v>
   <v>       0.01749271 </v>
   <v>       0.03498542 </v>
   <v>       0.06997085 </v>
   <v>       0.13994169 </v>
   <v>       0.06997085 </v>
   <v>       0.06997085 </v>
  </varray>
 </kpoints>
 <parameters>
  <separator name="general" >
   <i type="string" name="SYSTEM">unknown system</i>
   <i type="logical" name="LCOMPAT"> F  </i>
  </separator>
  <separator name="electronic" >
   <i type="string" name="PREC">accura</i>
   <i name="ENMAX">    520.00000000</i>
   <i name="ENAUG">    322.06900000</i>
   <i name="EDIFF">      0.00010000</i>
   <i type="int" name="IALGO">    68</i>
   <i type="int" name="IWAVPR">    11</i>
   <i type="int" name="NBANDS">    16</i>
   <i type="int" name="NBANDSLOW">    -1</i>
   <i type="int" name="NBANDSHIGH">    -1</i>
   <i name="NELECT">      8.00000000</i>
   <i type="int" name="TURBO">     0</i>
   <i type="int" name="IRESTART">     0</i>
   <i type="int" name="NREBOOT">     0</i>
   <i type="int" name="NMIN">     0</i>
   <i name="EREF">      0.00000000</i>
   <separator name="electronic smearing" >
    <i type="int" name="ISMEAR">     0</i>
    <i name="SIGMA">      0.11151019</i>
    <i name="KSPACING">      0.50000000</i>
    <i type="logical" name="KGAMMA"> T  </i>
    <i type="logical" name="KBLOWUP"> T  </i>
   </separator>
   <separator name="electronic projectors" >
    <i type="logical" name="LREAL"> T  </i>
    <v name="ROPT">     -0.00025000</v>
    <i type="int" name="LMAXPAW">  -100</i>
    <i type="int" name="LMAXMIX">     2</i>
    <i type="logical" name="NLSPLINE"> F  </i>
   </separator>
   <separator name="electronic startup" >
    <i type="int" name="ISTART">     0</i>
    <i type="int" name="ICHARG">     2</i>
    <i type="int" name="INIWAV">     1</i>
   </separator>
   <separator name="electronic spin" >
    <i type="int" name="ISPIN">     2</i>
    <i type="logical" name="LNONCOLLINEAR"> F  </i>
    <v name="MAGMOM">      0.60000000      0.60000000</v>
    <i name="NUPDOWN">     -1.00000000</i>
    <i type="logical" name="LSORBIT"> F  </i>
    <v name="SAXIS">      0.00000000      0.00000000      1.00000000</v>
    <i type="logical" name="LSPIRAL"> F  </i>
    <v name="QSPIRAL">      0.00000000      0.00000000      0.00000000</v>
    <i type="logical" name="LZEROZ"> F  </i>
   </separator>
   <separator name="electronic exchange-correlation" >
    <i type="logical" name="LASPH"> T  </i>
    <i type="logical" name="LMETAGGA"> F  </i>
   </separator>
   <separator name="electronic convergence" >
    <i type="int" name="NELM">   100</i>
    <i type="int" name="NELMDL">     0</i>
    <i type="int" name="NELMIN">     2</i>
    <i name="ENINI">    520.00000000</i>
    <separator name="electronic convergence detail" >
     <i type="logical" name="LDIAG"> T  </i>
     <i type="logical" name="LSUBROT"> F  </i>
     <i name="WEIMIN">      0.00100000</i>
     <i name="EBREAK">      0.00000156</i>
     <i name="DEPER">      0.30000000</i>
     <i type="int" name="NRMM">     4</i>
     <i name="TIME">      0.40000000</i>
    </separator>
   </separator>
   <separator name="electronic mixer" >
    <i name="AMIX">      0.40000000</i>
    <i name="BMIX">      1.00000000</i>
    <i name="AMIN">      0.10000000</i>
    <i name="AMIX_MAG">      1.60000000</i>
    <i name="BMIX_MAG">      1.00000000</i>
    <separator name="electronic mixer details" >
     <i type="int" name="IMIX">     4</i>
     <i type="logical" name="MIXFIRST"> F  </i>
     <i type="int" name="MAXMIX">   -45</i>
     <i name="WC">    100.00000000</i>
     <i type="int" name="INIMIX">     1</i>
     <i type="int" name="MIXPRE">     1</i>
     <i type="int" name="MREMOVE">     5</i>
    </separator>
   </separator>
   <separator name="electronic dipolcorrection" >
    <i type="logical" name="LDIPOL"> F  </i>
    <i type="logical" name="LMONO"> F  </i>
    <i type="int" name="IDIPOL">     0</i>
    <i name="EPSILON">      1.00000000</i>
    <v name="DIPOL">   -100.00000000   -100.00000000   -100.00000000</v>
    <i name="EFIELD">      0.00000000</i>
   </separator>
  </separator>
  <separator name="grids" >
   <i type="int" name="NGX">    30</i>
   <i type="int" name="NGY">    30</i>
   <i type="int" name="NGZ">    30</i>
   <i type="int" name="NGXF">    60</i>
   <i type="int" name="NGYF">    60</i>
   <i type="int" name="NGZF">    60</i>
   <i type="logical" name="ADDGRID"> F  </i>
  </separator>
  <separator name="ionic" >
   <i type="int" name="NSW">    99</i>
   <i type="int" name="IBRION">     2</i>
   <i type="int" name="MDALGO">     0</i>
   <i type="int" name="ISIF">     3</i>
   <i name="PSTRESS">      0.00000000</i>
   <i name="EDIFFG">      0.00100000</i>
   <i type="int" name="NFREE">     1</i>
   <i name="POTIM">      0.50000000</i>
   <i name="SMASS">     -3.00000000</i>
   <i name="SCALEE">      1.00000000</i>
  </separator>
  <separator name="ionic md" >
   <i name="TEBEG">      0.00010000</i>
   <i name="TEEND">      0.00010000</i>
   <i type="int" name="NBLOCK">     1</i>
   <i type="int" name="KBLOCK">    99</i>
   <i type="int" name="NPACO">   256</i>
   <i name="APACO">     10.00000000</i>
  </separator>
  <separator name="symmetry" >
   <i type="int" name="ISYM">     2</i>
   <i name="SYMPREC">      0.00001000</i>
  </separator>
  <separator name="dos" >
   <i type="int" name="LORBIT">    11</i>
   <v name="RWIGS">     -1.00000000</v>
   <i type="int" name="NEDOS">   301</i>
   <i name="EMIN">     10.00000000</i>
   <i name="EMAX">    -10.00000000</i>
   <i name="EFERMI">      0.00000000</i>
  </separator>
  <separator name="writing" >
   <i type="int" name="NWRITE">     2</i>
   <i type="logical" name="LWAVE"> F  </i>
   <i type="logical" name="LDOWNSAMPLE"> F  </i>
   <i type="logical" name="LCHARG"> F  </i>
   <i type="logical" name="LPARD"> F  </i>
   <i type="logical" name="LVTOT"> F  </i>
   <i type="logical" name="LVHAR"> F  </i>
   <i type="logical" name="LELF"> F  </i>
   <i type="logical" name="LOPTICS"> F  </i>
   <v name="STM">      0.00000000      0.00000000      0.00000000      0.00000000      0.00000000      0.00000000      0.00000000</v>
  </separator>
  <separator name="performance" >
   <i type="int" name="NPAR">     8</i>
   <i type="int" name="NSIM">     4</i>
   <i type="int" name="NBLK">    -1</i>
   <i type="logical" name="LPLANE"> T  </i>
   <i type="logical" name="LSCALAPACK"> F  </i>
   <i type="logical" name="LSCAAWARE"> F  </i>
   <i type="logical" name="LSCALU"> F  </i>
   <i type="logical" name="LASYNC"> F  </i>
   <i type="logical" name="LORBITALREAL"> F  </i>
  </separator>
  <separator name="miscellaneous" >
   <i type="int" name="IDIOT">     3</i>
   <i type="int" name="PHON_NSTRUCT">    -1</i>
   <i type="logical" name="LMUSIC"> F  </i>
   <v name="POMASS">     28.08500000</v>
   <v name="DARWINR">      0.00000000</v>
   <v name="DARWINV">      1.00000000</v>
   <i type="logical" name="LCORR"> T  </i>
  </separator>
  <i type="logical" name="GGA_COMPAT"> T  </i>
  <i type="logical" name="LBERRY"> F  </i>
  <i type="int" name="ICORELEVEL">     0</i>
  <i type="logical" name="LDAU"> F  </i>
  <i type="int" name="I_CONSTRAINED_M">     0</i>
  <separator name="electronic exchange-correlation" >
   <i type="string" name="GGA">--</i>
   <i type="int" name="VOSKOWN">     0</i>
   <i type="logical" name="LHFCALC"> F  </i>
   <i type="string" name="PRECFOCK"></i>
   <i type="logical" name="LSYMGRAD"> F  </i>
   <i type="logical" name="LHFONE"> F  </i>
   <i type="logical" name="LRHFCALC"> F  </i>
   <i type="logical" name="LTHOMAS"> F  </i>
   <i type="logical" name="LMODELHF"> F  </i>
   <i type="logical" name="LFOCKACE"> F  </i>
   <i name="ENCUT4O">     -1.00000000</i>
   <i type="int" name="EXXOEP">     0</i>
   <i type="int" name="FOURORBIT">     0</i>
   <i name="AEXX">      0.00000000</i>
   <i name="HFALPHA">      0.00000000</i>
   <i name="MCALPHA">      0.00000000</i>
   <i name="ALDAX">      1.00000000</i>
   <i name="AGGAX">      1.00000000</i>
   <i name="ALDAC">      1.00000000</i>
   <i name="AGGAC">      1.00000000</i>
   <i type="int" name="NKREDX">     1</i>
   <i type="int" name="NKREDY">     1</i>
   <i type="int" name="NKREDZ">     1</i>
   <i type="logical" name="SHIFTRED"> F  </i>
   <i type="logical" name="ODDONLY"> F  </i>
   <i type="logical" name="EVENONLY"> F  </i>
   <i type="int" name="LMAXFOCK">     0</i>
   <i type="int" name="NMAXFOCKAE">     0</i>
   <i type="logical" name="LFOCKAEDFT"> F  </i>
   <i name="HFSCREEN">      0.00000000</i>
   <i name="HFSCREENC">      0.00000000</i>
   <i type="int" name="NBANDSGWLOW">     0</i>
  </separator>
  <separator name="vdW DFT" >
   <i type="logical" name="LUSE_VDW"> F  </i>
   <i type="int" name="IVDW_NL">     1</i>
   <i type="logical" name="LSPIN_VDW"> F  </i>
   <i name="Zab_VDW">     -0.84910000</i>
   <i name="PARAM1">      0.12340000</i>
   <i name="PARAM2">      1.00000000</i>
   <i name="PARAM3">      0.00000000</i>
  </separator>
  <separator name="model GW" >
   <i type="int" name="MODEL_GW">     0</i>
   <i name="MODEL_EPS0">     12.47812500</i>
   <i name="MODEL_ALPHA">      1.00000000</i>
  </separator>
  <separator name="linear response parameters" >
   <i type="logical" name="LEPSILON"> F  </i>
   <i type="logical" name="LRPA"> F  </i>
   <i type="logical" name="LNABLA"> F  </i>
   <i type="logical" name="LVEL"> F  </i>
   <i name="CSHIFT">      0.10000000</i>
   <i name="OMEGAMAX">     -1.00000000</i>
   <i name="DEG_THRESHOLD">      0.00200000</i>
   <i name="RTIME">     -0.10000000</i>
   <i name="WPLASMAI">      0.00000000</i>
   <v name="DFIELD">      0.00000000      0.00000000      0.00000000</v>
   <v name="WPLASMA">      0.00000000      0.00000000      0.00000000      0.00000000      0.00000000      0.00000000      0.00000000      0.00000000      0.00000000</v>
  </separator>
  <separator name="orbital magnetization" >
   <i type="logical" name="NUCIND"> F  </i>
   <v name="MAGPOS">      0.00000000      0.00000000      0.00000000</v>
   <i type="logical" name="LNICSALL"> T  </i>
   <i type="logical" name="ORBITALMAG"> F  </i>
   <i type="logical" name="LMAGBLOCH"> F  </i>
   <i type="logical" name="LCHIMAG"> F  </i>
   <i type="logical" name="LGAUGE"> T  </i>
   <i type="int" name="MAGATOM">     0</i>
   <v name="MAGDIPOL">      0.00000000      0.00000000      0.00000000</v>
   <v name="AVECCONST">      0.00000000      0.00000000      0.00000000</v>
  </separator>
  <separator name="response functions" >
   <i type="logical" name="LALL_IN_ONE"> F  </i>
   <i type="int" name="IALL_IN_ONE">    -1</i>
   <i type="int" name="NBANDS_WAVE">    -1</i>
   <i type="logical" name="LFINITE_TEMPERATURE"> F  </i>
   <i type="logical" name="LADDER"> F  </i>
   <i type="logical" name="LRPAFORCE"> F  </i>
   <i type="logical" name="LFXC"> F  </i>
   <i type="logical" name="LHARTREE"> T  </i>
   <i type="int" name="IBSE">     0</i>
   <v type="int" name="KPOINT">    -1     0     0     0</v>
   <i type="logical" name="LTCTC"> F  </i>
   <i type="logical" name="LTCTE"> F  </i>
   <i type="logical" name="LTETE"> F  </i>
   <i type="logical" name="LTRIPLET"> F  </i>
   <i type="logical" name="LFXCEPS"> F  </i>
   <i type="logical" name="LFXHEG"> F  </i>
   <i type="int" name="NATURALO">     2</i>
   <i type="logical" name="LHOLEGF"> F  </i>
   <i type="logical" name="L2ORDER"> F  </i>
   <i type="logical" name="LDMP1"> F  </i>
   <i type="logical" name="LMP2LT"> F  </i>
   <i type="logical" name="LSMP2LT"> F  </i>
   <i type="logical" name="LGWLF"> F  </i>
   <i name="ENCUTGW">     -1.60000002</i>
   <i name="ENCUTGWSOFT">     -1.60000002</i>
   <i name="ENCUTLF">     -1.00000000</i>
   <i type="logical" name="LESF_SPLINES"> F  </i>
   <i type="int" name="LMAXMP2">    -1</i>
   <i name="SCISSOR">      0.00000000</i>
   <i type="int" name="NOMEGA">     0</i>
   <i type="int" name="NOMEGAR">     0</i>
   <i type="int" name="NBANDSGW">    -1</i>
   <i type="int" name="NBANDSO">    -1</i>
   <i type="int" name="NBANDSV">    -1</i>
   <i type="int" name="NELMGW">     1</i>
   <i type="int" name="NELMHF">     1</i>
   <i type="int" name="DIM">     3</i>
   <i type="int" name="IESPILON">     4</i>
   <i type="int" name="ANTIRES">     0</i>
   <i name="OMEGAMAX">    -30.00000000</i>
   <i name="OMEGAMIN">    -30.00000000</i>
   <i name="OMEGATL">   -200.00000000</i>
   <i type="int" name="OMEGAGRID">     0</i>
   <i name="CSHIFT">     -0.10000000</i>
   <i type="logical" name="LSELFENERGY"> F  </i>
   <i type="logical" name="LSPECTRAL"> F  </i>
   <i type="logical" name="LSPECTRALGW"> F  </i>
   <i type="logical" name="LSINGLES"> F  </i>
   <i type="logical" name="LFERMIGW"> F  </i>
   <i type="logical" name="ODDONLYGW"> F  </i>
   <i type="logical" name="EVENONLYGW"> F  </i>
   <i type="int" name="NKREDLFX">     1</i>
   <i type="int" name="NKREDLFY">     1</i>
   <i type="int" name="NKREDLFZ">     1</i>
   <i type="int" name="MAXMEM">  2800</i>
   <i type="int" name="TELESCOPE">     0</i>
   <i type="int" name="NTAUPAR">    -1</i>
   <i type="int" name="NOMEGAPAR">    -1</i>
   <i name="DAMP_NEWTON">      0.80000001</i>
   <i name="LAMBDA">      1.00000000</i>
  </separator>
  <separator name="External order field" >
   <i name="OFIELD_KAPPA">      0.00000000</i>
   <v name="OFIELD_K">      0.00000000      0.00000000      0.00000000</v>
   <i name="OFIELD_Q6_NEAR">      0.00000000</i>
   <i name="OFIELD_Q6_FAR">      0.00000000</i>
   <i name="OFIELD_A">      0.00000000</i>
  </separator>
  <separator name="optional k-points parameters" >
   <i type="int" name="KPOINTS_OPT_MODE">     1</i>
   <i type="logical" name="LKPOINTS_OPT"> F  </i>
  </separator>
 </parameters>
 <atominfo>
  <atoms>       2 </atoms>
  <types>       1 </types>
  <array name="atoms" >
   <dimension dim="1">ion</dimension>
   <field type="string">element</field>
   <field type="int">atomtype</field>
   <set>
    <rc><c>Si</c><c>   1</c></rc>
    <rc><c>Si</c><c>   1</c></rc>
   </set>
  </array>
  <array name="atomtypes" >
   <dimension dim="1">type</dimension>
   <field type="int">atomspertype</field>
   <field type="string">element</field>
   <field>mass</field>
   <field>valence</field>
   <field type="string">pseudopotential</field>
   <set>
    <rc><c>   2</c><c>Si</c><c>     28.08500000</c><c>      4.00000000</c><c> PAW_PBE Si 05Jan2001                   </c></rc>
   </set>
  </array>
 </atominfo>
 <structure name="initialpos" >
  <crystal>
   <varray name="basis" >
    <v>       0.00000000       2.75000000       2.75000000 </v>
    <v>       2.75000000       0.00000000       2.75000000 </v>
    <v>       2.75000000       2.75000000       0.00000000 </v>
   </varray>
   <i name="volume">     41.59375000 </i>
   <varray name="rec_basis" >
    <v>      -0.18181818       0.18181818       0.18181818 </v>
    <v>       0.18181818      -0.18181818       0.18181818 </v>
    <v>       0.18181818       0.18181818      -0.18181818 </v>
   </varray>
  </crystal>
  <varray name="positions" >
   <v>       0.12500000       0.12500000       0.12500000 </v>
   <v>       0.87500000       0.87500000       0.87500000 </v>
  </varray>
 </structure>
 <calculation>
  <scstep>
   <time name="dav">    0.21    0.41</time>
   <time name="total">    0.40    0.80</time>
   <energy>
    <i name="alphaZ">      3.23732084 </i>
    <i name="ewald">   -225.65453461 </i>
    <i name="hartreedc">    -11.58535014 </i>
    <i name="XCdc">    -18.67198536 </i>
    <i name="pawpsdc">     65.91709927 </i>
    <i name="pawaedc">    -30.72587073 </i>
    <i name="eentropy">     -0.00275019 </i>
    <i name="bandstr">     16.79588968 </i>
    <i name="atom">    206.13270273 </i>
    <i name="e_fr_energy">      5.44252150 </i>
    <i name="e_wo_entrp">      5.44527168 </i>
    <i name="e_0_energy">      5.44389659 </i>
   </energy>
  </scstep>
  <scstep>
   <time name="dav">    0.27    0.55</time>
   <time name="total">    0.27    0.55</time>
   <energy>
    <i name="e_fr_energy">    -10.39005928 </i>
    <i name="e_wo_entrp">    -10.38968841 </i>
    <i name="e_0_energy">    -10.38987384 </i>
   </energy>
  </scstep>
  <scstep>
   <time name="dav">    0.25    0.49</time>
   <time name="total">    0.25    0.49</time>
   <energy>
    <i name="e_fr_energy">    -10.81065648 </i>
    <i name="e_wo_entrp">    -10.81054622 </i>
    <i name="e_0_energy">    -10.81060135 </i>
   </energy>
  </scstep>
  <scstep>
   <time name="dav">    0.26    0.53</time>
   <time name="total">    0.26    0.53</time>
   <energy>
    <i name="e_fr_energy">    -10.81318480 </i>
    <i name="e_wo_entrp">    -10.81307608 </i>
    <i name="e_0_energy">    -10.81313044 </i>
   </energy>
  </scstep>
  <scstep>
   <time name="dav">    0.23    0.48</time>
   <time name="total">    0.25    0.52</time>
   <energy>
    <i name="e_fr_energy">    -10.81320801 </i>
    <i name="e_wo_entrp">    -10.81309930 </i>
    <i name="e_0_energy">    -10.81315365 </i>
   </energy>
  </scstep>
  <scstep>
   <time name="diag">    0.03    0.07</time>
   <time name="diis">    0.06    0.12</time>
   <time name="orth">    0.01    0.02</time>
   <time name="total">    0.31    0.64</time>
   <energy>
    <i name="e_fr_energy">    -10.87682179 </i>
    <i name="e_wo_entrp">    -10.87682153 </i>
    <i name="e_0_energy">    -10.87682166 </i>
   </energy>
  </scstep>
  <scstep>
   <time name="diag">    0.03    0.07</time>
   <time name="diis">    0.06    0.12</time>
   <time name="orth">    0.01    0.02</time>
   <time name="total">    0.31    0.63</time>
   <energy>
    <i name="e_fr_energy">    -10.82213237 </i>
    <i name="e_wo_entrp">    -10.82212048 </i>
    <i name="e_0_energy">    -10.82212642 </i>
   </energy>
  </scstep>
  <scstep>
   <time name="diag">    0.03    0.07</time>
   <time name="diis">    0.06    0.12</time>
   <time name="orth">    0.01    0.02</time>
   <time name="total">    0.31    0.63</time>
   <energy>
    <i name="e_fr_energy">    -10.83861765 </i>
    <i name="e_wo_entrp">    -10.83861696 </i>
    <i name="e_0_energy">    -10.83861730 </i>
   </energy>
  </scstep>
  <scstep>
   <time name="diag">    0.03    0.07</time>
   <time name="diis">    0.06    0.12</time>
   <time name="orth">    0.01    0.02</time>
   <time name="total">    0.31    0.63</time>
   <energy>
    <i name="e_fr_energy">    -10.83808106 </i>
    <i name="e_wo_entrp">    -10.83808049 </i>
    <i name="e_0_energy">    -10.83808078 </i>
   </energy>
  </scstep>
  <scstep>
   <time name="diag">    0.04    0.08</time>
   <time name="diis">    0.06    0.12</time>
   <time name="orth">    0.01    0.02</time>
   <time name="total">    0.32    0.65</time>
   <energy>
    <i name="e_fr_energy">    -10.83819368 </i>
    <i name="e_wo_entrp">    -10.83819327 </i>
    <i name="e_0_energy">    -10.83819348 </i>
   </energy>
  </scstep>
  <scstep>
   <time name="diag">    0.03    0.07</time>
   <time name="diis">    0.05    0.11</time>
   <time name="orth">    0.01    0.02</time>
   <time name="total">    0.29    0.59</time>
   <energy>
    <i name="alphaZ">      3.23732084 </i>
    <i name="ewald">   -225.65453461 </i>
    <i name="hartreedc">    -15.39829769 </i>
    <i name="XCdc">    -18.13460748 </i>
    <i name="pawpsdc">     73.11657321 </i>
    <i name="pawaedc">    -38.12117718 </i>
    <i name="eentropy">     -0.00000041 </i>
    <i name="bandstr">      3.98381312 </i>
    <i name="atom">    206.13270273 </i>
    <i name="e_fr_energy">    -10.83820748 </i>
    <i name="e_wo_entrp">    -10.83820707 </i>
    <i name="e_0_energy">    -10.83820728 </i>
   </energy>
  </scstep>
  <structure>
   <crystal>
    <varray name="basis" >
     <v>       0.00000000       2.75000000       2.75000000 </v>
     <v>       2.75000000       0.00000000       2.75000000 </v>
     <v>       2.75000000       2.75000000       0.00000000 </v>
    </varray>
    <i name="volume">     41.59375000 </i>
    <varray name="rec_basis" >
     <v>      -0.18181818       0.18181818       0.18181818 </v>
     <v>       0.18181818      -0.18181818       0.18181818 </v>
     <v>       0.18181818       0.18181818      -0.18181818 </v>
    </varray>
   </crystal>
   <varray name="positions" >
    <v>       0.12500000       0.12500000       0.12500000 </v>
    <v>       0.87500000       0.87500000       0.87500000 </v>
   </varray>
  </structure>
  <varray name="forces" >
   <v>       0.00000000      -0.00000000      -0.00000000 </v>
   <v>      -0.00000000       0.00000000       0.00000000 </v>
  </varray>
  <varray name="stress" >
   <v>     -14.67460071      -0.00000000       0.00000000 </v>
   <v>      -0.00000000     -14.67460071       0.00000000 </v>
   <v>      -0.00000000      -0.00000000     -14.67460071 </v>
  </varray>
  <energy>
   <i name="e_fr_energy">    -10.83820748 </i>
   <i name="e_wo_entrp">    -10.83820707 </i>
   <i name="e_0_energy">    -10.83820728 </i>
  </energy>
  <time name="totalsc">    3.82    7.77</time>
 </calculation>
 <calculation>
  <scstep>
   <time name="dav">    0.24    0.48</time>
   <time name="total">    0.44    0.88</time>
   <energy>
    <i name="alphaZ">      3.32823321 </i>
    <i name="ewald">   -227.74738598 </i>
    <i name="hartreedc">    -15.54574992 </i>
    <i name="XCdc">    -18.00043499 </i>
    <i name="pawpsdc">     73.11323817 </i>
    <i name="pawaedc">    -38.11825648 </i>
    <i name="eentropy">     -0.00000375 </i>
    <i name="bandstr">      5.99347595 </i>
    <i name="atom">    206.13270273 </i>
    <i name="e_fr_energy">    -10.84418105 </i>
    <i name="e_wo_entrp">    -10.84417730 </i>
    <i name="e_0_energy">    -10.84417918 </i>
   </energy>
  </scstep>
  <scstep>
   <time name="diag">    0.03    0.07</time>
   <time name="diis">    0.06    0.12</time>
   <time name="orth">    0.01    0.02</time>
   <time name="total">    0.31    0.62</time>
   <energy>
    <i name="e_fr_energy">    -10.84155136 </i>
    <i name="e_wo_entrp">    -10.84154895 </i>
    <i name="e_0_energy">    -10.84155015 </i>
   </energy>
  </scstep>
  <scstep>
   <time name="diag">    0.03    0.07</time>
   <time name="diis">    0.06    0.12</time>
   <time name="orth">    0.01    0.02</time>
   <time name="total">    0.31    0.63</time>
   <energy>
    <i name="e_fr_energy">    -10.84013172 </i>
    <i name="e_wo_entrp">    -10.84013036 </i>
    <i name="e_0_energy">    -10.84013104 </i>
   </energy>
  </scstep>
  <scstep>
   <time name="diag">    0.03    0.07</time>
   <time name="diis">    0.06    0.11</time>
   <time name="orth">    0.01    0.02</time>
   <time name="total">    0.29    0.60</time>
   <energy>
    <i name="alphaZ">      3.32823321 </i>
    <i name="ewald">   -227.74738598 </i>
    <i name="hartreedc">    -15.07001150 </i>
    <i name="XCdc">    -18.00997237 </i>
    <i name="pawpsdc">     73.91858779 </i>
    <i name="pawaedc">    -38.94495966 </i>
    <i name="eentropy">     -0.00000133 </i>
    <i name="bandstr">      5.55266610 </i>
    <i name="atom">    206.13270273 </i>
    <i name="e_fr_energy">    -10.84014101 </i>
    <i name="e_wo_entrp">    -10.84013967 </i>
    <i name="e_0_energy">    -10.84014034 </i>
   </energy>
  </scstep>
  <structure>
   <crystal>
    <varray name="basis" >
     <v>      -0.00000000       2.72472928       2.72472928 </v>
     <v>       2.72472928      -0.00000000       2.72472928 </v>
     <v>       2.72472928       2.72472928       0.00000000 </v>
    </varray>
    <i name="volume">     40.45759569 </i>
    <varray name="rec_basis" >
     <v>      -0.18350447       0.18350447       0.18350447 </v>
     <v>       0.18350447      -0.18350447       0.18350447 </v>
     <v>       0.18350447       0.18350447      -0.18350447 </v>
    </varray>
   </crystal>
   <varray name="positions" >
    <v>       0.12500000       0.12500000       0.12500000 </v>
    <v>       0.87500000       0.87500000       0.87500000 </v>
   </varray>
  </structure>
  <varray name="forces" >
   <v>      -0.00000000      -0.00000000      -0.00000000 </v>
   <v>       0.00000000       0.00000000       0.00000000 </v>
  </varray>
  <varray name="stress" >
   <v>      10.12580178      -0.00000000      -0.00000000 </v>
   <v>      -0.00000000      10.12580178       0.00000000 </v>
   <v>       0.00000000      -0.00000000      10.12580178 </v>
  </varray>
  <energy>
   <i name="e_fr_energy">    -10.84014101 </i>
   <i name="e_wo_entrp">    -10.84013967 </i>
   <i name="e_0_energy">    -10.84014034 </i>
  </energy>
  <time name="totalsc">    1.89    3.86</time>
 </calculation>
 <calculation>
  <scstep>
   <time name="dav">    0.23    0.46</time>
   <time name="total">    0.43    0.86</time>
   <energy>
    <i name="alphaZ">      3.29131714 </i>
    <i name="ewald">   -226.90221125 </i>
    <i name="hartreedc">    -15.01783142 </i>
    <i name="XCdc">    -18.06337038 </i>
    <i name="pawpsdc">     73.96219429 </i>
    <i name="pawaedc">    -38.99042470 </i>
    <i name="eentropy">     -0.00000054 </i>
    <i name="bandstr">      4.74548210 </i>
    <i name="atom">    206.13270273 </i>
    <i name="e_fr_energy">    -10.84214203 </i>
    <i name="e_wo_entrp">    -10.84214149 </i>
    <i name="e_0_energy">    -10.84214176 </i>
   </energy>
  </scstep>
  <scstep>
   <time name="diag">    0.03    0.07</time>
   <time name="diis">    0.06    0.12</time>
   <time name="orth">    0.01    0.02</time>
   <time name="total">    0.31    0.63</time>
   <energy>
    <i name="e_fr_energy">    -10.84170856 </i>
    <i name="e_wo_entrp">    -10.84170790 </i>
    <i name="e_0_energy">    -10.84170823 </i>
   </energy>
  </scstep>
  <scstep>
   <time name="diag">    0.03    0.07</time>
   <time name="diis">    0.06    0.12</time>
   <time name="orth">    0.01    0.02</time>
   <time name="total">    0.30    0.62</time>
   <energy>
    <i name="e_fr_energy">    -10.84147928 </i>
    <i name="e_wo_entrp">    -10.84147843 </i>
    <i name="e_0_energy">    -10.84147886 </i>
   </energy>
  </scstep>
  <scstep>
   <time name="diag">    0.04    0.08</time>
   <time name="diis">    0.04    0.09</time>
   <time name="orth">    0.01    0.02</time>
   <time name="total">    0.28    0.58</time>
   <energy>
    <i name="alphaZ">      3.29131714 </i>
    <i name="ewald">   -226.90221125 </i>
    <i name="hartreedc">    -15.20550097 </i>
    <i name="XCdc">    -18.05928998 </i>
    <i name="pawpsdc">     73.63865331 </i>
    <i name="pawaedc">    -38.65884860 </i>
    <i name="eentropy">     -0.00000085 </i>
    <i name="bandstr">      4.92170558 </i>
    <i name="atom">    206.13270273 </i>
    <i name="e_fr_energy">    -10.84147289 </i>
    <i name="e_wo_entrp">    -10.84147204 </i>
    <i name="e_0_energy">    -10.84147246 </i>
   </energy>
  </scstep>
  <structure>
   <crystal>
    <varray name="basis" >
     <v>      -0.00000000       2.73487846       2.73487846 </v>
     <v>       2.73487846      -0.00000000       2.73487846 </v>
     <v>       2.73487846       2.73487846       0.00000000 </v>
    </varray>
    <i name="volume">     40.91137613 </i>
    <varray name="rec_basis" >
     <v>      -0.18282348       0.18282348       0.18282348 </v>
     <v>       0.18282348      -0.18282348       0.18282348 </v>
     <v>       0.18282348       0.18282348      -0.18282348 </v>
    </varray>
   </crystal>
   <varray name="positions" >
    <v>       0.12500000       0.12500000       0.12500000 </v>
    <v>       0.87500000       0.87500000       0.87500000 </v>
   </varray>
  </structure>
  <varray name="forces" >
   <v>      -0.00000000       0.00000000      -0.00000000 </v>
   <v>       0.00000000      -0.00000000       0.00000000 </v>
  </varray>
  <varray name="stress" >
   <v>      -0.48135140      -0.00000000      -0.00000000 </v>
   <v>      -0.00000000      -0.48135140      -0.00000000 </v>
   <v>       0.00000000       0.00000000      -0.48135140 </v>
  </varray>
  <energy>
   <i name="e_fr_energy">    -10.84147289 </i>
   <i name="e_wo_entrp">    -10.84147204 </i>
   <i name="e_0_energy">    -10.84147246 </i>
  </energy>
  <time name="totalsc">    1.84    3.76</time>
  <eigenvalues>
   <array>
    <dimension dim="1">band</dimension>
    <dimension dim="2">kpoint</dimension>
    <dimension dim="3">spin</dimension>
    <field>eigene</field>
    <field>occ</field>
    <set>
     <set comment="spin 1">
      <set comment="kpoint 1">
       <r>   -6.1974    1.0000 </r>
       <r>    5.6145    0.9999 </r>
       <r>    5.6145    0.9999 </r>
       <r>    5.6145    0.9999 </r>
       <r>    8.1698    0.0000 </r>
       <r>    8.1698    0.0000 </r>
       <r>    8.1698    0.0000 </r>
       <r>    8.7423    0.0000 </r>
       <r>   13.3213    0.0000 </r>
       <r>   13.3213    0.0000 </r>
       <r>   13.4883    0.0000 </r>
       <r>   16.7924    0.0000 </r>
       <r>   16.7924    0.0000 </r>
       <r>   16.7924    0.0000 </r>
       <r>   20.8828    0.0000 </r>
       <r>   28.4608    0.0000 </r>
      </set>
      <set comment="kpoint 2">
       <r>   -5.9361    1.0000 </r>
       <r>    3.6945    1.0000 </r>
       <r>    5.2652    1.0000 </r>
       <r>    5.2652    1.0000 </r>
       <r>    7.9900    0.0000 </r>
       <r>    8.6809    0.0000 </r>
       <r>    8.6809    0.0000 </r>
       <r>   10.4598    0.0000 </r>
       <r>   12.7726    0.0000 </r>
       <r>   12.7726    0.0000 </r>
       <r>   14.4343    0.0000 </r>
       <r>   16.1792    0.0000 </r>
       <r>   18.2272    0.0000 </r>
       <r>   18.2272    0.0000 </r>
       <r>   22.3958    0.0000 </r>
       <r>   25.9818    0.0000 </r>
      </set>
      <set comment="kpoint 3">
       <r>   -5.1841    1.0000 </r>
       <r>    1.1127    1.0000 </r>
       <r>    4.7577    1.0000 </r>
       <r>    4.7577    1.0000 </r>
       <r>    7.4464    0.0000 </r>
       <r>    9.1377    0.0000 </r>
       <r>    9.1377    0.0000 </r>
       <r>   12.9222    0.0000 </r>
       <r>   13.0518    0.0000 </r>
       <r>   13.0518    0.0000 </r>
       <r>   14.4377    0.0000 </r>
       <r>   18.0726    0.0000 </r>
       <r>   20.4900    0.0000 </r>
       <r>   20.4900    0.0000 </r>
       <r>   22.7832    0.0000 </r>
       <r>   22.7952    0.0000 </r>
      </set>
      <set comment="kpoint 4">
       <r>   -4.1673    1.0000 </r>
       <r>   -0.8808    1.0000 </r>
       <r>    4.4726    1.0000 </r>
       <r>    4.4726    1.0000 </r>
       <r>    7.1206    0.0000 </r>
       <r>    9.0008    0.0000 </r>
       <r>    9.0008    0.0000 </r>
       <r>   13.3716    0.0000 </r>
       <r>   15.0346    0.0000 </r>
       <r>   15.0346    0.0000 </r>
       <r>   15.9937    0.0000 </r>
       <r>   18.0532    0.0000 </r>
       <r>   18.0532    0.0000 </r>
       <r>   19.0655    0.0000 </r>
       <r>   22.9941    0.0000 </r>
       <r>   25.3003    0.0000 </r>
      </set>
      <set comment="kpoint 5">
       <r>   -5.8477    1.0000 </r>
       <r>    3.9656    1.0000 </r>
       <r>    4.6651    1.0000 </r>
       <r>    4.6651    1.0000 </r>
       <r>    7.5009    0.0000 </r>
       <r>    9.5468    0.0000 </r>
       <r>    9.5468    0.0000 </r>
       <r>    9.9000    0.0000 </r>
       <r>   12.0245    0.0000 </r>
       <r>   13.7107    0.0000 </r>
       <r>   14.8454    0.0000 </r>
       <r>   17.3994    0.0000 </r>
       <r>   17.3994    0.0000 </r>
       <r>   17.9255    0.0000 </r>
       <r>   23.1531    0.0000 </r>
       <r>   25.4951    0.0000 </r>
      </set>
      <set comment="kpoint 6">
       <r>   -5.2519    1.0000 </r>
       <r>    1.8819    1.0000 </r>
       <r>    4.0831    1.0000 </r>
       <r>    4.1320    1.0000 </r>
       <r>    7.6888    0.0000 </r>
       <r>    9.4385    0.0000 </r>
       <r>   10.1746    0.0000 </r>
       <r>   10.3248    0.0000 </r>
       <r>   13.6215    0.0000 </r>
       <r>   14.0863    0.0000 </r>
       <r>   15.7517    0.0000 </r>
       <r>   17.5958    0.0000 </r>
       <r>   19.0308    0.0000 </r>
       <r>   20.4445    0.0000 </r>
       <r>   22.1908    0.0000 </r>
       <r>   22.8118    0.0000 </r>
      </set>
      <set comment="kpoint 7">
       <r>   -4.2637    1.0000 </r>
       <r>   -0.2616    1.0000 </r>
       <r>    3.4045    1.0000 </r>
       <r>    3.9448    1.0000 </r>
       <r>    7.7452    0.0000 </r>
       <r>    9.3900    0.0000 </r>
       <r>   10.1266    0.0000 </r>
       <r>   11.3590    0.0000 </r>
       <r>   15.0254    0.0000 </r>
       <r>   15.7854    0.0000 </r>
       <r>   16.3756    0.0000 </r>
       <r>   17.7389    0.0000 </r>
       <r>   18.4917    0.0000 </r>
       <r>   21.1527    0.0000 </r>
       <r>   22.9306    0.0000 </r>
       <r>   23.0591    0.0000 </r>
      </set>
      <set comment="kpoint 8">
       <r>   -3.7200    1.0000 </r>
       <r>   -1.1059    1.0000 </r>
       <r>    2.9992    1.0000 </r>
       <r>    4.1373    1.0000 </r>
       <r>    7.8316    0.0000 </r>
       <r>    9.3142    0.0000 </r>
       <r>    9.7408    0.0000 </r>
       <r>   13.7066    0.0000 </r>
       <r>   14.2314    0.0000 </r>
       <r>   14.6052    0.0000 </r>
       <r>   16.4941    0.0000 </r>
       <r>   18.6444    0.0000 </r>
       <r>   19.1533    0.0000 </r>
       <r>   19.6319    0.0000 </r>
       <r>   23.5774    0.0000 </r>
       <r>   25.3756    0.0000 </r>
      </set>
      <set comment="kpoint 9">
       <r>   -4.6243    1.0000 </r>
       <r>    0.4051    1.0000 </r>
       <r>    3.0085    1.0000 </r>
       <r>    4.6406    1.0000 </r>
       <r>    8.2140    0.0000 </r>
       <r>    9.4978    0.0000 </r>
       <r>    9.5209    0.0000 </r>
       <r>   12.1804    0.0000 </r>
       <r>   12.3569    0.0000 </r>
       <r>   15.3803    0.0000 </r>
       <r>   16.6500    0.0000 </r>
       <r>   17.7175    0.0000 </r>
       <r>   19.6176    0.0000 </r>
       <r>   21.4038    0.0000 </r>
       <r>   21.6700    0.0000 </r>
       <r>   22.9521    0.0000 </r>
      </set>
      <set comment="kpoint 10">
       <r>   -5.5078    1.0000 </r>
       <r>    2.4915    1.0000 </r>
       <r>    3.6939    1.0000 </r>
       <r>    5.2220    1.0000 </r>
       <r>    8.6027    0.0000 </r>
       <r>    8.8905    0.0000 </r>
       <r>    9.1373    0.0000 </r>
       <r>   11.1516    0.0000 </r>
       <r>   11.8355    0.0000 </r>
       <r>   14.0444    0.0000 </r>
       <r>   15.6066    0.0000 </r>
       <r>   16.8351    0.0000 </r>
       <r>   18.2780    0.0000 </r>
       <r>   20.6327    0.0000 </r>
       <r>   22.1940    0.0000 </r>
       <r>   23.9761    0.0000 </r>
      </set>
      <set comment="kpoint 11">
       <r>   -4.8155    1.0000 </r>
       <r>    1.4630    1.0000 </r>
       <r>    3.5214    1.0000 </r>
       <r>    3.5214    1.0000 </r>
       <r>    6.5703    0.0000 </r>
       <r>    8.2411    0.0000 </r>
       <r>   11.9284    0.0000 </r>
       <r>   11.9284    0.0000 </r>
       <r>   14.2153    0.0000 </r>
       <r>   14.8759    0.0000 </r>
       <r>   17.6444    0.0000 </r>
       <r>   18.8839    0.0000 </r>
       <r>   18.8839    0.0000 </r>
       <r>   19.7841    0.0000 </r>
       <r>   22.1703    0.0000 </r>
       <r>   22.1703    0.0000 </r>
      </set>
      <set comment="kpoint 12">
       <r>   -3.9299    1.0000 </r>
       <r>   -0.0145    1.0000 </r>
       <r>    2.5639    1.0000 </r>
       <r>    3.2655    1.0000 </r>
       <r>    6.8534    0.0000 </r>
       <r>    8.3228    0.0000 </r>
       <r>   12.1357    0.0000 </r>
       <r>   12.3296    0.0000 </r>
       <r>   16.4299    0.0000 </r>
       <r>   16.6767    0.0000 </r>
       <r>   17.1389    0.0000 </r>
       <r>   17.7191    0.0000 </r>
       <r>   19.6242    0.0000 </r>
       <r>   20.5112    0.0000 </r>
       <r>   21.7672    0.0000 </r>
       <r>   23.3310    0.0000 </r>
      </set>
      <set comment="kpoint 13">
       <r>   -3.0344    1.0000 </r>
       <r>   -1.1664    1.0000 </r>
       <r>    1.6301    1.0000 </r>
       <r>    3.4304    1.0000 </r>
       <r>    7.0905    0.0000 </r>
       <r>   10.5348    0.0000 </r>
       <r>   11.8423    0.0000 </r>
       <r>   11.8694    0.0000 </r>
       <r>   14.5463    0.0000 </r>
       <r>   14.6166    0.0000 </r>
       <r>   18.8979    0.0000 </r>
       <r>   19.2406    0.0000 </r>
       <r>   19.6639    0.0000 </r>
       <r>   22.8296    0.0000 </r>
       <r>   22.9902    0.0000 </r>
       <r>   23.3517    0.0000 </r>
      </set>
      <set comment="kpoint 14">
       <r>   -3.6704    1.0000 </r>
       <r>   -0.4299    1.0000 </r>
       <r>    1.5596    1.0000 </r>
       <r>    3.9686    1.0000 </r>
       <r>    7.6806    0.0000 </r>
       <r>   11.0199    0.0000 </r>
       <r>   11.3565    0.0000 </r>
       <r>   12.1177    0.0000 </r>
       <r>   12.4920    0.0000 </r>
       <r>   13.6687    0.0000 </r>
       <r>   18.8307    0.0000 </r>
       <r>   19.4457    0.0000 </r>
       <r>   20.2808    0.0000 </r>
       <r>   22.0056    0.0000 </r>
       <r>   22.2002    0.0000 </r>
       <r>   23.2266    0.0000 </r>
      </set>
      <set comment="kpoint 15">
       <r>   -3.1586    1.0000 </r>
       <r>   -0.9979    1.0000 </r>
       <r>    2.9004    1.0000 </r>
       <r>    2.9004    1.0000 </r>
       <r>    6.2254    0.0000 </r>
       <r>    6.7423    0.0000 </r>
       <r>   14.5396    0.0000 </r>
       <r>   14.5396    0.0000 </r>
       <r>   16.8069    0.0000 </r>
       <r>   17.1598    0.0000 </r>
       <r>   17.5466    0.0000 </r>
       <r>   17.5466    0.0000 </r>
       <r>   19.1793    0.0000 </r>
       <r>   19.4814    0.0000 </r>
       <r>   22.6586    0.0000 </r>
       <r>   23.4207    0.0000 </r>
      </set>
      <set comment="kpoint 16">
       <r>   -2.2290    1.0000 </r>
       <r>   -1.9400    1.0000 </r>
       <r>    2.0311    1.0000 </r>
       <r>    2.9606    1.0000 </r>
       <r>    6.5258    0.0000 </r>
       <r>    7.7623    0.0000 </r>
       <r>   14.3195    0.0000 </r>
       <r>   14.7271    0.0000 </r>
       <r>   14.9693    0.0000 </r>
       <r>   15.2900    0.0000 </r>
       <r>   19.1960    0.0000 </r>
       <r>   19.2435    0.0000 </r>
       <r>   19.3930    0.0000 </r>
       <r>   20.2351    0.0000 </r>
       <r>   22.5696    0.0000 </r>
       <r>   22.9991    0.0000 </r>
      </set>
      <set comment="kpoint 17">
       <r>   -4.5133    1.0000 </r>
       <r>    0.7452    1.0000 </r>
       <r>    2.5678    1.0000 </r>
       <r>    3.8637    1.0000 </r>
       <r>    8.1916    0.0000 </r>
       <r>    9.4267    0.0000 </r>
       <r>    9.7203    0.0000 </r>
       <r>   11.6885    0.0000 </r>
       <r>   13.7844    0.0000 </r>
       <r>   16.4676    0.0000 </r>
       <r>   16.8548    0.0000 </r>
       <r>   18.0691    0.0000 </r>
       <r>   19.2320    0.0000 </r>
       <r>   20.9644    0.0000 </r>
       <r>   21.1144    0.0000 </r>
       <r>   23.9718    0.0000 </r>
      </set>
      <set comment="kpoint 18">
       <r>   -3.4937    1.0000 </r>
       <r>   -0.7557    1.0000 </r>
       <r>    2.0002    1.0000 </r>
       <r>    3.3407    1.0000 </r>
       <r>    8.6728    0.0000 </r>
       <r>    9.0769    0.0000 </r>
       <r>   11.0368    0.0000 </r>
       <r>   12.1398    0.0000 </r>
       <r>   13.8608    0.0000 </r>
       <r>   15.4999    0.0000 </r>
       <r>   17.7070    0.0000 </r>
       <r>   18.8927    0.0000 </r>
       <r>   20.0254    0.0000 </r>
       <r>   21.4774    0.0000 </r>
       <r>   22.8907    0.0000 </r>
       <r>   23.6722    0.0000 </r>
      </set>
      <set comment="kpoint 19">
       <r>   -2.9597    1.0000 </r>
       <r>   -1.0848    1.0000 </r>
       <r>    2.0952    1.0000 </r>
       <r>    2.5000    1.0000 </r>
       <r>    7.8315    0.0000 </r>
       <r>    8.2018    0.0000 </r>
       <r>   11.6986    0.0000 </r>
       <r>   14.1684    0.0000 </r>
       <r>   14.6694    0.0000 </r>
       <r>   16.5386    0.0000 </r>
       <r>   17.9350    0.0000 </r>
       <r>   19.5002    0.0000 </r>
       <r>   20.0122    0.0000 </r>
       <r>   20.9589    0.0000 </r>
       <r>   22.2358    0.0000 </r>
       <r>   22.9548    0.0000 </r>
      </set>
      <set comment="kpoint 20">
       <r>   -2.5349    1.0000 </r>
       <r>   -1.4733    1.0000 </r>
       <r>    1.4731    1.0000 </r>
       <r>    2.5893    1.0000 </r>
       <r>    8.3526    0.0000 </r>
       <r>   10.4427    0.0000 </r>
       <r>   11.1871    0.0000 </r>
       <r>   11.3441    0.0000 </r>
       <r>   14.5808    0.0000 </r>
       <r>   15.7442    0.0000 </r>
       <r>   18.6455    0.0000 </r>
       <r>   19.9266    0.0000 </r>
       <r>   20.7751    0.0000 </r>
       <r>   21.8921    0.0000 </r>
       <r>   23.0178    0.0000 </r>
       <r>   23.8372    0.0000 </r>
      </set>
     </set>
     <set comment="spin 2">
      <set comment="kpoint 1">
       <r>   -6.1983    1.0000 </r>
       <r>    5.6136    0.9999 </r>
       <r>    5.6136    0.9999 </r>
       <r>    5.6136    0.9999 </r>
       <r>    8.1689    0.0000 </r>
       <r>    8.1689    0.0000 </r>
       <r>    8.1689    0.0000 </r>
       <r>    8.7410    0.0000 </r>
       <r>   13.3210    0.0000 </r>
       <r>   13.3210    0.0000 </r>
       <r>   13.4881    0.0000 </r>
       <r>   16.7920    0.0000 </r>
       <r>   16.7920    0.0000 </r>
       <r>   16.7920    0.0000 </r>
       <r>   20.8830    0.0000 </r>
       <r>   28.4611    0.0000 </r>
      </set>
      <set comment="kpoint 2">
       <r>   -5.9370    1.0000 </r>
       <r>    3.6935    1.0000 </r>
       <r>    5.2642    1.0000 </r>
       <r>    5.2642    1.0000 </r>
       <r>    7.9891    0.0000 </r>
       <r>    8.6800    0.0000 </r>
       <r>    8.6800    0.0000 </r>
       <r>   10.4587    0.0000 </r>
       <r>   12.7723    0.0000 </r>
       <r>   12.7723    0.0000 </r>
       <r>   14.4340    0.0000 </r>
       <r>   16.1790    0.0000 </r>
       <r>   18.2268    0.0000 </r>
       <r>   18.2268    0.0000 </r>
       <r>   22.3959    0.0000 </r>
       <r>   25.9816    0.0000 </r>
      </set>
      <set comment="kpoint 3">
       <r>   -5.1851    1.0000 </r>
       <r>    1.1117    1.0000 </r>
       <r>    4.7567    1.0000 </r>
       <r>    4.7567    1.0000 </r>
       <r>    7.4455    0.0000 </r>
       <r>    9.1370    0.0000 </r>
       <r>    9.1370    0.0000 </r>
       <r>   12.9213    0.0000 </r>
       <r>   13.0514    0.0000 </r>
       <r>   13.0514    0.0000 </r>
       <r>   14.4375    0.0000 </r>
       <r>   18.0721    0.0000 </r>
       <r>   20.4897    0.0000 </r>
       <r>   20.4897    0.0000 </r>
       <r>   22.7829    0.0000 </r>
       <r>   22.7999    0.0000 </r>
      </set>
      <set comment="kpoint 4">
       <r>   -4.1683    1.0000 </r>
       <r>   -0.8817    1.0000 </r>
       <r>    4.4716    1.0000 </r>
       <r>    4.4716    1.0000 </r>
       <r>    7.1197    0.0000 </r>
       <r>    9.0001    0.0000 </r>
       <r>    9.0001    0.0000 </r>
       <r>   13.3713    0.0000 </r>
       <r>   15.0342    0.0000 </r>
       <r>   15.0342    0.0000 </r>
       <r>   15.9930    0.0000 </r>
       <r>   18.0527    0.0000 </r>
       <r>   18.0527    0.0000 </r>
       <r>   19.0644    0.0000 </r>
       <r>   22.9938    0.0000 </r>
       <r>   25.3001    0.0000 </r>
      </set>
      <set comment="kpoint 5">
       <r>   -5.8486    1.0000 </r>
       <r>    3.9646    1.0000 </r>
       <r>    4.6642    1.0000 </r>
       <r>    4.6642    1.0000 </r>
       <r>    7.5002    0.0000 </r>
       <r>    9.5459    0.0000 </r>
       <r>    9.5459    0.0000 </r>
       <r>    9.8989    0.0000 </r>
       <r>   12.0240    0.0000 </r>
       <r>   13.7104    0.0000 </r>
       <r>   14.8451    0.0000 </r>
       <r>   17.3991    0.0000 </r>
       <r>   17.3991    0.0000 </r>
       <r>   17.9253    0.0000 </r>
       <r>   23.1531    0.0000 </r>
       <r>   25.4948    0.0000 </r>
      </set>
      <set comment="kpoint 6">
       <r>   -5.2528    1.0000 </r>
       <r>    1.8809    1.0000 </r>
       <r>    4.0821    1.0000 </r>
       <r>    4.1311    1.0000 </r>
       <r>    7.6881    0.0000 </r>
       <r>    9.4375    0.0000 </r>
       <r>   10.1741    0.0000 </r>
       <r>   10.3240    0.0000 </r>
       <r>   13.6205    0.0000 </r>
       <r>   14.0859    0.0000 </r>
       <r>   15.7513    0.0000 </r>
       <r>   17.5955    0.0000 </r>
       <r>   19.0305    0.0000 </r>
       <r>   20.4442    0.0000 </r>
       <r>   22.1904    0.0000 </r>
       <r>   22.8113    0.0000 </r>
      </set>
      <set comment="kpoint 7">
       <r>   -4.2647    1.0000 </r>
       <r>   -0.2626    1.0000 </r>
       <r>    3.4036    1.0000 </r>
       <r>    3.9438    1.0000 </r>
       <r>    7.7445    0.0000 </r>
       <r>    9.3892    0.0000 </r>
       <r>   10.1259    0.0000 </r>
       <r>   11.3584    0.0000 </r>
       <r>   15.0251    0.0000 </r>
       <r>   15.7850    0.0000 </r>
       <r>   16.3748    0.0000 </r>
       <r>   17.7383    0.0000 </r>
       <r>   18.4910    0.0000 </r>
       <r>   21.1524    0.0000 </r>
       <r>   22.9301    0.0000 </r>
       <r>   23.0588    0.0000 </r>
      </set>
      <set comment="kpoint 8">
       <r>   -3.7210    1.0000 </r>
       <r>   -1.1068    1.0000 </r>
       <r>    2.9983    1.0000 </r>
       <r>    4.1363    1.0000 </r>
       <r>    7.8308    0.0000 </r>
       <r>    9.3135    0.0000 </r>
       <r>    9.7401    0.0000 </r>
       <r>   13.7059    0.0000 </r>
       <r>   14.2309    0.0000 </r>
       <r>   14.6048    0.0000 </r>
       <r>   16.4937    0.0000 </r>
       <r>   18.6439    0.0000 </r>
       <r>   19.1528    0.0000 </r>
       <r>   19.6308    0.0000 </r>
       <r>   23.5772    0.0000 </r>
       <r>   25.3754    0.0000 </r>
      </set>
      <set comment="kpoint 9">
       <r>   -4.6253    1.0000 </r>
       <r>    0.4042    1.0000 </r>
       <r>    3.0077    1.0000 </r>
       <r>    4.6396    1.0000 </r>
       <r>    8.2132    0.0000 </r>
       <r>    9.4970    0.0000 </r>
       <r>    9.5202    0.0000 </r>
       <r>   12.1797    0.0000 </r>
       <r>   12.3565    0.0000 </r>
       <r>   15.3799    0.0000 </r>
       <r>   16.6493    0.0000 </r>
       <r>   17.7170    0.0000 </r>
       <r>   19.6173    0.0000 </r>
       <r>   21.4033    0.0000 </r>
       <r>   21.6697    0.0000 </r>
       <r>   22.9515    0.0000 </r>
      </set>
      <set comment="kpoint 10">
       <r>   -5.5087    1.0000 </r>
       <r>    2.4905    1.0000 </r>
       <r>    3.6930    1.0000 </r>
       <r>    5.2210    1.0000 </r>
       <r>    8.6017    0.0000 </r>
       <r>    8.8897    0.0000 </r>
       <r>    9.1366    0.0000 </r>
       <r>   11.1508    0.0000 </r>
       <r>   11.8352    0.0000 </r>
       <r>   14.0438    0.0000 </r>
       <r>   15.6062    0.0000 </r>
       <r>   16.8349    0.0000 </r>
       <r>   18.2776    0.0000 </r>
       <r>   20.6324    0.0000 </r>
       <r>   22.1936    0.0000 </r>
       <r>   23.9759    0.0000 </r>
      </set>
      <set comment="kpoint 11">
       <r>   -4.8165    1.0000 </r>
       <r>    1.4620    1.0000 </r>
       <r>    3.5205    1.0000 </r>
       <r>    3.5205    1.0000 </r>
       <r>    6.5697    0.0000 </r>
       <r>    8.2406    0.0000 </r>
       <r>   11.9275    0.0000 </r>
       <r>   11.9275    0.0000 </r>
       <r>   14.2142    0.0000 </r>
       <r>   14.8756    0.0000 </r>
       <r>   17.6439    0.0000 </r>
       <r>   18.8836    0.0000 </r>
       <r>   18.8836    0.0000 </r>
       <r>   19.7841    0.0000 </r>
       <r>   22.1698    0.0000 </r>
       <r>   22.1698    0.0000 </r>
      </set>
      <set comment="kpoint 12">
       <r>   -3.9309    1.0000 </r>
       <r>   -0.0155    1.0000 </r>
       <r>    2.5631    1.0000 </r>
       <r>    3.2646    1.0000 </r>
       <r>    6.8528    0.0000 </r>
       <r>    8.3222    0.0000 </r>
       <r>   12.1349    0.0000 </r>
       <r>   12.3289    0.0000 </r>
       <r>   16.4296    0.0000 </r>
       <r>   16.6756    0.0000 </r>
       <r>   17.1384    0.0000 </r>
       <r>   17.7186    0.0000 </r>
       <r>   19.6239    0.0000 </r>
       <r>   20.5108    0.0000 </r>
       <r>   21.7669    0.0000 </r>
       <r>   23.3303    0.0000 </r>
      </set>
      <set comment="kpoint 13">
       <r>   -3.0354    1.0000 </r>
       <r>   -1.1674    1.0000 </r>
       <r>    1.6293    1.0000 </r>
       <r>    3.4295    1.0000 </r>
       <r>    7.0899    0.0000 </r>
       <r>   10.5343    0.0000 </r>
       <r>   11.8416    0.0000 </r>
       <r>   11.8685    0.0000 </r>
       <r>   14.5454    0.0000 </r>
       <r>   14.6161    0.0000 </r>
       <r>   18.8977    0.0000 </r>
       <r>   19.2402    0.0000 </r>
       <r>   19.6629    0.0000 </r>
       <r>   22.8292    0.0000 </r>
       <r>   22.9899    0.0000 </r>
       <r>   23.3512    0.0000 </r>
      </set>
      <set comment="kpoint 14">
       <r>   -3.6714    1.0000 </r>
       <r>   -0.4309    1.0000 </r>
       <r>    1.5588    1.0000 </r>
       <r>    3.9676    1.0000 </r>
       <r>    7.6800    0.0000 </r>
       <r>   11.0191    0.0000 </r>
       <r>   11.3559    0.0000 </r>
       <r>   12.1168    0.0000 </r>
       <r>   12.4917    0.0000 </r>
       <r>   13.6679    0.0000 </r>
       <r>   18.8305    0.0000 </r>
       <r>   19.4454    0.0000 </r>
       <r>   20.2800    0.0000 </r>
       <r>   22.0054    0.0000 </r>
       <r>   22.1995    0.0000 </r>
       <r>   23.2254    0.0000 </r>
      </set>
      <set comment="kpoint 15">
       <r>   -3.1596    1.0000 </r>
       <r>   -0.9990    1.0000 </r>
       <r>    2.8994    1.0000 </r>
       <r>    2.8994    1.0000 </r>
       <r>    6.2249    0.0000 </r>
       <r>    6.7418    0.0000 </r>
       <r>   14.5388    0.0000 </r>
       <r>   14.5388    0.0000 </r>
       <r>   16.8066    0.0000 </r>
       <r>   17.1587    0.0000 </r>
       <r>   17.5462    0.0000 </r>
       <r>   17.5462    0.0000 </r>
       <r>   19.1784    0.0000 </r>
       <r>   19.4811    0.0000 </r>
       <r>   22.6587    0.0000 </r>
       <r>   23.4203    0.0000 </r>
      </set>
      <set comment="kpoint 16">
       <r>   -2.2300    1.0000 </r>
       <r>   -1.9410    1.0000 </r>
       <r>    2.0303    1.0000 </r>
       <r>    2.9596    1.0000 </r>
       <r>    6.5253    0.0000 </r>
       <r>    7.7618    0.0000 </r>
       <r>   14.3186    0.0000 </r>
       <r>   14.7260    0.0000 </r>
       <r>   14.9688    0.0000 </r>
       <r>   15.2898    0.0000 </r>
       <r>   19.1950    0.0000 </r>
       <r>   19.2432    0.0000 </r>
       <r>   19.3925    0.0000 </r>
       <r>   20.2344    0.0000 </r>
       <r>   22.5695    0.0000 </r>
       <r>   22.9989    0.0000 </r>
      </set>
      <set comment="kpoint 17">
       <r>   -4.5142    1.0000 </r>
       <r>    0.7442    1.0000 </r>
       <r>    2.5669    1.0000 </r>
       <r>    3.8627    1.0000 </r>
       <r>    8.1909    0.0000 </r>
       <r>    9.4260    0.0000 </r>
       <r>    9.7196    0.0000 </r>
       <r>   11.6877    0.0000 </r>
       <r>   13.7838    0.0000 </r>
       <r>   16.4670    0.0000 </r>
       <r>   16.8540    0.0000 </r>
       <r>   18.0689    0.0000 </r>
       <r>   19.2318    0.0000 </r>
       <r>   20.9640    0.0000 </r>
       <r>   21.1140    0.0000 </r>
       <r>   23.9782    0.0000 </r>
      </set>
      <set comment="kpoint 18">
       <r>   -3.4947    1.0000 </r>
       <r>   -0.7567    1.0000 </r>
       <r>    1.9993    1.0000 </r>
       <r>    3.3398    1.0000 </r>
       <r>    8.6722    0.0000 </r>
       <r>    9.0762    0.0000 </r>
       <r>   11.0361    0.0000 </r>
       <r>   12.1391    0.0000 </r>
       <r>   13.8601    0.0000 </r>
       <r>   15.4993    0.0000 </r>
       <r>   17.7066    0.0000 </r>
       <r>   18.8921    0.0000 </r>
       <r>   20.0247    0.0000 </r>
       <r>   21.4771    0.0000 </r>
       <r>   22.8901    0.0000 </r>
       <r>   23.6718    0.0000 </r>
      </set>
      <set comment="kpoint 19">
       <r>   -2.9607    1.0000 </r>
       <r>   -1.0858    1.0000 </r>
       <r>    2.0944    1.0000 </r>
       <r>    2.4991    1.0000 </r>
       <r>    7.8309    0.0000 </r>
       <r>    8.2013    0.0000 </r>
       <r>   11.6978    0.0000 </r>
       <r>   14.1674    0.0000 </r>
       <r>   14.6689    0.0000 </r>
       <r>   16.5379    0.0000 </r>
       <r>   17.9344    0.0000 </r>
       <r>   19.4996    0.0000 </r>
       <r>   20.0115    0.0000 </r>
       <r>   20.9587    0.0000 </r>
       <r>   22.2355    0.0000 </r>
       <r>   22.9544    0.0000 </r>
      </set>
      <set comment="kpoint 20">
       <r>   -2.5360    1.0000 </r>
       <r>   -1.4744    1.0000 </r>
       <r>    1.4723    1.0000 </r>
       <r>    2.5884    1.0000 </r>
       <r>    8.3520    0.0000 </r>
       <r>   10.4422    0.0000 </r>
       <r>   11.1863    0.0000 </r>
       <r>   11.3434    0.0000 </r>
       <r>   14.5801    0.0000 </r>
       <r>   15.7436    0.0000 </r>
       <r>   18.6448    0.0000 </r>
       <r>   19.9260    0.0000 </r>
       <r>   20.7749    0.0000 </r>
       <r>   21.8919    0.0000 </r>
       <r>   23.0172    0.0000 </r>
       <r>   23.8367    0.0000 </r>
      </set>
     </set>
    </set>
   </array>
  </eigenvalues>
  <separator name="orbital magnetization" >
   <v name="MAGDIPOLOUT">      0.00000000      0.00000000      0.00000000</v>
  </separator>
  <dos>
   <i name="efermi">      5.91297264 </i>
   <total>
    <array>
     <dimension dim="1">gridpoints</dimension>
     <dimension dim="2">spin</dimension>
     <field>energy</field>
     <field>total</field>
     <field>integrated</field>
     <set>
      <set comment="spin 1">
       <r>    -7.9313     0.0000     0.0000 </r>
       <r>    -7.8042     0.0000     0.0000 </r>
       <r>    -7.6771     0.0000     0.0000 </r>
       <r>    -7.5500     0.0000     0.0000 </r>
       <r>    -7.4229     0.0000     0.0000 </r>
       <r>    -7.2959     0.0000     0.0000 </r>
       <r>    -7.1688     0.0000     0.0000 </r>
       <r>    -7.0417     0.0000     0.0000 </r>
       <r>    -6.9146     0.0000     0.0000 </r>
       <r>    -6.7875     0.0000     0.0000 </r>
       <r>    -6.6604     0.0000     0.0000 </r>
       <r>    -6.5333     0.0000     0.0000 </r>
       <r>    -6.4063     0.0001     0.0000 </r>
       <r>    -6.2792     0.0033     0.0004 </r>
       <r>    -6.1521     0.0136     0.0022 </r>
       <r>    -6.0250     0.0311     0.0061 </r>
       <r>    -5.8979     0.1368     0.0235 </r>
       <r>    -5.7708     0.1333     0.0404 </r>
       <r>    -5.6438     0.0369     0.0451 </r>
       <r>    -5.5167     0.1146     0.0597 </r>
       <r>    -5.3896     0.1544     0.0793 </r>
       <r>    -5.2625     0.2702     0.1137 </r>
       <r>    -5.1354     0.3715     0.1609 </r>
       <r>    -5.0083     0.0858     0.1718 </r>
       <r>    -4.8813     0.0301     0.1756 </r>
       <r>    -4.7542     0.1075     0.1893 </r>
       <r>    -4.6271     0.3095     0.2286 </r>
       <r>    -4.5000     0.5244     0.2952 </r>
       <r>    -4.3729     0.2948     0.3327 </r>
       <r>    -4.2458     0.3283     0.3744 </r>
       <r>    -4.1187     0.3173     0.4147 </r>
       <r>    -3.9917     0.1800     0.4376 </r>
       <r>    -3.8646     0.3417     0.4810 </r>
       <r>    -3.7375     0.3702     0.5281 </r>
       <r>    -3.6104     0.5172     0.5938 </r>
       <r>    -3.4833     0.6355     0.6746 </r>
       <r>    -3.3562     0.4521     0.7320 </r>
       <r>    -3.2292     0.0729     0.7413 </r>
       <r>    -3.1021     0.2032     0.7671 </r>
       <r>    -2.9750     0.5635     0.8387 </r>
       <r>    -2.8479     0.3952     0.8890 </r>
       <r>    -2.7208     0.0523     0.8956 </r>
       <r>    -2.5937     0.1211     0.9110 </r>
       <r>    -2.4666     0.3191     0.9515 </r>
       <r>    -2.3396     0.1246     0.9674 </r>
       <r>    -2.2125     0.1421     0.9854 </r>
       <r>    -2.0854     0.1143     0.9999 </r>
       <r>    -1.9583     0.1127     1.0143 </r>
       <r>    -1.8312     0.1399     1.0320 </r>
       <r>    -1.7041     0.0237     1.0351 </r>
       <r>    -1.5771     0.0513     1.0416 </r>
       <r>    -1.4500     0.2877     1.0781 </r>
       <r>    -1.3229     0.2109     1.1049 </r>
       <r>    -1.1958     0.3100     1.1443 </r>
       <r>    -1.0687     0.9034     1.2591 </r>
       <r>    -0.9416     0.5634     1.3307 </r>
       <r>    -0.8146     0.4086     1.3827 </r>
       <r>    -0.6875     0.6746     1.4684 </r>
       <r>    -0.5604     0.2205     1.4964 </r>
       <r>    -0.4333     0.1348     1.5135 </r>
       <r>    -0.3062     0.2757     1.5486 </r>
       <r>    -0.1791     0.3378     1.5915 </r>
       <r>    -0.0520     0.2437     1.6225 </r>
       <r>     0.0750     0.3077     1.6616 </r>
       <r>     0.2021     0.0716     1.6707 </r>
       <r>     0.3292     0.0913     1.6823 </r>
       <r>     0.4563     0.3161     1.7225 </r>
       <r>     0.5834     0.1466     1.7411 </r>
       <r>     0.7105     0.1769     1.7636 </r>
       <r>     0.8375     0.3027     1.8020 </r>
       <r>     0.9646     0.0706     1.8110 </r>
       <r>     1.0917     0.0685     1.8197 </r>
       <r>     1.2188     0.0951     1.8318 </r>
       <r>     1.3459     0.0554     1.8388 </r>
       <r>     1.4730     0.3614     1.8848 </r>
       <r>     1.6000     0.6375     1.9658 </r>
       <r>     1.7271     0.4245     2.0197 </r>
       <r>     1.8542     0.2889     2.0565 </r>
       <r>     1.9813     0.8156     2.1601 </r>
       <r>     2.1084     1.0458     2.2930 </r>
       <r>     2.2355     0.3553     2.3382 </r>
       <r>     2.3626     0.0661     2.3466 </r>
       <r>     2.4896     0.5795     2.4202 </r>
       <r>     2.6167     1.3157     2.5874 </r>
       <r>     2.7438     0.5197     2.6534 </r>
       <r>     2.8709     0.2032     2.6793 </r>
       <r>     2.9980     0.7681     2.7769 </r>
       <r>     3.1251     0.6500     2.8595 </r>
       <r>     3.2521     0.4527     2.9170 </r>
       <r>     3.3792     1.2220     3.0723 </r>
       <r>     3.5063     1.0824     3.2099 </r>
       <r>     3.6334     0.3984     3.2605 </r>
       <r>     3.7605     0.3495     3.3049 </r>
       <r>     3.8876     0.5677     3.3770 </r>
       <r>     4.0147     0.9234     3.4944 </r>
       <r>     4.1417     1.0612     3.6293 </r>
       <r>     4.2688     0.5938     3.7047 </r>
       <r>     4.3959     0.1132     3.7191 </r>
       <r>     4.5230     0.2581     3.7519 </r>
       <r>     4.6501     0.4938     3.8147 </r>
       <r>     4.7772     0.5552     3.8852 </r>
       <r>     4.9042     0.1799     3.9081 </r>
       <r>     5.0313     0.0147     3.9100 </r>
       <r>     5.1584     0.0874     3.9211 </r>
       <r>     5.2855     0.3482     3.9653 </r>
       <r>     5.4126     0.1910     3.9896 </r>
       <r>     5.5397     0.0248     3.9927 </r>
       <r>     5.6667     0.0397     3.9978 </r>
       <r>     5.7938     0.0167     3.9999 </r>
       <r>     5.9209     0.0008     4.0000 </r>
       <r>     6.0480     0.0017     4.0002 </r>
       <r>     6.1751     0.0343     4.0046 </r>
       <r>     6.3022     0.0796     4.0147 </r>
       <r>     6.4293     0.0569     4.0219 </r>
       <r>     6.5563     0.2048     4.0479 </r>
       <r>     6.6834     0.1966     4.0729 </r>
       <r>     6.8105     0.2493     4.1046 </r>
       <r>     6.9376     0.3526     4.1494 </r>
       <r>     7.0647     0.3098     4.1888 </r>
       <r>     7.1918     0.3992     4.2395 </r>
       <r>     7.3188     0.0973     4.2519 </r>
       <r>     7.4459     0.1167     4.2667 </r>
       <r>     7.5730     0.2343     4.2965 </r>
       <r>     7.7001     0.6994     4.3854 </r>
       <r>     7.8272     1.2743     4.5473 </r>
       <r>     7.9543     0.7314     4.6403 </r>
       <r>     8.0814     0.2867     4.6767 </r>
       <r>     8.2084     0.9339     4.7954 </r>
       <r>     8.3355     1.2746     4.9573 </r>
       <r>     8.4626     0.6055     5.0343 </r>
       <r>     8.5897     0.3768     5.0822 </r>
       <r>     8.7168     0.9733     5.2059 </r>
       <r>     8.8439     0.5281     5.2730 </r>
       <r>     8.9709     0.4116     5.3253 </r>
       <r>     9.0980     0.9961     5.4519 </r>
       <r>     9.2251     0.8845     5.5643 </r>
       <r>     9.3522     0.7810     5.6635 </r>
       <r>     9.4793     1.5119     5.8557 </r>
       <r>     9.6064     1.1823     6.0059 </r>
       <r>     9.7334     0.7007     6.0950 </r>
       <r>     9.8605     0.5238     6.1615 </r>
       <r>     9.9876     0.1585     6.1817 </r>
       <r>    10.1147     0.3599     6.2274 </r>
       <r>    10.2418     0.6698     6.3126 </r>
       <r>    10.3689     0.5802     6.3863 </r>
       <r>    10.4960     0.7347     6.4797 </r>
       <r>    10.6230     0.5023     6.5435 </r>
       <r>    10.7501     0.0806     6.5537 </r>
       <r>    10.8772     0.0350     6.5582 </r>
       <r>    11.0043     0.4712     6.6181 </r>
       <r>    11.1314     0.9687     6.7412 </r>
       <r>    11.2585     0.7626     6.8381 </r>
       <r>    11.3855     0.8735     6.9491 </r>
       <r>    11.5126     0.4519     7.0065 </r>
       <r>    11.6397     0.2959     7.0441 </r>
       <r>    11.7668     0.8327     7.1499 </r>
       <r>    11.8939     1.0478     7.2831 </r>
       <r>    12.0210     0.7581     7.3794 </r>
       <r>    12.1480     1.2453     7.5377 </r>
       <r>    12.2751     1.2859     7.7011 </r>
       <r>    12.4022     0.8003     7.8028 </r>
       <r>    12.5293     0.3980     7.8534 </r>
       <r>    12.6564     0.1190     7.8685 </r>
       <r>    12.7835     0.1902     7.8927 </r>
       <r>    12.9106     0.2358     7.9227 </r>
       <r>    13.0376     0.2480     7.9542 </r>
       <r>    13.1647     0.1967     7.9792 </r>
       <r>    13.2918     0.0708     7.9882 </r>
       <r>    13.4189     0.1370     8.0056 </r>
       <r>    13.5460     0.1873     8.0294 </r>
       <r>    13.6731     0.7178     8.1206 </r>
       <r>    13.8001     1.1403     8.2655 </r>
       <r>    13.9272     0.9816     8.3903 </r>
       <r>    14.0543     0.5923     8.4655 </r>
       <r>    14.1814     0.8827     8.5777 </r>
       <r>    14.3085     0.8136     8.6811 </r>
       <r>    14.4356     0.5244     8.7478 </r>
       <r>    14.5627     1.1502     8.8939 </r>
       <r>    14.6897     1.6060     9.0980 </r>
       <r>    14.8168     0.6840     9.1850 </r>
       <r>    14.9439     0.4317     9.2398 </r>
       <r>    15.0710     0.7026     9.3291 </r>
       <r>    15.1981     0.3248     9.3704 </r>
       <r>    15.3252     0.3091     9.4097 </r>
       <r>    15.4522     0.6952     9.4980 </r>
       <r>    15.5793     0.8436     9.6052 </r>
       <r>    15.7064     0.7142     9.6960 </r>
       <r>    15.8335     0.9689     9.8191 </r>
       <r>    15.9606     0.3504     9.8637 </r>
       <r>    16.0877     0.1334     9.8806 </r>
       <r>    16.2147     0.1357     9.8979 </r>
       <r>    16.3418     0.3483     9.9421 </r>
       <r>    16.4689     1.1606    10.0896 </r>
       <r>    16.5960     1.2903    10.2536 </r>
       <r>    16.7231     0.9247    10.3711 </r>
       <r>    16.8502     0.7376    10.4648 </r>
       <r>    16.9773     0.4383    10.5206 </r>
       <r>    17.1043     0.2478    10.5520 </r>
       <r>    17.2314     0.3869    10.6012 </r>
       <r>    17.3585     0.1707    10.6229 </r>
       <r>    17.4856     0.2665    10.6568 </r>
       <r>    17.6127     0.7701    10.7547 </r>
       <r>    17.7398     1.7616    10.9785 </r>
       <r>    17.8668     1.1691    11.1271 </r>
       <r>    17.9939     0.6828    11.2139 </r>
       <r>    18.1210     0.8188    11.3179 </r>
       <r>    18.2481     0.5365    11.3861 </r>
       <r>    18.3752     0.3317    11.4283 </r>
       <r>    18.5023     0.3450    11.4721 </r>
       <r>    18.6293     0.6522    11.5550 </r>
       <r>    18.7564     0.6987    11.6438 </r>
       <r>    18.8835     1.0541    11.7778 </r>
       <r>    19.0106     1.2633    11.9383 </r>
       <r>    19.1377     0.9720    12.0618 </r>
       <r>    19.2648     1.3426    12.2324 </r>
       <r>    19.3919     0.8359    12.3387 </r>
       <r>    19.5189     0.8426    12.4458 </r>
       <r>    19.6460     1.3750    12.6205 </r>
       <r>    19.7731     0.9715    12.7440 </r>
       <r>    19.9002     0.4532    12.8015 </r>
       <r>    20.0273     1.0773    12.9385 </r>
       <r>    20.1544     0.8085    13.0412 </r>
       <r>    20.2814     0.3693    13.0881 </r>
       <r>    20.4085     0.4703    13.1479 </r>
       <r>    20.5356     0.8496    13.2559 </r>
       <r>    20.6627     0.5486    13.3256 </r>
       <r>    20.7898     0.4046    13.3770 </r>
       <r>    20.9169     0.5357    13.4451 </r>
       <r>    21.0440     0.7949    13.5461 </r>
       <r>    21.1710     0.7584    13.6425 </r>
       <r>    21.2981     0.3972    13.6930 </r>
       <r>    21.4252     0.5755    13.7661 </r>
       <r>    21.5523     0.8716    13.8769 </r>
       <r>    21.6794     0.5362    13.9450 </r>
       <r>    21.8065     0.6155    14.0233 </r>
       <r>    21.9335     0.5417    14.0921 </r>
       <r>    22.0606     0.4037    14.1434 </r>
       <r>    22.1877     0.8204    14.2477 </r>
       <r>    22.3148     0.9649    14.3703 </r>
       <r>    22.4419     0.2811    14.4060 </r>
       <r>    22.5690     0.1935    14.4306 </r>
       <r>    22.6960     0.3174    14.4709 </r>
       <r>    22.8231     1.0851    14.6088 </r>
       <r>    22.9502     2.4258    14.9171 </r>
       <r>    23.0773     2.2084    15.1978 </r>
       <r>    23.2044     0.7832    15.2973 </r>
       <r>    23.3315     0.6714    15.3826 </r>
       <r>    23.4586     0.6702    15.4678 </r>
       <r>    23.5856     0.5261    15.5347 </r>
       <r>    23.7127     0.8807    15.6466 </r>
       <r>    23.8398     0.6274    15.7263 </r>
       <r>    23.9669     0.6083    15.8036 </r>
       <r>    24.0940     0.4148    15.8563 </r>
       <r>    24.2211     0.0516    15.8629 </r>
       <r>    24.3481     0.0007    15.8630 </r>
       <r>    24.4752     0.0000    15.8630 </r>
       <r>    24.6023     0.0000    15.8630 </r>
       <r>    24.7294     0.0000    15.8630 </r>
       <r>    24.8565     0.0000    15.8630 </r>
       <r>    24.9836     0.0000    15.8630 </r>
       <r>    25.1106     0.0017    15.8632 </r>
       <r>    25.2377     0.0597    15.8708 </r>
       <r>    25.3648     0.3363    15.9135 </r>
       <r>    25.4919     0.3630    15.9596 </r>
       <r>    25.6190     0.1025    15.9727 </r>
       <r>    25.7461     0.0087    15.9738 </r>
       <r>    25.8732     0.0153    15.9757 </r>
       <r>    26.0002     0.0933    15.9876 </r>
       <r>    26.1273     0.0689    15.9963 </r>
       <r>    26.2544     0.0059    15.9971 </r>
       <r>    26.3815     0.0001    15.9971 </r>
       <r>    26.5086     0.0000    15.9971 </r>
       <r>    26.6357     0.0000    15.9971 </r>
       <r>    26.7627     0.0000    15.9971 </r>
       <r>    26.8898     0.0000    15.9971 </r>
       <r>    27.0169     0.0000    15.9971 </r>
       <r>    27.1440     0.0000    15.9971 </r>
       <r>    27.2711     0.0000    15.9971 </r>
       <r>    27.3982     0.0000    15.9971 </r>
       <r>    27.5253     0.0000    15.9971 </r>
       <r>    27.6523     0.0000    15.9971 </r>
       <r>    27.7794     0.0000    15.9971 </r>
       <r>    27.9065     0.0000    15.9971 </r>
       <r>    28.0336     0.0000    15.9971 </r>
       <r>    28.1607     0.0000    15.9971 </r>
       <r>    28.2878     0.0003    15.9971 </r>
       <r>    28.4148     0.0061    15.9979 </r>
       <r>    28.5419     0.0130    15.9996 </r>
       <r>    28.6690     0.0034    16.0000 </r>
       <r>    28.7961     0.0001    16.0000 </r>
       <r>    28.9232     0.0000    16.0000 </r>
       <r>    29.0503     0.0000    16.0000 </r>
       <r>    29.1773     0.0000    16.0000 </r>
       <r>    29.3044     0.0000    16.0000 </r>
       <r>    29.4315     0.0000    16.0000 </r>
       <r>    29.5586     0.0000    16.0000 </r>
       <r>    29.6857     0.0000    16.0000 </r>
       <r>    29.8128     0.0000    16.0000 </r>
       <r>    29.9399     0.0000    16.0000 </r>
       <r>    30.0669     0.0000    16.0000 </r>
       <r>    30.1940     0.0000    16.0000 </r>
      </set>
      <set comment="spin 2">
       <r>    -7.9313     0.0000     0.0000 </r>
       <r>    -7.8042     0.0000     0.0000 </r>
       <r>    -7.6771     0.0000     0.0000 </r>
       <r>    -7.5500     0.0000     0.0000 </r>
       <r>    -7.4229     0.0000     0.0000 </r>
       <r>    -7.2959     0.0000     0.0000 </r>
       <r>    -7.1688     0.0000     0.0000 </r>
       <r>    -7.0417     0.0000     0.0000 </r>
       <r>    -6.9146     0.0000     0.0000 </r>
       <r>    -6.7875     0.0000     0.0000 </r>
       <r>    -6.6604     0.0000     0.0000 </r>
       <r>    -6.5333     0.0000     0.0000 </r>
       <r>    -6.4063     0.0001     0.0000 </r>
       <r>    -6.2792     0.0034     0.0004 </r>
       <r>    -6.1521     0.0136     0.0022 </r>
       <r>    -6.0250     0.0315     0.0062 </r>
       <r>    -5.8979     0.1375     0.0237 </r>
       <r>    -5.7708     0.1325     0.0405 </r>
       <r>    -5.6438     0.0367     0.0452 </r>
       <r>    -5.5167     0.1155     0.0599 </r>
       <r>    -5.3896     0.1541     0.0794 </r>
       <r>    -5.2625     0.2724     0.1140 </r>
       <r>    -5.1354     0.3700     0.1611 </r>
       <r>    -5.0083     0.0843     0.1718 </r>
       <r>    -4.8813     0.0304     0.1756 </r>
       <r>    -4.7542     0.1082     0.1894 </r>
       <r>    -4.6271     0.3119     0.2290 </r>
       <r>    -4.5000     0.5241     0.2957 </r>
       <r>    -4.3729     0.2930     0.3329 </r>
       <r>    -4.2458     0.3299     0.3748 </r>
       <r>    -4.1187     0.3155     0.4149 </r>
       <r>    -3.9917     0.1807     0.4379 </r>
       <r>    -3.8646     0.3421     0.4814 </r>
       <r>    -3.7375     0.3715     0.5286 </r>
       <r>    -3.6104     0.5173     0.5943 </r>
       <r>    -3.4833     0.6372     0.6753 </r>
       <r>    -3.3562     0.4477     0.7322 </r>
       <r>    -3.2292     0.0723     0.7414 </r>
       <r>    -3.1021     0.2056     0.7675 </r>
       <r>    -2.9750     0.5653     0.8394 </r>
       <r>    -2.8479     0.3915     0.8891 </r>
       <r>    -2.7208     0.0513     0.8956 </r>
       <r>    -2.5937     0.1231     0.9113 </r>
       <r>    -2.4666     0.3189     0.9518 </r>
       <r>    -2.3396     0.1233     0.9675 </r>
       <r>    -2.2125     0.1428     0.9856 </r>
       <r>    -2.0854     0.1134     1.0000 </r>
       <r>    -1.9583     0.1136     1.0144 </r>
       <r>    -1.8312     0.1391     1.0321 </r>
       <r>    -1.7041     0.0232     1.0351 </r>
       <r>    -1.5771     0.0524     1.0417 </r>
       <r>    -1.4500     0.2892     1.0785 </r>
       <r>    -1.3229     0.2091     1.1050 </r>
       <r>    -1.1958     0.3141     1.1450 </r>
       <r>    -1.0687     0.9053     1.2600 </r>
       <r>    -0.9416     0.5590     1.3310 </r>
       <r>    -0.8146     0.4109     1.3833 </r>
       <r>    -0.6875     0.6736     1.4689 </r>
       <r>    -0.5604     0.2173     1.4965 </r>
       <r>    -0.4333     0.1358     1.5138 </r>
       <r>    -0.3062     0.2767     1.5489 </r>
       <r>    -0.1791     0.3370     1.5917 </r>
       <r>    -0.0520     0.2446     1.6228 </r>
       <r>     0.0750     0.3066     1.6618 </r>
       <r>     0.2021     0.0703     1.6707 </r>
       <r>     0.3292     0.0928     1.6825 </r>
       <r>     0.4563     0.3166     1.7227 </r>
       <r>     0.5834     0.1450     1.7412 </r>
       <r>     0.7105     0.1790     1.7639 </r>
       <r>     0.8375     0.3015     1.8022 </r>
       <r>     0.9646     0.0694     1.8110 </r>
       <r>     1.0917     0.0691     1.8198 </r>
       <r>     1.2188     0.0946     1.8318 </r>
       <r>     1.3459     0.0560     1.8390 </r>
       <r>     1.4730     0.3643     1.8853 </r>
       <r>     1.6000     0.6375     1.9663 </r>
       <r>     1.7271     0.4223     2.0199 </r>
       <r>     1.8542     0.2909     2.0569 </r>
       <r>     1.9813     0.8195     2.1611 </r>
       <r>     2.1084     1.0431     2.2936 </r>
       <r>     2.2355     0.3511     2.3382 </r>
       <r>     2.3626     0.0666     2.3467 </r>
       <r>     2.4896     0.5862     2.4212 </r>
       <r>     2.6167     1.3151     2.5883 </r>
       <r>     2.7438     0.5135     2.6536 </r>
       <r>     2.8709     0.2054     2.6797 </r>
       <r>     2.9980     0.7717     2.7777 </r>
       <r>     3.1251     0.6456     2.8598 </r>
       <r>     3.2521     0.4562     2.9178 </r>
       <r>     3.3792     1.2262     3.0736 </r>
       <r>     3.5063     1.0770     3.2105 </r>
       <r>     3.6334     0.3959     3.2608 </r>
       <r>     3.7605     0.3501     3.3053 </r>
       <r>     3.8876     0.5708     3.3778 </r>
       <r>     4.0147     0.9247     3.4953 </r>
       <r>     4.1417     1.0614     3.6302 </r>
       <r>     4.2688     0.5878     3.7049 </r>
       <r>     4.3959     0.1129     3.7192 </r>
       <r>     4.5230     0.2596     3.7522 </r>
       <r>     4.6501     0.4959     3.8153 </r>
       <r>     4.7772     0.5532     3.8856 </r>
       <r>     4.9042     0.1775     3.9081 </r>
       <r>     5.0313     0.0145     3.9100 </r>
       <r>     5.1584     0.0890     3.9213 </r>
       <r>     5.2855     0.3492     3.9657 </r>
       <r>     5.4126     0.1887     3.9896 </r>
       <r>     5.5397     0.0246     3.9928 </r>
       <r>     5.6667     0.0397     3.9978 </r>
       <r>     5.7938     0.0164     3.9999 </r>
       <r>     5.9209     0.0008     4.0000 </r>
       <r>     6.0480     0.0017     4.0002 </r>
       <r>     6.1751     0.0346     4.0046 </r>
       <r>     6.3022     0.0795     4.0147 </r>
       <r>     6.4293     0.0570     4.0220 </r>
       <r>     6.5563     0.2054     4.0481 </r>
       <r>     6.6834     0.1961     4.0730 </r>
       <r>     6.8105     0.2502     4.1048 </r>
       <r>     6.9376     0.3522     4.1496 </r>
       <r>     7.0647     0.3107     4.1890 </r>
       <r>     7.1918     0.3983     4.2397 </r>
       <r>     7.3188     0.0964     4.2519 </r>
       <r>     7.4459     0.1177     4.2669 </r>
       <r>     7.5730     0.2348     4.2967 </r>
       <r>     7.7001     0.7036     4.3861 </r>
       <r>     7.8272     1.2744     4.5481 </r>
       <r>     7.9543     0.7273     4.6405 </r>
       <r>     8.0814     0.2871     4.6770 </r>
       <r>     8.2084     0.9386     4.7963 </r>
       <r>     8.3355     1.2722     4.9580 </r>
       <r>     8.4626     0.6021     5.0345 </r>
       <r>     8.5897     0.3797     5.0827 </r>
       <r>     8.7168     0.9743     5.2065 </r>
       <r>     8.8439     0.5247     5.2732 </r>
       <r>     8.9709     0.4134     5.3257 </r>
       <r>     9.0980     0.9989     5.4527 </r>
       <r>     9.2251     0.8815     5.5647 </r>
       <r>     9.3522     0.7848     5.6644 </r>
       <r>     9.4793     1.5145     5.8569 </r>
       <r>     9.6064     1.1769     6.0065 </r>
       <r>     9.7334     0.7003     6.0955 </r>
       <r>     9.8605     0.5215     6.1618 </r>
       <r>     9.9876     0.1578     6.1818 </r>
       <r>    10.1147     0.3619     6.2278 </r>
       <r>    10.2418     0.6698     6.3129 </r>
       <r>    10.3689     0.5809     6.3868 </r>
       <r>    10.4960     0.7347     6.4801 </r>
       <r>    10.6230     0.4997     6.5436 </r>
       <r>    10.7501     0.0796     6.5537 </r>
       <r>    10.8772     0.0357     6.5583 </r>
[...]
       </set>
       <set comment="band 12">
        <r>  0.0000  0.0275  0.0000  0.0449  0.0000  0.0000  0.0000  0.0000  0.0000 </r>
        <r>  0.0000  0.0714  0.0000  0.0010  0.0000  0.0000  0.0000  0.0000  0.0000 </r>
       </set>
       <set comment="band 13">
        <r>  0.0151  0.0000  0.2250  0.0000  0.0000  0.0000  0.0000  0.0000  0.0000 </r>
        <r>  0.0151  0.0000  0.2250  0.0000  0.0000  0.0000  0.0000  0.0000  0.0000 </r>
       </set>
       <set comment="band 14">
        <r>  0.0000  0.0000  0.0000  0.0000  0.0000  0.0000  0.0000  0.0000  0.0000 </r>
        <r>  0.0000  0.0000  0.0000  0.0000  0.0000  0.0000  0.0000  0.0000  0.0000 </r>
       </set>
       <set comment="band 15">
        <r>  0.0001  0.0000  0.0037  0.0000  0.0000  0.0000  0.0000  0.0000  0.0000 </r>
        <r>  0.0001  0.0000  0.0037  0.0000  0.0000  0.0000  0.0000  0.0000  0.0000 </r>
       </set>
       <set comment="band 16">
        <r>  0.0000  0.0029  0.0000  0.0508  0.0000  0.0000  0.0000  0.0000  0.0000 </r>
        <r>  0.0000  0.0156  0.0000  0.0381  0.0000  0.0000  0.0000  0.0000  0.0000 </r>
       </set>
      </set>
      <set comment="kpoint 16">
       <set comment="band 1">
        <r>  0.2023  0.0013  0.0365  0.0013  0.0000  0.0000  0.0000  0.0000  0.0000 </r>
        <r>  0.2023  0.0013  0.0365  0.0013  0.0000  0.0000  0.0000  0.0000  0.0000 </r>
       </set>
       <set comment="band 2">
        <r>  0.1901  0.0018  0.0434  0.0018  0.0000  0.0000  0.0000  0.0000  0.0000 </r>
        <r>  0.1901  0.0018  0.0434  0.0018  0.0000  0.0000  0.0000  0.0000  0.0000 </r>
       </set>
       <set comment="band 3">
        <r>  0.0021  0.0731  0.0199  0.0731  0.0000  0.0000  0.0000  0.0000  0.0000 </r>
        <r>  0.0021  0.0731  0.0199  0.0731  0.0000  0.0000  0.0000  0.0000  0.0000 </r>
       </set>
       <set comment="band 4">
        <r>  0.0000  0.0979  0.0000  0.0979  0.0000  0.0000  0.0000  0.0000  0.0000 </r>
        <r>  0.0000  0.0979  0.0000  0.0979  0.0000  0.0000  0.0000  0.0000  0.0000 </r>
       </set>
       <set comment="band 5">
        <r>  0.0514  0.0003  0.0375  0.0003  0.0000  0.0000  0.0000  0.0000  0.0000 </r>
        <r>  0.0514  0.0003  0.0375  0.0003  0.0000  0.0000  0.0000  0.0000  0.0000 </r>
       </set>
       <set comment="band 6">
        <r>  0.0377  0.0227  0.0240  0.0227  0.0000  0.0000  0.0000  0.0000  0.0000 </r>
        <r>  0.0377  0.0227  0.0240  0.0227  0.0000  0.0000  0.0000  0.0000  0.0000 </r>
       </set>
       <set comment="band 7">
        <r>  0.0000  0.0895  0.0000  0.0895  0.0000  0.0000  0.0000  0.0000  0.0000 </r>
        <r>  0.0000  0.0895  0.0000  0.0895  0.0000  0.0000  0.0000  0.0000  0.0000 </r>
       </set>
       <set comment="band 8">
        <r>  0.0278  0.0919  0.0256  0.0919  0.0000  0.0000  0.0000  0.0000  0.0000 </r>
        <r>  0.0278  0.0919  0.0256  0.0919  0.0000  0.0000  0.0000  0.0000  0.0000 </r>
       </set>
       <set comment="band 9">
        <r>  0.0229  0.0014  0.0778  0.0014  0.0000  0.0000  0.0000  0.0000  0.0000 </r>
        <r>  0.0229  0.0014  0.0778  0.0014  0.0000  0.0000  0.0000  0.0000  0.0000 </r>
       </set>
       <set comment="band 10">
        <r>  0.0000  0.0060  0.0000  0.0060  0.0000  0.0000  0.0000  0.0000  0.0000 </r>
        <r>  0.0000  0.0060  0.0000  0.0060  0.0000  0.0000  0.0000  0.0000  0.0000 </r>
       </set>
       <set comment="band 11">
        <r>  0.0297  0.0237  0.1831  0.0237  0.0000  0.0000  0.0000  0.0000  0.0000 </r>
        <r>  0.0297  0.0237  0.1831  0.0237  0.0000  0.0000  0.0000  0.0000  0.0000 </r>
       </set>
       <set comment="band 12">
        <r>  0.0000  0.0000  0.0000  0.0000  0.0000  0.0000  0.0000  0.0000  0.0000 </r>
        <r>  0.0000  0.0000  0.0000  0.0000  0.0000  0.0000  0.0000  0.0000  0.0000 </r>
       </set>
       <set comment="band 13">
        <r>  0.0000  0.0325  0.0000  0.0325  0.0000  0.0000  0.0000  0.0000  0.0000 </r>
        <r>  0.0000  0.0325  0.0000  0.0325  0.0000  0.0000  0.0000  0.0000  0.0000 </r>
       </set>
       <set comment="band 14">
        <r>  0.0338  0.0063  0.1317  0.0063  0.0000  0.0000  0.0000  0.0000  0.0000 </r>
        <r>  0.0338  0.0063  0.1317  0.0063  0.0000  0.0000  0.0000  0.0000  0.0000 </r>
       </set>
       <set comment="band 15">
        <r>  0.0133  0.0034  0.0015  0.0034  0.0000  0.0000  0.0000  0.0000  0.0000 </r>
        <r>  0.0133  0.0034  0.0015  0.0034  0.0000  0.0000  0.0000  0.0000  0.0000 </r>
       </set>
       <set comment="band 16">
        <r>  0.0062  0.0118  0.0042  0.0118  0.0000  0.0000  0.0000  0.0000  0.0000 </r>
        <r>  0.0062  0.0118  0.0042  0.0118  0.0000  0.0000  0.0000  0.0000  0.0000 </r>
       </set>
      </set>
      <set comment="kpoint 17">
       <set comment="band 1">
        <r>  0.2064  0.0025  0.0135  0.0008  0.0000  0.0000  0.0000  0.0000  0.0000 </r>
        <r>  0.2064  0.0025  0.0135  0.0008  0.0000  0.0000  0.0000  0.0000  0.0000 </r>
       </set>
       <set comment="band 2">
        <r>  0.1566  0.0135  0.0460  0.0265  0.0000  0.0000  0.0000  0.0000  0.0000 </r>
        <r>  0.1566  0.0135  0.0460  0.0265  0.0000  0.0000  0.0000  0.0000  0.0000 </r>
       </set>
       <set comment="band 3">
        <r>  0.0113  0.0506  0.0206  0.0919  0.0000  0.0000  0.0000  0.0000  0.0000 </r>
        <r>  0.0113  0.0506  0.0206  0.0919  0.0000  0.0000  0.0000  0.0000  0.0000 </r>
       </set>
       <set comment="band 4">
        <r>  0.0064  0.1023  0.0580  0.0306  0.0000  0.0000  0.0000  0.0000  0.0000 </r>
        <r>  0.0064  0.1023  0.0580  0.0306  0.0000  0.0000  0.0000  0.0000  0.0000 </r>
       </set>
       <set comment="band 5">
        <r>  0.0284  0.0253  0.0514  0.0284  0.0000  0.0000  0.0000  0.0000  0.0000 </r>
        <r>  0.0284  0.0253  0.0514  0.0284  0.0000  0.0000  0.0000  0.0000  0.0000 </r>
       </set>
       <set comment="band 6">
        <r>  0.0637  0.0088  0.0301  0.0217  0.0000  0.0000  0.0000  0.0000  0.0000 </r>
        <r>  0.0637  0.0088  0.0301  0.0217  0.0000  0.0000  0.0000  0.0000  0.0000 </r>
       </set>
       <set comment="band 7">
        <r>  0.0281  0.0529  0.0048  0.0425  0.0000  0.0000  0.0000  0.0000  0.0000 </r>
        <r>  0.0281  0.0529  0.0048  0.0425  0.0000  0.0000  0.0000  0.0000  0.0000 </r>
       </set>
       <set comment="band 8">
        <r>  0.0064  0.0576  0.0115  0.0818  0.0000  0.0000  0.0000  0.0000  0.0000 </r>
        <r>  0.0064  0.0576  0.0115  0.0817  0.0000  0.0000  0.0000  0.0000  0.0000 </r>
       </set>
       <set comment="band 9">
        <r>  0.0411  0.0082  0.0465  0.0025  0.0000  0.0000  0.0000  0.0000  0.0000 </r>
        <r>  0.0411  0.0082  0.0465  0.0025  0.0000  0.0000  0.0000  0.0000  0.0000 </r>
       </set>
       <set comment="band 10">
        <r>  0.0005  0.0324  0.0739  0.0314  0.0000  0.0000  0.0000  0.0000  0.0000 </r>
        <r>  0.0005  0.0324  0.0739  0.0314  0.0000  0.0000  0.0000  0.0000  0.0000 </r>
       </set>
       <set comment="band 11">
        <r>  0.0492  0.0362  0.0523  0.0238  0.0000  0.0000  0.0000  0.0000  0.0000 </r>
        <r>  0.0492  0.0362  0.0523  0.0238  0.0000  0.0000  0.0000  0.0000  0.0000 </r>
       </set>
       <set comment="band 12">
        <r>  0.0116  0.0033  0.0000  0.0005  0.0000  0.0000  0.0000  0.0000  0.0000 </r>
        <r>  0.0116  0.0033  0.0000  0.0005  0.0000  0.0000  0.0000  0.0000  0.0000 </r>
       </set>
       <set comment="band 13">
        <r>  0.0334  0.0067  0.0125  0.0000  0.0000  0.0000  0.0000  0.0000  0.0000 </r>
        <r>  0.0334  0.0067  0.0125  0.0000  0.0000  0.0000  0.0000  0.0000  0.0000 </r>
       </set>
       <set comment="band 14">
        <r>  0.0004  0.0243  0.0388  0.0054  0.0000  0.0000  0.0000  0.0000  0.0000 </r>
        <r>  0.0004  0.0243  0.0388  0.0054  0.0000  0.0000  0.0000  0.0000  0.0000 </r>
       </set>
       <set comment="band 15">
        <r>  0.0000  0.0228  0.0002  0.0533  0.0000  0.0000  0.0000  0.0000  0.0000 </r>
        <r>  0.0000  0.0228  0.0002  0.0533  0.0000  0.0000  0.0000  0.0000  0.0000 </r>
       </set>
       <set comment="band 16">
        <r>  0.0190  0.0029  0.0261  0.0138  0.0000  0.0000  0.0000  0.0000  0.0000 </r>
        <r>  0.0260  0.0042  0.0476  0.0006  0.0000  0.0000  0.0000  0.0000  0.0000 </r>
       </set>
      </set>
      <set comment="kpoint 18">
       <set comment="band 1">
        <r>  0.2115  0.0032  0.0153  0.0047  0.0000  0.0000  0.0000  0.0000  0.0000 </r>
        <r>  0.2115  0.0032  0.0153  0.0047  0.0000  0.0000  0.0000  0.0000  0.0000 </r>
       </set>
       <set comment="band 2">
        <r>  0.1540  0.0147  0.0276  0.0311  0.0000  0.0000  0.0000  0.0000  0.0000 </r>
        <r>  0.1540  0.0147  0.0276  0.0311  0.0000  0.0000  0.0000  0.0000  0.0000 </r>
       </set>
       <set comment="band 3">
        <r>  0.0265  0.0394  0.0417  0.0685  0.0000  0.0000  0.0000  0.0000  0.0000 </r>
        <r>  0.0265  0.0394  0.0417  0.0685  0.0000  0.0000  0.0000  0.0000  0.0000 </r>
       </set>
       <set comment="band 4">
        <r>  0.0021  0.0972  0.0531  0.0345  0.0000  0.0000  0.0000  0.0000  0.0000 </r>
        <r>  0.0021  0.0972  0.0531  0.0345  0.0000  0.0000  0.0000  0.0000  0.0000 </r>
       </set>
       <set comment="band 5">
        <r>  0.0381  0.0293  0.0365  0.0189  0.0000  0.0000  0.0000  0.0000  0.0000 </r>
        <r>  0.0381  0.0293  0.0365  0.0189  0.0000  0.0000  0.0000  0.0000  0.0000 </r>
       </set>
       <set comment="band 6">
        <r>  0.0402  0.0387  0.0119  0.0367  0.0000  0.0000  0.0000  0.0000  0.0000 </r>
        <r>  0.0402  0.0387  0.0119  0.0367  0.0000  0.0000  0.0000  0.0000  0.0000 </r>
       </set>
       <set comment="band 7">
        <r>  0.0321  0.0397  0.0239  0.0320  0.0000  0.0000  0.0000  0.0000  0.0000 </r>
        <r>  0.0321  0.0397  0.0239  0.0320  0.0000  0.0000  0.0000  0.0000  0.0000 </r>
       </set>
       <set comment="band 8">
        <r>  0.0165  0.0376  0.0278  0.0561  0.0000  0.0000  0.0000  0.0000  0.0000 </r>
        <r>  0.0165  0.0376  0.0278  0.0561  0.0000  0.0000  0.0000  0.0000  0.0000 </r>
       </set>
       <set comment="band 9">
        <r>  0.0133  0.0393  0.0530  0.0249  0.0000  0.0000  0.0000  0.0000  0.0000 </r>
        <r>  0.0133  0.0393  0.0530  0.0249  0.0000  0.0000  0.0000  0.0000  0.0000 </r>
       </set>
       <set comment="band 10">
        <r>  0.0168  0.0142  0.0437  0.0279  0.0000  0.0000  0.0000  0.0000  0.0000 </r>
        <r>  0.0168  0.0142  0.0437  0.0279  0.0000  0.0000  0.0000  0.0000  0.0000 </r>
       </set>
       <set comment="band 11">
        <r>  0.0184  0.0049  0.0260  0.0083  0.0000  0.0000  0.0000  0.0000  0.0000 </r>
        <r>  0.0184  0.0049  0.0260  0.0083  0.0000  0.0000  0.0000  0.0000  0.0000 </r>
       </set>
       <set comment="band 12">
        <r>  0.0203  0.0216  0.0175  0.0641  0.0000  0.0000  0.0000  0.0000  0.0000 </r>
        <r>  0.0203  0.0216  0.0175  0.0641  0.0000  0.0000  0.0000  0.0000  0.0000 </r>
       </set>
       <set comment="band 13">
        <r>  0.0185  0.0413  0.0661  0.0158  0.0000  0.0000  0.0000  0.0000  0.0000 </r>
        <r>  0.0185  0.0413  0.0661  0.0158  0.0000  0.0000  0.0000  0.0000  0.0000 </r>
       </set>
       <set comment="band 14">
        <r>  0.0138  0.0020  0.0263  0.0147  0.0000  0.0000  0.0000  0.0000  0.0000 </r>
        <r>  0.0138  0.0020  0.0263  0.0147  0.0000  0.0000  0.0000  0.0000  0.0000 </r>
       </set>
       <set comment="band 15">
        <r>  0.0040  0.0359  0.0231  0.0580  0.0000  0.0000  0.0000  0.0000  0.0000 </r>
        <r>  0.0040  0.0359  0.0231  0.0580  0.0000  0.0000  0.0000  0.0000  0.0000 </r>
       </set>
       <set comment="band 16">
        <r>  0.0206  0.0071  0.0326  0.0009  0.0000  0.0000  0.0000  0.0000  0.0000 </r>
        <r>  0.0206  0.0071  0.0326  0.0009  0.0000  0.0000  0.0000  0.0000  0.0000 </r>
       </set>
      </set>
      <set comment="kpoint 19">
       <set comment="band 1">
        <r>  0.2027  0.0008  0.0283  0.0032  0.0000  0.0000  0.0000  0.0000  0.0000 </r>
        <r>  0.2027  0.0008  0.0283  0.0032  0.0000  0.0000  0.0000  0.0000  0.0000 </r>
       </set>
       <set comment="band 2">
        <r>  0.1921  0.0007  0.0422  0.0114  0.0000  0.0000  0.0000  0.0000  0.0000 </r>
        <r>  0.1921  0.0007  0.0422  0.0114  0.0000  0.0000  0.0000  0.0000  0.0000 </r>
       </set>
       <set comment="band 3">
        <r>  0.0062  0.0668  0.0180  0.0787  0.0000  0.0000  0.0000  0.0000  0.0000 </r>
        <r>  0.0062  0.0668  0.0180  0.0787  0.0000  0.0000  0.0000  0.0000  0.0000 </r>
       </set>
       <set comment="band 4">
        <r>  0.0000  0.0852  0.0266  0.0612  0.0000  0.0000  0.0000  0.0000  0.0000 </r>
        <r>  0.0000  0.0852  0.0266  0.0612  0.0000  0.0000  0.0000  0.0000  0.0000 </r>
       </set>
       <set comment="band 5">
        <r>  0.0362  0.0291  0.0308  0.0207  0.0000  0.0000  0.0000  0.0000  0.0000 </r>
        <r>  0.0362  0.0291  0.0308  0.0207  0.0000  0.0000  0.0000  0.0000  0.0000 </r>
       </set>
       <set comment="band 6">
        <r>  0.0369  0.0284  0.0210  0.0133  0.0000  0.0000  0.0000  0.0000  0.0000 </r>
        <r>  0.0369  0.0284  0.0210  0.0133  0.0000  0.0000  0.0000  0.0000  0.0000 </r>
       </set>
       <set comment="band 7">
        <r>  0.0316  0.0533  0.0252  0.0363  0.0000  0.0000  0.0000  0.0000  0.0000 </r>
        <r>  0.0316  0.0533  0.0252  0.0363  0.0000  0.0000  0.0000  0.0000  0.0000 </r>
       </set>
       <set comment="band 8">
        <r>  0.0164  0.0804  0.0208  0.0662  0.0000  0.0000  0.0000  0.0000  0.0000 </r>
        <r>  0.0164  0.0804  0.0208  0.0662  0.0000  0.0000  0.0000  0.0000  0.0000 </r>
       </set>
       <set comment="band 9">
        <r>  0.0003  0.0124  0.0343  0.0453  0.0000  0.0000  0.0000  0.0000  0.0000 </r>
        <r>  0.0003  0.0124  0.0343  0.0453  0.0000  0.0000  0.0000  0.0000  0.0000 </r>
       </set>
       <set comment="band 10">
        <r>  0.0286  0.0126  0.0787  0.0016  0.0000  0.0000  0.0000  0.0000  0.0000 </r>
        <r>  0.0286  0.0126  0.0787  0.0016  0.0000  0.0000  0.0000  0.0000  0.0000 </r>
       </set>
       <set comment="band 11">
        <r>  0.0068  0.0242  0.0009  0.0823  0.0000  0.0000  0.0000  0.0000  0.0000 </r>
        <r>  0.0068  0.0242  0.0009  0.0823  0.0000  0.0000  0.0000  0.0000  0.0000 </r>
       </set>
       <set comment="band 12">
        <r>  0.0057  0.0012  0.1098  0.0085  0.0000  0.0000  0.0000  0.0000  0.0000 </r>
        <r>  0.0057  0.0012  0.1098  0.0085  0.0000  0.0000  0.0000  0.0000  0.0000 </r>
       </set>
       <set comment="band 13">
        <r>  0.0287  0.0288  0.0710  0.0141  0.0000  0.0000  0.0000  0.0000  0.0000 </r>
        <r>  0.0287  0.0288  0.0710  0.0141  0.0000  0.0000  0.0000  0.0000  0.0000 </r>
       </set>
       <set comment="band 14">
        <r>  0.0000  0.0008  0.0039  0.0169  0.0000  0.0000  0.0000  0.0000  0.0000 </r>
        <r>  0.0000  0.0008  0.0039  0.0169  0.0000  0.0000  0.0000  0.0000  0.0000 </r>
       </set>
       <set comment="band 15">
        <r>  0.0206  0.0117  0.0159  0.0037  0.0000  0.0000  0.0000  0.0000  0.0000 </r>
        <r>  0.0206  0.0117  0.0159  0.0037  0.0000  0.0000  0.0000  0.0000  0.0000 </r>
       </set>
       <set comment="band 16">
        <r>  0.0257  0.0004  0.0406  0.0109  0.0000  0.0000  0.0000  0.0000  0.0000 </r>
        <r>  0.0257  0.0004  0.0406  0.0109  0.0000  0.0000  0.0000  0.0000  0.0000 </r>
       </set>
      </set>
      <set comment="kpoint 20">
       <set comment="band 1">
        <r>  0.2110  0.0015  0.0168  0.0142  0.0000  0.0000  0.0000  0.0000  0.0000 </r>
        <r>  0.2110  0.0015  0.0168  0.0142  0.0000  0.0000  0.0000  0.0000  0.0000 </r>
       </set>
       <set comment="band 2">
        <r>  0.1905  0.0022  0.0343  0.0150  0.0000  0.0000  0.0000  0.0000  0.0000 </r>
        <r>  0.1905  0.0022  0.0343  0.0150  0.0000  0.0000  0.0000  0.0000  0.0000 </r>
       </set>
       <set comment="band 3">
        <r>  0.0008  0.0591  0.0509  0.0442  0.0000  0.0000  0.0000  0.0000  0.0000 </r>
        <r>  0.0008  0.0591  0.0509  0.0442  0.0000  0.0000  0.0000  0.0000  0.0000 </r>
       </set>
       <set comment="band 4">
        <r>  0.0027  0.0806  0.0217  0.0695  0.0000  0.0000  0.0000  0.0000  0.0000 </r>
        <r>  0.0027  0.0806  0.0217  0.0695  0.0000  0.0000  0.0000  0.0000  0.0000 </r>
       </set>
       <set comment="band 5">
        <r>  0.0357  0.0369  0.0270  0.0121  0.0000  0.0000  0.0000  0.0000  0.0000 </r>
        <r>  0.0357  0.0369  0.0270  0.0121  0.0000  0.0000  0.0000  0.0000  0.0000 </r>
       </set>
       <set comment="band 6">
        <r>  0.0034  0.0800  0.0008  0.0048  0.0000  0.0000  0.0000  0.0000  0.0000 </r>
        <r>  0.0034  0.0800  0.0008  0.0048  0.0000  0.0000  0.0000  0.0000  0.0000 </r>
       </set>
       <set comment="band 7">
        <r>  0.0456  0.0068  0.0519  0.0641  0.0000  0.0000  0.0000  0.0000  0.0000 </r>
        <r>  0.0456  0.0068  0.0519  0.0641  0.0000  0.0000  0.0000  0.0000  0.0000 </r>
       </set>
       <set comment="band 8">
        <r>  0.0381  0.0413  0.0298  0.0245  0.0000  0.0000  0.0000  0.0000  0.0000 </r>
        <r>  0.0381  0.0413  0.0298  0.0245  0.0000  0.0000  0.0000  0.0000  0.0000 </r>
       </set>
       <set comment="band 9">
        <r>  0.0065  0.0382  0.0683  0.0328  0.0000  0.0000  0.0000  0.0000  0.0000 </r>
        <r>  0.0065  0.0382  0.0683  0.0328  0.0000  0.0000  0.0000  0.0000  0.0000 </r>
       </set>
       <set comment="band 10">
        <r>  0.0181  0.0177  0.0015  0.0776  0.0000  0.0000  0.0000  0.0000  0.0000 </r>
        <r>  0.0181  0.0177  0.0015  0.0776  0.0000  0.0000  0.0000  0.0000  0.0000 </r>
       </set>
       <set comment="band 11">
        <r>  0.0111  0.0192  0.1037  0.0008  0.0000  0.0000  0.0000  0.0000  0.0000 </r>
        <r>  0.0111  0.0192  0.1037  0.0008  0.0000  0.0000  0.0000  0.0000  0.0000 </r>
       </set>
       <set comment="band 12">
        <r>  0.0082  0.0028  0.0312  0.0833  0.0000  0.0000  0.0000  0.0000  0.0000 </r>
        <r>  0.0082  0.0028  0.0312  0.0833  0.0000  0.0000  0.0000  0.0000  0.0000 </r>
       </set>
       <set comment="band 13">
        <r>  0.0072  0.0051  0.0118  0.0139  0.0000  0.0000  0.0000  0.0000  0.0000 </r>
        <r>  0.0072  0.0051  0.0118  0.0139  0.0000  0.0000  0.0000  0.0000  0.0000 </r>
       </set>
       <set comment="band 14">
        <r>  0.0268  0.0043  0.0005  0.0016  0.0000  0.0000  0.0000  0.0000  0.0000 </r>
        <r>  0.0268  0.0043  0.0005  0.0016  0.0000  0.0000  0.0000  0.0000  0.0000 </r>
       </set>
       <set comment="band 15">
        <r>  0.0030  0.0284  0.0639  0.0329  0.0000  0.0000  0.0000  0.0000  0.0000 </r>
        <r>  0.0030  0.0284  0.0639  0.0329  0.0000  0.0000  0.0000  0.0000  0.0000 </r>
       </set>
       <set comment="band 16">
        <r>  0.0011  0.0307  0.0759  0.0073  0.0000  0.0000  0.0000  0.0000  0.0000 </r>
        <r>  0.0011  0.0309  0.0759  0.0072  0.0000  0.0000  0.0000  0.0000  0.0000 </r>
       </set>
      </set>
     </set>
    </set>
   </array>
  </projected>
 </calculation>
 <structure name="finalpos" >
  <crystal>
   <varray name="basis" >
    <v>      -0.00000000       2.73487846       2.73487846 </v>
    <v>       2.73487846      -0.00000000       2.73487846 </v>
    <v>       2.73487846       2.73487846       0.00000000 </v>
   </varray>
   <i name="volume">     40.91137613 </i>
   <varray name="rec_basis" >
    <v>      -0.18282348       0.18282348       0.18282348 </v>
    <v>       0.18282348      -0.18282348       0.18282348 </v>
    <v>       0.18282348       0.18282348      -0.18282348 </v>
   </varray>
  </crystal>
  <varray name="positions" >
   <v>       0.12500000       0.12500000       0.12500000 </v>
   <v>       0.87500000       0.87500000       0.87500000 </v>
  </varray>
 </structure>
</modeling>
