<?xml version="1.0" encoding="ISO-8859-1"?>
<modeling>
 <generator>
  <i name="program" type="string">vasp </i>
  <i name="version" type="string">6.4.2  </i>
  <i name="subversion" type="string">20Jul23 (build Oct 18 2023 14:14:43) complex                          parallel </i>
  <i name="platform" type="string">LinuxIFC </i>
  <i name="date" type="string">2024 05 09 </i>
  <i name="time" type="string">11:39:14 </i>
 </generator>
 <incar>
  <i type="string" name="PREC">Accurate</i>
  <i type="string" name="ALGO">Fast</i>
  <i type="int" name="ISPIN">     2</i>
  <i type="int" name="NELM">   100</i>
  <i type="int" name="IBRION">     2</i>
  <i name="EDIFF">      0.00010000</i>
  <i type="int" name="NSW">    99</i>
  <i type="int" name="ISIF">     3</i>
  <i name="ENCUT">    520.00000000</i>
  <v name="MAGMOM">      0.60000000      0.60000000</v>
  <i type="string" name="LREAL">Auto</i>
  <i type="int" name="ISMEAR">     0</i>
  <i name="SIGMA">      0.80000000</i>
  <i type="logical" name="LWAVE"> F  </i>
  <i type="logical" name="LCHARG"> F  </i>
  <i type="int" name="LORBIT">    11</i>
  <i type="logical" name="LASPH"> T  </i>
 </incar>
 <primitive_cell>
  <structure name="primitive_cell" >
   <crystal>
    <varray name="basis" >
     <v>       0.00000000       2.75000000       2.75000000 </v>
     <v>       2.75000000       0.00000000       2.75000000 </v>
     <v>       2.75000000       2.75000000       0.00000000 </v>
    </varray>
    <i name="volume">     41.59375000 </i>
    <varray name="rec_basis" >
     <v>      -0.18181818       0.18181818       0.18181818 </v>
     <v>       0.18181818      -0.18181818       0.18181818 </v>
     <v>       0.18181818       0.18181818      -0.18181818 </v>
    </varray>
   </crystal>
   <varray name="positions" >
    <v>       0.12500000       0.12500000       0.12500000 </v>
    <v>       0.87500000       0.87500000       0.87500000 </v>
   </varray>
  </structure>
  <varray name="primitive_index" >
   <v type="int" >        1 </v>
   <v type="int" >        2 </v>
  </varray>
 </primitive_cell>
 <kpoints>
  <generation param="Gamma">
   <v type="int" name="divisions">       7        7        7 </v>
   <v name="usershift">      0.00000000       0.00000000       0.00000000 </v>
   <v name="genvec1">      0.14285714       0.00000000       0.00000000 </v>
   <v name="genvec2">      0.00000000       0.14285714       0.00000000 </v>
   <v name="genvec3">      0.00000000       0.00000000       0.14285714 </v>
   <v name="shift">      0.00000000       0.00000000       0.00000000 </v>
  </generation>
  <varray name="kpointlist" >
   <v>       0.00000000       0.00000000       0.00000000 </v>
   <v>       0.14285714       0.00000000       0.00000000 </v>
   <v>       0.28571429       0.00000000       0.00000000 </v>
   <v>       0.42857143       0.00000000       0.00000000 </v>
   <v>       0.14285714       0.14285714       0.00000000 </v>
   <v>       0.28571429       0.14285714       0.00000000 </v>
   <v>       0.42857143       0.14285714       0.00000000 </v>
   <v>      -0.42857143       0.14285714       0.00000000 </v>
   <v>      -0.28571429       0.14285714       0.00000000 </v>
   <v>      -0.14285714       0.14285714       0.00000000 </v>
   <v>       0.28571429       0.28571429       0.00000000 </v>
   <v>       0.42857143       0.28571429       0.00000000 </v>
   <v>      -0.42857143       0.28571429       0.00000000 </v>
   <v>      -0.28571429       0.28571429       0.00000000 </v>
   <v>       0.42857143       0.42857143       0.00000000 </v>
   <v>      -0.42857143       0.42857143       0.00000000 </v>
   <v>       0.42857143       0.28571429       0.14285714 </v>
   <v>      -0.42857143       0.28571429       0.14285714 </v>
   <v>      -0.42857143       0.42857143       0.14285714 </v>
   <v>      -0.28571429       0.42857143       0.14285714 </v>
  </varray>
  <varray name="weights" >
   <v>       0.00291545 </v>
   <v>       0.02332362 </v>
   <v>       0.02332362 </v>
   <v>       0.02332362 </v>
   <v>       0.01749271 </v>
   <v>       0.06997085 </v>
   <v>       0.06997085 </v>
   <v>       0.06997085 </v>
   <v>       0.06997085 </v>
   <v>       0.03498542 </v>
   <v>       0.01749271 </v>
   <v>       0.06997085 </v>
   <v>       0.06997085 </v>
   <v>       0.03498542 </v>
   <v>       0.01749271 </v>
   <v>       0.03498542 </v>
   <v>       0.06997085 </v>
   <v>       0.13994169 </v>
   <v>       0.06997085 </v>
   <v>       0.06997085 </v>
  </varray>
 </kpoints>
 <parameters>
  <separator name="general" >
   <i type="string" name="SYSTEM">unknown system</i>
   <i type="logical" name="LCOMPAT"> F  </i>
  </separator>
  <separator name="electronic" >
   <i type="string" name="PREC">accura</i>
   <i name="ENMAX">    520.00000000</i>
   <i name="ENAUG">    322.06900000</i>
   <i name="EDIFF">      0.00010000</i>
   <i type="int" name="IALGO">    68</i>
   <i type="int" name="IWAVPR">    11</i>
   <i type="int" name="NBANDS">    16</i>
   <i type="int" name="NBANDSLOW">    -1</i>
   <i type="int" name="NBANDSHIGH">    -1</i>
   <i name="NELECT">      8.00000000</i>
   <i type="int" name="TURBO">     0</i>
   <i type="int" name="IRESTART">     0</i>
   <i type="int" name="NREBOOT">     0</i>
   <i type="int" name="NMIN">     0</i>
   <i name="EREF">      0.00000000</i>
   <separator name="electronic smearing" >
    <i type="int" name="ISMEAR">     0</i>
    <i name="SIGMA">      0.80000000</i>
    <i name="KSPACING">      0.50000000</i>
    <i type="logical" name="KGAMMA"> T  </i>
    <i type="logical" name="KBLOWUP"> T  </i>
   </separator>
   <separator name="electronic projectors" >
    <i type="logical" name="LREAL"> T  </i>
    <v name="ROPT">     -0.00025000</v>
    <i type="int" name="LMAXPAW">  -100</i>
    <i type="int" name="LMAXMIX">     2</i>
    <i type="logical" name="NLSPLINE"> F  </i>
   </separator>
   <separator name="electronic startup" >
    <i type="int" name="ISTART">     0</i>
    <i type="int" name="ICHARG">     2</i>
    <i type="int" name="INIWAV">     1</i>
   </separator>
   <separator name="electronic spin" >
    <i type="int" name="ISPIN">     2</i>
    <i type="logical" name="LNONCOLLINEAR"> F  </i>
    <v name="MAGMOM">      0.60000000      0.60000000</v>
    <i name="NUPDOWN">     -1.00000000</i>
    <i type="logical" name="LSORBIT"> F  </i>
    <v name="SAXIS">      0.00000000      0.00000000      1.00000000</v>
    <i type="logical" name="LSPIRAL"> F  </i>
    <v name="QSPIRAL">      0.00000000      0.00000000      0.00000000</v>
    <i type="logical" name="LZEROZ"> F  </i>
   </separator>
   <separator name="electronic exchange-correlation" >
    <i type="logical" name="LASPH"> T  </i>
    <i type="logical" name="LMETAGGA"> F  </i>
   </separator>
   <separator name="electronic convergence" >
    <i type="int" name="NELM">   100</i>
    <i type="int" name="NELMDL">    -5</i>
    <i type="int" name="NELMIN">     2</i>
    <i name="ENINI">    520.00000000</i>
    <separator name="electronic convergence detail" >
     <i type="logical" name="LDIAG"> T  </i>
     <i type="logical" name="LSUBROT"> F  </i>
     <i name="WEIMIN">      0.00100000</i>
     <i name="EBREAK">      0.00000156</i>
     <i name="DEPER">      0.30000000</i>
     <i type="int" name="NRMM">     4</i>
     <i name="TIME">      0.40000000</i>
    </separator>
   </separator>
   <separator name="electronic mixer" >
    <i name="AMIX">      0.40000000</i>
    <i name="BMIX">      1.00000000</i>
    <i name="AMIN">      0.10000000</i>
    <i name="AMIX_MAG">      1.60000000</i>
    <i name="BMIX_MAG">      1.00000000</i>
    <separator name="electronic mixer details" >
     <i type="int" name="IMIX">     4</i>
     <i type="logical" name="MIXFIRST"> F  </i>
     <i type="int" name="MAXMIX">   -45</i>
     <i name="WC">    100.00000000</i>
     <i type="int" name="INIMIX">     1</i>
     <i type="int" name="MIXPRE">     1</i>
     <i type="int" name="MREMOVE">     5</i>
    </separator>
   </separator>
   <separator name="electronic dipolcorrection" >
    <i type="logical" name="LDIPOL"> F  </i>
    <i type="logical" name="LMONO"> F  </i>
    <i type="int" name="IDIPOL">     0</i>
    <i name="EPSILON">      1.00000000</i>
    <v name="DIPOL">   -100.00000000   -100.00000000   -100.00000000</v>
    <i name="EFIELD">      0.00000000</i>
   </separator>
  </separator>
  <separator name="grids" >
   <i type="int" name="NGX">    30</i>
   <i type="int" name="NGY">    30</i>
   <i type="int" name="NGZ">    30</i>
   <i type="int" name="NGXF">    60</i>
   <i type="int" name="NGYF">    60</i>
   <i type="int" name="NGZF">    60</i>
   <i type="logical" name="ADDGRID"> F  </i>
  </separator>
  <separator name="ionic" >
   <i type="int" name="NSW">    99</i>
   <i type="int" name="IBRION">     2</i>
   <i type="int" name="MDALGO">     0</i>
   <i type="int" name="ISIF">     3</i>
   <i name="PSTRESS">      0.00000000</i>
   <i name="EDIFFG">      0.00100000</i>
   <i type="int" name="NFREE">     1</i>
   <i name="POTIM">      0.50000000</i>
   <i name="SMASS">     -3.00000000</i>
   <i name="SCALEE">      1.00000000</i>
  </separator>
  <separator name="ionic md" >
   <i name="TEBEG">      0.00010000</i>
   <i name="TEEND">      0.00010000</i>
   <i type="int" name="NBLOCK">     1</i>
   <i type="int" name="KBLOCK">    99</i>
   <i type="int" name="NPACO">   256</i>
   <i name="APACO">     10.00000000</i>
  </separator>
  <separator name="symmetry" >
   <i type="int" name="ISYM">     2</i>
   <i name="SYMPREC">      0.00001000</i>
  </separator>
  <separator name="dos" >
   <i type="int" name="LORBIT">    11</i>
   <v name="RWIGS">     -1.00000000</v>
   <i type="int" name="NEDOS">   301</i>
   <i name="EMIN">     10.00000000</i>
   <i name="EMAX">    -10.00000000</i>
   <i name="EFERMI">      0.00000000</i>
  </separator>
  <separator name="writing" >
   <i type="int" name="NWRITE">     2</i>
   <i type="logical" name="LWAVE"> F  </i>
   <i type="logical" name="LDOWNSAMPLE"> F  </i>
   <i type="logical" name="LCHARG"> F  </i>
   <i type="logical" name="LPARD"> F  </i>
   <i type="logical" name="LVTOT"> F  </i>
   <i type="logical" name="LVHAR"> F  </i>
   <i type="logical" name="LELF"> F  </i>
   <i type="logical" name="LOPTICS"> F  </i>
   <v name="STM">      0.00000000      0.00000000      0.00000000      0.00000000      0.00000000      0.00000000      0.00000000</v>
  </separator>
  <separator name="performance" >
   <i type="int" name="NPAR">     8</i>
   <i type="int" name="NSIM">     4</i>
   <i type="int" name="NBLK">    -1</i>
   <i type="logical" name="LPLANE"> T  </i>
   <i type="logical" name="LSCALAPACK"> F  </i>
   <i type="logical" name="LSCAAWARE"> F  </i>
   <i type="logical" name="LSCALU"> F  </i>
   <i type="logical" name="LASYNC"> F  </i>
   <i type="logical" name="LORBITALREAL"> F  </i>
  </separator>
  <separator name="miscellaneous" >
   <i type="int" name="IDIOT">     3</i>
   <i type="int" name="PHON_NSTRUCT">    -1</i>
   <i type="logical" name="LMUSIC"> F  </i>
   <v name="POMASS">     28.08500000</v>
   <v name="DARWINR">      0.00000000</v>
   <v name="DARWINV">      1.00000000</v>
   <i type="logical" name="LCORR"> T  </i>
  </separator>
  <i type="logical" name="GGA_COMPAT"> T  </i>
  <i type="logical" name="LBERRY"> F  </i>
  <i type="int" name="ICORELEVEL">     0</i>
  <i type="logical" name="LDAU"> F  </i>
  <i type="int" name="I_CONSTRAINED_M">     0</i>
  <separator name="electronic exchange-correlation" >
   <i type="string" name="GGA">--</i>
   <i type="int" name="VOSKOWN">     0</i>
   <i type="logical" name="LHFCALC"> F  </i>
   <i type="string" name="PRECFOCK"></i>
   <i type="logical" name="LSYMGRAD"> F  </i>
   <i type="logical" name="LHFONE"> F  </i>
   <i type="logical" name="LRHFCALC"> F  </i>
   <i type="logical" name="LTHOMAS"> F  </i>
   <i type="logical" name="LMODELHF"> F  </i>
   <i type="logical" name="LFOCKACE"> F  </i>
   <i name="ENCUT4O">     -1.00000000</i>
   <i type="int" name="EXXOEP">     0</i>
   <i type="int" name="FOURORBIT">     0</i>
   <i name="AEXX">      0.00000000</i>
   <i name="HFALPHA">      0.00000000</i>
   <i name="MCALPHA">      0.00000000</i>
   <i name="ALDAX">      1.00000000</i>
   <i name="AGGAX">      1.00000000</i>
   <i name="ALDAC">      1.00000000</i>
   <i name="AGGAC">      1.00000000</i>
   <i type="int" name="NKREDX">     1</i>
   <i type="int" name="NKREDY">     1</i>
   <i type="int" name="NKREDZ">     1</i>
   <i type="logical" name="SHIFTRED"> F  </i>
   <i type="logical" name="ODDONLY"> F  </i>
   <i type="logical" name="EVENONLY"> F  </i>
   <i type="int" name="LMAXFOCK">     0</i>
   <i type="int" name="NMAXFOCKAE">     0</i>
   <i type="logical" name="LFOCKAEDFT"> F  </i>
   <i name="HFSCREEN">      0.00000000</i>
   <i name="HFSCREENC">      0.00000000</i>
   <i type="int" name="NBANDSGWLOW">     0</i>
  </separator>
  <separator name="vdW DFT" >
   <i type="logical" name="LUSE_VDW"> F  </i>
   <i type="int" name="IVDW_NL">     1</i>
   <i type="logical" name="LSPIN_VDW"> F  </i>
   <i name="Zab_VDW">     -0.84910000</i>
   <i name="PARAM1">      0.12340000</i>
   <i name="PARAM2">      1.00000000</i>
   <i name="PARAM3">      0.00000000</i>
  </separator>
  <separator name="model GW" >
   <i type="int" name="MODEL_GW">     0</i>
   <i name="MODEL_EPS0">     12.47812500</i>
   <i name="MODEL_ALPHA">      1.00000000</i>
  </separator>
  <separator name="linear response parameters" >
   <i type="logical" name="LEPSILON"> F  </i>
   <i type="logical" name="LRPA"> F  </i>
   <i type="logical" name="LNABLA"> F  </i>
   <i type="logical" name="LVEL"> F  </i>
   <i name="CSHIFT">      0.10000000</i>
   <i name="OMEGAMAX">     -1.00000000</i>
   <i name="DEG_THRESHOLD">      0.00200000</i>
   <i name="RTIME">     -0.10000000</i>
   <i name="WPLASMAI">      0.00000000</i>
   <v name="DFIELD">      0.00000000      0.00000000      0.00000000</v>
   <v name="WPLASMA">      0.00000000      0.00000000      0.00000000      0.00000000      0.00000000      0.00000000      0.00000000      0.00000000      0.00000000</v>
  </separator>
  <separator name="orbital magnetization" >
   <i type="logical" name="NUCIND"> F  </i>
   <v name="MAGPOS">      0.00000000      0.00000000      0.00000000</v>
   <i type="logical" name="LNICSALL"> T  </i>
   <i type="logical" name="ORBITALMAG"> F  </i>
   <i type="logical" name="LMAGBLOCH"> F  </i>
   <i type="logical" name="LCHIMAG"> F  </i>
   <i type="logical" name="LGAUGE"> T  </i>
   <i type="int" name="MAGATOM">     0</i>
   <v name="MAGDIPOL">      0.00000000      0.00000000      0.00000000</v>
   <v name="AVECCONST">      0.00000000      0.00000000      0.00000000</v>
  </separator>
  <separator name="response functions" >
   <i type="logical" name="LALL_IN_ONE"> F  </i>
   <i type="int" name="IALL_IN_ONE">    -1</i>
   <i type="int" name="NBANDS_WAVE">    -1</i>
   <i type="logical" name="LFINITE_TEMPERATURE"> F  </i>
   <i type="logical" name="LADDER"> F  </i>
   <i type="logical" name="LRPAFORCE"> F  </i>
   <i type="logical" name="LFXC"> F  </i>
   <i type="logical" name="LHARTREE"> T  </i>
   <i type="int" name="IBSE">     0</i>
   <v type="int" name="KPOINT">    -1     0     0     0</v>
   <i type="logical" name="LTCTC"> F  </i>
   <i type="logical" name="LTCTE"> F  </i>
   <i type="logical" name="LTETE"> F  </i>
   <i type="logical" name="LTRIPLET"> F  </i>
   <i type="logical" name="LFXCEPS"> F  </i>
   <i type="logical" name="LFXHEG"> F  </i>
   <i type="int" name="NATURALO">     2</i>
   <i type="logical" name="LHOLEGF"> F  </i>
   <i type="logical" name="L2ORDER"> F  </i>
   <i type="logical" name="LDMP1"> F  </i>
   <i type="logical" name="LMP2LT"> F  </i>
   <i type="logical" name="LSMP2LT"> F  </i>
   <i type="logical" name="LGWLF"> F  </i>
   <i name="ENCUTGW">     -1.60000002</i>
   <i name="ENCUTGWSOFT">     -1.60000002</i>
   <i name="ENCUTLF">     -1.00000000</i>
   <i type="logical" name="LESF_SPLINES"> F  </i>
   <i type="int" name="LMAXMP2">    -1</i>
   <i name="SCISSOR">      0.00000000</i>
   <i type="int" name="NOMEGA">     0</i>
   <i type="int" name="NOMEGAR">     0</i>
   <i type="int" name="NBANDSGW">    -1</i>
   <i type="int" name="NBANDSO">    -1</i>
   <i type="int" name="NBANDSV">    -1</i>
   <i type="int" name="NELMGW">     1</i>
   <i type="int" name="NELMHF">     1</i>
   <i type="int" name="DIM">     3</i>
   <i type="int" name="IESPILON">     4</i>
   <i type="int" name="ANTIRES">     0</i>
   <i name="OMEGAMAX">    -30.00000000</i>
   <i name="OMEGAMIN">    -30.00000000</i>
   <i name="OMEGATL">   -200.00000000</i>
   <i type="int" name="OMEGAGRID">     0</i>
   <i name="CSHIFT">     -0.10000000</i>
   <i type="logical" name="LSELFENERGY"> F  </i>
   <i type="logical" name="LSPECTRAL"> F  </i>
   <i type="logical" name="LSPECTRALGW"> F  </i>
   <i type="logical" name="LSINGLES"> F  </i>
   <i type="logical" name="LFERMIGW"> F  </i>
   <i type="logical" name="ODDONLYGW"> F  </i>
   <i type="logical" name="EVENONLYGW"> F  </i>
   <i type="int" name="NKREDLFX">     1</i>
   <i type="int" name="NKREDLFY">     1</i>
   <i type="int" name="NKREDLFZ">     1</i>
   <i type="int" name="MAXMEM">  2800</i>
   <i type="int" name="TELESCOPE">     0</i>
   <i type="int" name="NTAUPAR">    -1</i>
   <i type="int" name="NOMEGAPAR">    -1</i>
   <i name="DAMP_NEWTON">      0.80000001</i>
   <i name="LAMBDA">      1.00000000</i>
  </separator>
  <separator name="External order field" >
   <i name="OFIELD_KAPPA">      0.00000000</i>
   <v name="OFIELD_K">      0.00000000      0.00000000      0.00000000</v>
   <i name="OFIELD_Q6_NEAR">      0.00000000</i>
   <i name="OFIELD_Q6_FAR">      0.00000000</i>
   <i name="OFIELD_A">      0.00000000</i>
  </separator>
  <separator name="optional k-points parameters" >
   <i type="int" name="KPOINTS_OPT_MODE">     1</i>
   <i type="logical" name="LKPOINTS_OPT"> F  </i>
  </separator>
 </parameters>
 <atominfo>
  <atoms>       2 </atoms>
  <types>       1 </types>
  <array name="atoms" >
   <dimension dim="1">ion</dimension>
   <field type="string">element</field>
   <field type="int">atomtype</field>
   <set>
    <rc><c>Si</c><c>   1</c></rc>
    <rc><c>Si</c><c>   1</c></rc>
   </set>
  </array>
  <array name="atomtypes" >
   <dimension dim="1">type</dimension>
   <field type="int">atomspertype</field>
   <field type="string">element</field>
   <field>mass</field>
   <field>valence</field>
   <field type="string">pseudopotential</field>
   <set>
    <rc><c>   2</c><c>Si</c><c>     28.08500000</c><c>      4.00000000</c><c> PAW_PBE Si 05Jan2001                   </c></rc>
   </set>
  </array>
 </atominfo>
 <structure name="initialpos" >
  <crystal>
   <varray name="basis" >
    <v>       0.00000000       2.75000000       2.75000000 </v>
    <v>       2.75000000       0.00000000       2.75000000 </v>
    <v>       2.75000000       2.75000000       0.00000000 </v>
   </varray>
   <i name="volume">     41.59375000 </i>
   <varray name="rec_basis" >
    <v>      -0.18181818       0.18181818       0.18181818 </v>
    <v>       0.18181818      -0.18181818       0.18181818 </v>
    <v>       0.18181818       0.18181818      -0.18181818 </v>
   </varray>
  </crystal>
  <varray name="positions" >
   <v>       0.12500000       0.12500000       0.12500000 </v>
   <v>       0.87500000       0.87500000       0.87500000 </v>
  </varray>
 </structure>
 <calculation>
  <scstep>
   <time name="dav">    0.21    0.42</time>
   <time name="total">    0.41    0.82</time>
   <energy>
    <i name="alphaZ">      3.23732084 </i>
    <i name="ewald">   -225.65453461 </i>
    <i name="hartreedc">    -11.58535014 </i>
    <i name="XCdc">    -18.67198536 </i>
    <i name="pawpsdc">     65.91709927 </i>
    <i name="pawaedc">    -30.72587073 </i>
    <i name="eentropy">     -0.11478316 </i>
    <i name="bandstr">     16.85217422 </i>
    <i name="atom">    206.13270273 </i>
    <i name="e_fr_energy">      5.38677307 </i>
    <i name="e_wo_entrp">      5.50155623 </i>
    <i name="e_0_energy">      5.44416465 </i>
   </energy>
  </scstep>
  <scstep>
   <time name="dav">    0.26    0.53</time>
   <time name="total">    0.27    0.54</time>
   <energy>
    <i name="e_fr_energy">    -10.40898213 </i>
    <i name="e_wo_entrp">    -10.34864072 </i>
    <i name="e_0_energy">    -10.37881142 </i>
   </energy>
  </scstep>
  <scstep>
   <time name="dav">    0.23    0.48</time>
   <time name="total">    0.24    0.49</time>
   <energy>
    <i name="e_fr_energy">    -10.82946182 </i>
    <i name="e_wo_entrp">    -10.76856196 </i>
    <i name="e_0_energy">    -10.79901189 </i>
   </energy>
  </scstep>
  <scstep>
   <time name="dav">    0.26    0.53</time>
   <time name="total">    0.26    0.53</time>
   <energy>
    <i name="e_fr_energy">    -10.83198587 </i>
    <i name="e_wo_entrp">    -10.77108202 </i>
    <i name="e_0_energy">    -10.80153394 </i>
   </energy>
  </scstep>
  <scstep>
   <time name="dav">    0.23    0.48</time>
   <time name="total">    0.25    0.52</time>
   <energy>
    <i name="e_fr_energy">    -10.83200903 </i>
    <i name="e_wo_entrp">    -10.77110516 </i>
    <i name="e_0_energy">    -10.80155710 </i>
   </energy>
  </scstep>
  <scstep>
   <time name="diag">    0.03    0.07</time>
   <time name="diis">    0.06    0.12</time>
   <time name="orth">    0.01    0.02</time>
   <time name="total">    0.31    0.64</time>
   <energy>
    <i name="e_fr_energy">    -10.89784586 </i>
    <i name="e_wo_entrp">    -10.84155022 </i>
    <i name="e_0_energy">    -10.86969804 </i>
   </energy>
  </scstep>
  <scstep>
   <time name="diag">    0.03    0.07</time>
   <time name="diis">    0.06    0.12</time>
   <time name="orth">    0.01    0.02</time>
   <time name="total">    0.31    0.63</time>
   <energy>
    <i name="e_fr_energy">    -10.84783333 </i>
    <i name="e_wo_entrp">    -10.78293718 </i>
    <i name="e_0_energy">    -10.81538525 </i>
   </energy>
  </scstep>
  <scstep>
   <time name="diag">    0.03    0.07</time>
   <time name="diis">    0.06    0.12</time>
   <time name="orth">    0.01    0.02</time>
   <time name="total">    0.31    0.64</time>
   <energy>
    <i name="e_fr_energy">    -10.85701542 </i>
    <i name="e_wo_entrp">    -10.79078103 </i>
    <i name="e_0_energy">    -10.82389822 </i>
   </energy>
  </scstep>
  <scstep>
   <time name="diag">    0.05    0.09</time>
   <time name="diis">    0.06    0.12</time>
   <time name="orth">    0.01    0.02</time>
   <time name="total">    0.33    0.66</time>
   <energy>
    <i name="e_fr_energy">    -10.85636793 </i>
    <i name="e_wo_entrp">    -10.79057285 </i>
    <i name="e_0_energy">    -10.82347039 </i>
   </energy>
  </scstep>
  <scstep>
   <time name="diag">    0.03    0.07</time>
   <time name="diis">    0.06    0.12</time>
   <time name="orth">    0.01    0.02</time>
   <time name="total">    0.30    0.61</time>
   <energy>
    <i name="alphaZ">      3.23732084 </i>
    <i name="ewald">   -225.65453461 </i>
    <i name="hartreedc">    -15.26127706 </i>
    <i name="XCdc">    -18.15038034 </i>
    <i name="pawpsdc">     72.98057005 </i>
    <i name="pawaedc">    -37.98052743 </i>
    <i name="eentropy">     -0.06499164 </i>
    <i name="bandstr">      3.90469429 </i>
    <i name="atom">    206.13270273 </i>
    <i name="e_fr_energy">    -10.85642317 </i>
    <i name="e_wo_entrp">    -10.79143153 </i>
    <i name="e_0_energy">    -10.82392735 </i>
   </energy>
  </scstep>
  <structure>
   <crystal>
    <varray name="basis" >
     <v>       0.00000000       2.75000000       2.75000000 </v>
     <v>       2.75000000       0.00000000       2.75000000 </v>
     <v>       2.75000000       2.75000000       0.00000000 </v>
    </varray>
    <i name="volume">     41.59375000 </i>
    <varray name="rec_basis" >
     <v>      -0.18181818       0.18181818       0.18181818 </v>
     <v>       0.18181818      -0.18181818       0.18181818 </v>
     <v>       0.18181818       0.18181818      -0.18181818 </v>
    </varray>
   </crystal>
   <varray name="positions" >
    <v>       0.12500000       0.12500000       0.12500000 </v>
    <v>       0.87500000       0.87500000       0.87500000 </v>
   </varray>
  </structure>
  <varray name="forces" >
   <v>       0.00000000       0.00000000       0.00000000 </v>
   <v>      -0.00000000      -0.00000000      -0.00000000 </v>
  </varray>
  <varray name="stress" >
   <v>     -15.46029700       0.00000000      -0.00000000 </v>
   <v>       0.00000000     -15.46029700      -0.00000000 </v>
   <v>       0.00000000      -0.00000000     -15.46029700 </v>
  </varray>
  <energy>
   <i name="e_fr_energy">    -10.85642317 </i>
   <i name="e_wo_entrp">    -10.79143153 </i>
   <i name="e_0_energy">    -10.82392735 </i>
  </energy>
  <time name="totalsc">    3.53    7.21</time>
 </calculation>
 <calculation>
  <scstep>
   <time name="dav">    0.24    0.48</time>
   <time name="total">    0.44    0.88</time>
   <energy>
    <i name="alphaZ">      3.33319627 </i>
    <i name="ewald">   -227.86053527 </i>
    <i name="hartreedc">    -15.42429899 </i>
    <i name="XCdc">    -18.00752172 </i>
    <i name="pawpsdc">     73.00199806 </i>
    <i name="pawaedc">    -38.00291032 </i>
    <i name="eentropy">     -0.06910769 </i>
    <i name="bandstr">      6.03297318 </i>
    <i name="atom">    206.13270273 </i>
    <i name="e_fr_energy">    -10.86350375 </i>
    <i name="e_wo_entrp">    -10.79439606 </i>
    <i name="e_0_energy">    -10.82894991 </i>
   </energy>
  </scstep>
  <scstep>
   <time name="diag">    0.03    0.07</time>
   <time name="diis">    0.06    0.12</time>
   <time name="orth">    0.01    0.02</time>
   <time name="total">    0.30    0.63</time>
   <energy>
    <i name="e_fr_energy">    -10.86052003 </i>
    <i name="e_wo_entrp">    -10.79286047 </i>
    <i name="e_0_energy">    -10.82669025 </i>
   </energy>
  </scstep>
  <scstep>
   <time name="diag">    0.03    0.07</time>
   <time name="diis">    0.06    0.13</time>
   <time name="orth">    0.01    0.02</time>
   <time name="total">    0.31    0.63</time>
   <energy>
    <i name="e_fr_energy">    -10.85896356 </i>
    <i name="e_wo_entrp">    -10.79303698 </i>
    <i name="e_0_energy">    -10.82600027 </i>
   </energy>
  </scstep>
  <scstep>
   <time name="diag">    0.03    0.07</time>
   <time name="diis">    0.06    0.12</time>
   <time name="orth">    0.01    0.02</time>
   <time name="total">    0.29    0.60</time>
   <energy>
    <i name="alphaZ">      3.33319627 </i>
    <i name="ewald">   -227.86053527 </i>
    <i name="hartreedc">    -14.92360861 </i>
    <i name="XCdc">    -18.01818376 </i>
    <i name="pawpsdc">     73.82939492 </i>
    <i name="pawaedc">    -38.85269261 </i>
    <i name="eentropy">     -0.06588110 </i>
    <i name="bandstr">      5.56663040 </i>
    <i name="atom">    206.13270273 </i>
    <i name="e_fr_energy">    -10.85897704 </i>
    <i name="e_wo_entrp">    -10.79309594 </i>
    <i name="e_0_energy">    -10.82603649 </i>
   </energy>
  </scstep>
  <structure>
   <crystal>
    <varray name="basis" >
     <v>       0.00000000       2.72337625       2.72337625 </v>
     <v>       2.72337625      -0.00000000       2.72337625 </v>
     <v>       2.72337625       2.72337625      -0.00000000 </v>
    </varray>
    <i name="volume">     40.39735522 </i>
    <varray name="rec_basis" >
     <v>      -0.18359564       0.18359564       0.18359564 </v>
     <v>       0.18359564      -0.18359564       0.18359564 </v>
     <v>       0.18359564       0.18359564      -0.18359564 </v>
    </varray>
   </crystal>
   <varray name="positions" >
    <v>       0.12500000       0.12500000       0.12500000 </v>
    <v>       0.87500000       0.87500000       0.87500000 </v>
   </varray>
  </structure>
  <varray name="forces" >
   <v>       0.00000000       0.00000000       0.00000000 </v>
   <v>      -0.00000000      -0.00000000      -0.00000000 </v>
  </varray>
  <varray name="stress" >
   <v>      10.06548465      -0.00000000      -0.00000000 </v>
   <v>      -0.00000000      10.06548465      -0.00000000 </v>
   <v>       0.00000000       0.00000000      10.06548465 </v>
  </varray>
  <energy>
   <i name="e_fr_energy">    -10.85897704 </i>
   <i name="e_wo_entrp">    -10.79309594 </i>
   <i name="e_0_energy">    -10.82603649 </i>
  </energy>
  <time name="totalsc">    1.89    3.85</time>
 </calculation>
 <calculation>
  <scstep>
   <time name="dav">    0.23    0.46</time>
   <time name="total">    0.43    0.86</time>
   <energy>
    <i name="alphaZ">      3.29848013 </i>
    <i name="ewald">   -227.06669659 </i>
    <i name="hartreedc">    -14.87430055 </i>
    <i name="XCdc">    -18.06826111 </i>
    <i name="pawpsdc">     73.87055714 </i>
    <i name="pawaedc">    -38.89551745 </i>
    <i name="eentropy">     -0.06441969 </i>
    <i name="bandstr">      4.80655878 </i>
    <i name="atom">    206.13270273 </i>
    <i name="e_fr_energy">    -10.86089660 </i>
    <i name="e_wo_entrp">    -10.79647690 </i>
    <i name="e_0_energy">    -10.82868675 </i>
   </energy>
  </scstep>
  <scstep>
   <time name="diag">    0.03    0.07</time>
   <time name="diis">    0.06    0.12</time>
   <time name="orth">    0.01    0.02</time>
   <time name="total">    0.31    0.63</time>
   <energy>
    <i name="e_fr_energy">    -10.86049376 </i>
    <i name="e_wo_entrp">    -10.79556181 </i>
    <i name="e_0_energy">    -10.82802779 </i>
   </energy>
  </scstep>
  <scstep>
   <time name="diag">    0.03    0.07</time>
   <time name="diis">    0.06    0.12</time>
   <time name="orth">    0.01    0.02</time>
   <time name="total">    0.30    0.63</time>
   <energy>
    <i name="e_fr_energy">    -10.86029549 </i>
    <i name="e_wo_entrp">    -10.79474563 </i>
    <i name="e_0_energy">    -10.82752056 </i>
   </energy>
  </scstep>
  <scstep>
   <time name="diag">    0.04    0.09</time>
   <time name="diis">    0.04    0.09</time>
   <time name="orth">    0.01    0.02</time>
   <time name="total">    0.30    0.60</time>
   <energy>
    <i name="alphaZ">      3.29848013 </i>
    <i name="ewald">   -227.06669659 </i>
    <i name="hartreedc">    -15.05368690 </i>
    <i name="XCdc">    -18.06381109 </i>
    <i name="pawpsdc">     73.58442734 </i>
    <i name="pawaedc">    -38.60256977 </i>
    <i name="eentropy">     -0.06556116 </i>
    <i name="bandstr">      4.97643202 </i>
    <i name="atom">    206.13270273 </i>
    <i name="e_fr_energy">    -10.86028327 </i>
    <i name="e_wo_entrp">    -10.79472212 </i>
    <i name="e_0_energy">    -10.82750270 </i>
   </energy>
  </scstep>
  <structure>
   <crystal>
    <varray name="basis" >
     <v>       0.00000000       2.73289734       2.73289734 </v>
     <v>       2.73289734      -0.00000000       2.73289734 </v>
     <v>       2.73289734       2.73289734      -0.00000000 </v>
    </varray>
    <i name="volume">     40.82253288 </i>
    <varray name="rec_basis" >
     <v>      -0.18295601       0.18295601       0.18295601 </v>
     <v>       0.18295601      -0.18295601       0.18295601 </v>
     <v>       0.18295601       0.18295601      -0.18295601 </v>
    </varray>
   </crystal>
   <varray name="positions" >
    <v>       0.12500000       0.12500000       0.12500000 </v>
    <v>       0.87500000       0.87500000       0.87500000 </v>
   </varray>
  </structure>
  <varray name="forces" >
   <v>      -0.00000000      -0.00000000      -0.00000000 </v>
   <v>       0.00000000       0.00000000       0.00000000 </v>
  </varray>
  <varray name="stress" >
   <v>       0.14922228       0.00000000      -0.00000000 </v>
   <v>       0.00000000       0.14922228      -0.00000000 </v>
   <v>       0.00000000       0.00000000       0.14922228 </v>
  </varray>
  <energy>
   <i name="e_fr_energy">    -10.86028327 </i>
   <i name="e_wo_entrp">    -10.79472212 </i>
   <i name="e_0_energy">    -10.82750270 </i>
  </energy>
  <time name="totalsc">    1.87    3.79</time>
  <eigenvalues>
   <array>
    <dimension dim="1">band</dimension>
    <dimension dim="2">kpoint</dimension>
    <dimension dim="3">spin</dimension>
    <field>eigene</field>
    <field>occ</field>
    <set>
     <set comment="spin 1">
      <set comment="kpoint 1">
       <r>   -6.2052    1.0000 </r>
       <r>    5.6180    0.6809 </r>
       <r>    5.6180    0.6809 </r>
       <r>    5.6180    0.6809 </r>
       <r>    8.1814    0.0000 </r>
       <r>    8.1814    0.0000 </r>
       <r>    8.1814    0.0000 </r>
       <r>    8.7686    0.0000 </r>
       <r>   13.3354    0.0000 </r>
       <r>   13.3354    0.0000 </r>
       <r>   13.5024    0.0000 </r>
       <r>   16.8144    0.0000 </r>
       <r>   16.8144    0.0000 </r>
       <r>   16.8144    0.0000 </r>
       <r>   20.9010    0.0000 </r>
       <r>   28.4929    0.0000 </r>
      </set>
      <set comment="kpoint 2">
       <r>   -5.9435    1.0000 </r>
       <r>    3.6986    0.9999 </r>
       <r>    5.2687    0.8616 </r>
       <r>    5.2687    0.8616 </r>
       <r>    8.0046    0.0001 </r>
       <r>    8.6928    0.0000 </r>
       <r>    8.6928    0.0000 </r>
       <r>   10.4810    0.0000 </r>
       <r>   12.7862    0.0000 </r>
       <r>   12.7862    0.0000 </r>
       <r>   14.4503    0.0000 </r>
       <r>   16.1985    0.0000 </r>
       <r>   18.2506    0.0000 </r>
       <r>   18.2506    0.0000 </r>
       <r>   22.4180    0.0000 </r>
       <r>   26.0134    0.0000 </r>
      </set>
      <set comment="kpoint 3">
       <r>   -5.1903    1.0000 </r>
       <r>    1.1141    1.0000 </r>
       <r>    4.7611    0.9764 </r>
       <r>    4.7611    0.9764 </r>
       <r>    7.4607    0.0027 </r>
       <r>    9.1497    0.0000 </r>
       <r>    9.1497    0.0000 </r>
       <r>   12.9422    0.0000 </r>
       <r>   13.0659    0.0000 </r>
       <r>   13.0659    0.0000 </r>
       <r>   14.4546    0.0000 </r>
       <r>   18.0946    0.0000 </r>
       <r>   20.5158    0.0000 </r>
       <r>   20.5158    0.0000 </r>
       <r>   22.8115    0.0000 </r>
       <r>   22.8202    0.0000 </r>
      </set>
      <set comment="kpoint 4">
       <r>   -4.1716    1.0000 </r>
       <r>   -0.8824    1.0000 </r>
       <r>    4.4758    0.9936 </r>
       <r>    4.4758    0.9936 </r>
       <r>    7.1346    0.0135 </r>
       <r>    9.0122    0.0000 </r>
       <r>    9.0122    0.0000 </r>
       <r>   13.3850    0.0000 </r>
       <r>   15.0512    0.0000 </r>
       <r>   15.0512    0.0000 </r>
       <r>   16.0158    0.0000 </r>
       <r>   18.0753    0.0000 </r>
       <r>   18.0753    0.0000 </r>
       <r>   19.0959    0.0000 </r>
       <r>   23.0227    0.0000 </r>
       <r>   25.3325    0.0000 </r>
      </set>
      <set comment="kpoint 5">
       <r>   -5.8550    1.0000 </r>
       <r>    3.9711    0.9996 </r>
       <r>    4.6685    0.9842 </r>
       <r>    4.6685    0.9842 </r>
       <r>    7.5110    0.0020 </r>
       <r>    9.5591    0.0000 </r>
       <r>    9.5591    0.0000 </r>
       <r>    9.9206    0.0000 </r>
       <r>   12.0403    0.0000 </r>
       <r>   13.7253    0.0000 </r>
       <r>   14.8619    0.0000 </r>
       <r>   17.4221    0.0000 </r>
       <r>   17.4221    0.0000 </r>
       <r>   17.9451    0.0000 </r>
       <r>   23.1774    0.0000 </r>
       <r>   25.5264    0.0000 </r>
      </set>
      <set comment="kpoint 6">
       <r>   -5.2582    1.0000 </r>
       <r>    1.8849    1.0000 </r>
       <r>    4.0866    0.9993 </r>
       <r>    4.1350    0.9990 </r>
       <r>    7.6985    0.0007 </r>
       <r>    9.4554    0.0000 </r>
       <r>   10.1848    0.0000 </r>
       <r>   10.3379    0.0000 </r>
       <r>   13.6436    0.0000 </r>
       <r>   14.1016    0.0000 </r>
       <r>   15.7697    0.0000 </r>
       <r>   17.6159    0.0000 </r>
       <r>   19.0551    0.0000 </r>
       <r>   20.4688    0.0000 </r>
       <r>   22.2182    0.0000 </r>
       <r>   22.8418    0.0000 </r>
      </set>
      <set comment="kpoint 7">
       <r>   -4.2684    1.0000 </r>
       <r>   -0.2619    1.0000 </r>
       <r>    3.4076    1.0000 </r>
       <r>    3.9475    0.9997 </r>
       <r>    7.7559    0.0005 </r>
       <r>    9.4035    0.0000 </r>
       <r>   10.1392    0.0000 </r>
       <r>   11.3725    0.0000 </r>
       <r>   15.0416    0.0000 </r>
       <r>   15.8027    0.0000 </r>
       <r>   16.3994    0.0000 </r>
       <r>   17.7607    0.0000 </r>
       <r>   18.5172    0.0000 </r>
       <r>   21.1775    0.0000 </r>
       <r>   22.9616    0.0000 </r>
       <r>   23.0887    0.0000 </r>
      </set>
      <set comment="kpoint 8">
       <r>   -3.7235    1.0000 </r>
       <r>   -1.1076    1.0000 </r>
       <r>    3.0017    1.0000 </r>
       <r>    4.1402    0.9990 </r>
       <r>    7.8436    0.0003 </r>
       <r>    9.3260    0.0000 </r>
       <r>    9.7531    0.0000 </r>
       <r>   13.7240    0.0000 </r>
       <r>   14.2468    0.0000 </r>
       <r>   14.6214    0.0000 </r>
       <r>   16.5154    0.0000 </r>
       <r>   18.6669    0.0000 </r>
       <r>   19.1759    0.0000 </r>
       <r>   19.6636    0.0000 </r>
       <r>   23.6064    0.0000 </r>
       <r>   25.4058    0.0000 </r>
      </set>
      <set comment="kpoint 9">
       <r>   -4.6296    1.0000 </r>
       <r>    0.4060    1.0000 </r>
       <r>    3.0108    1.0000 </r>
       <r>    4.6438    0.9858 </r>
       <r>    8.2279    0.0000 </r>
       <r>    9.5106    0.0000 </r>
       <r>    9.5316    0.0000 </r>
       <r>   12.1971    0.0000 </r>
       <r>   12.3697    0.0000 </r>
       <r>   15.3981    0.0000 </r>
       <r>   16.6730    0.0000 </r>
       <r>   17.7394    0.0000 </r>
       <r>   19.6405    0.0000 </r>
       <r>   21.4320    0.0000 </r>
       <r>   21.6962    0.0000 </r>
       <r>   22.9824    0.0000 </r>
      </set>
      <set comment="kpoint 10">
       <r>   -5.5146    1.0000 </r>
       <r>    2.4952    1.0000 </r>
       <r>    3.6965    0.9999 </r>
       <r>    5.2255    0.8778 </r>
       <r>    8.6187    0.0000 </r>
       <r>    8.9032    0.0000 </r>
       <r>    9.1473    0.0000 </r>
       <r>   11.1691    0.0000 </r>
       <r>   11.8476    0.0000 </r>
       <r>   14.0632    0.0000 </r>
       <r>   15.6248    0.0000 </r>
       <r>   16.8535    0.0000 </r>
       <r>   18.3011    0.0000 </r>
       <r>   20.6590    0.0000 </r>
       <r>   22.2221    0.0000 </r>
       <r>   24.0030    0.0000 </r>
      </set>
      <set comment="kpoint 11">
       <r>   -4.8212    1.0000 </r>
       <r>    1.4665    1.0000 </r>
       <r>    3.5238    1.0000 </r>
       <r>    3.5238    1.0000 </r>
       <r>    6.5783    0.1098 </r>
       <r>    8.2511    0.0000 </r>
       <r>   11.9435    0.0000 </r>
       <r>   11.9435    0.0000 </r>
       <r>   14.2411    0.0000 </r>
       <r>   14.8921    0.0000 </r>
       <r>   17.6647    0.0000 </r>
       <r>   18.9075    0.0000 </r>
       <r>   18.9075    0.0000 </r>
       <r>   19.8031    0.0000 </r>
       <r>   22.1985    0.0000 </r>
       <r>   22.1986    0.0000 </r>
      </set>
      <set comment="kpoint 12">
       <r>   -3.9342    1.0000 </r>
       <r>   -0.0131    1.0000 </r>
       <r>    2.5652    1.0000 </r>
       <r>    3.2677    1.0000 </r>
       <r>    6.8614    0.0420 </r>
       <r>    8.3324    0.0000 </r>
       <r>   12.1526    0.0000 </r>
       <r>   12.3451    0.0000 </r>
       <r>   16.4482    0.0000 </r>
       <r>   16.7041    0.0000 </r>
       <r>   17.1596    0.0000 </r>
       <r>   17.7401    0.0000 </r>
       <r>   19.6469    0.0000 </r>
       <r>   20.5345    0.0000 </r>
       <r>   21.7944    0.0000 </r>
       <r>   23.3605    0.0000 </r>
      </set>
      <set comment="kpoint 13">
       <r>   -3.0369    1.0000 </r>
       <r>   -1.1670    1.0000 </r>
       <r>    1.6300    1.0000 </r>
       <r>    3.4327    1.0000 </r>
       <r>    7.0991    0.0159 </r>
       <r>   10.5458    0.0000 </r>
       <r>   11.8576    0.0000 </r>
       <r>   11.8871    0.0000 </r>
       <r>   14.5661    0.0000 </r>
       <r>   14.6324    0.0000 </r>
       <r>   18.9198    0.0000 </r>
       <r>   19.2632    0.0000 </r>
       <r>   19.6933    0.0000 </r>
       <r>   22.8576    0.0000 </r>
       <r>   23.0182    0.0000 </r>
       <r>   23.3800    0.0000 </r>
      </set>
      <set comment="kpoint 14">
       <r>   -3.6741    1.0000 </r>
       <r>   -0.4293    1.0000 </r>
       <r>    1.5593    1.0000 </r>
       <r>    3.9714    0.9996 </r>
       <r>    7.6910    0.0007 </r>
       <r>   11.0356    0.0000 </r>
       <r>   11.3667    0.0000 </r>
       <r>   12.1376    0.0000 </r>
       <r>   12.5038    0.0000 </r>
       <r>   13.6875    0.0000 </r>
       <r>   18.8518    0.0000 </r>
       <r>   19.4697    0.0000 </r>
       <r>   20.3098    0.0000 </r>
       <r>   22.0299    0.0000 </r>
       <r>   22.2289    0.0000 </r>
       <r>   23.2579    0.0000 </r>
      </set>
      <set comment="kpoint 15">
       <r>   -3.1617    1.0000 </r>
       <r>   -0.9978    1.0000 </r>
       <r>    2.9021    1.0000 </r>
       <r>    2.9021    1.0000 </r>
       <r>    6.2324    0.2690 </r>
       <r>    6.7497    0.0630 </r>
       <r>   14.5591    0.0000 </r>
       <r>   14.5591    0.0000 </r>
       <r>   16.8259    0.0000 </r>
       <r>   17.1887    0.0000 </r>
       <r>   17.5659    0.0000 </r>
       <r>   17.5659    0.0000 </r>
       <r>   19.2055    0.0000 </r>
       <r>   19.5040    0.0000 </r>
       <r>   22.6799    0.0000 </r>
       <r>   23.4521    0.0000 </r>
      </set>
      <set comment="kpoint 16">
       <r>   -2.2305    1.0000 </r>
       <r>   -1.9413    1.0000 </r>
       <r>    2.0315    1.0000 </r>
       <r>    2.9624    1.0000 </r>
       <r>    6.5332    0.1256 </r>
       <r>    7.7710    0.0004 </r>
       <r>   14.3407    0.0000 </r>
       <r>   14.7511    0.0000 </r>
       <r>   14.9851    0.0000 </r>
       <r>   15.3041    0.0000 </r>
       <r>   19.2251    0.0000 </r>
       <r>   19.2639    0.0000 </r>
       <r>   19.4175    0.0000 </r>
       <r>   20.2627    0.0000 </r>
       <r>   22.5946    0.0000 </r>
       <r>   23.0260    0.0000 </r>
      </set>
      <set comment="kpoint 17">
       <r>   -4.5184    1.0000 </r>
       <r>    0.7474    1.0000 </r>
       <r>    2.5690    1.0000 </r>
       <r>    3.8665    0.9998 </r>
       <r>    8.2014    0.0000 </r>
       <r>    9.4402    0.0000 </r>
       <r>    9.7323    0.0000 </r>
       <r>   11.7028    0.0000 </r>
       <r>   13.8026    0.0000 </r>
       <r>   16.4882    0.0000 </r>
       <r>   16.8789    0.0000 </r>
       <r>   18.0883    0.0000 </r>
       <r>   19.2548    0.0000 </r>
       <r>   20.9915    0.0000 </r>
       <r>   21.1394    0.0000 </r>
       <r>   24.0040    0.0000 </r>
      </set>
      <set comment="kpoint 18">
       <r>   -3.4971    1.0000 </r>
       <r>   -0.7559    1.0000 </r>
       <r>    2.0010    1.0000 </r>
       <r>    3.3428    1.0000 </r>
       <r>    8.6835    0.0000 </r>
       <r>    9.0883    0.0000 </r>
       <r>   11.0511    0.0000 </r>
       <r>   12.1548    0.0000 </r>
       <r>   13.8784    0.0000 </r>
       <r>   15.5192    0.0000 </r>
       <r>   17.7277    0.0000 </r>
       <r>   18.9172    0.0000 </r>
       <r>   20.0523    0.0000 </r>
       <r>   21.5027    0.0000 </r>
       <r>   22.9209    0.0000 </r>
       <r>   23.7027    0.0000 </r>
      </set>
      <set comment="kpoint 19">
       <r>   -2.9624    1.0000 </r>
       <r>   -1.0846    1.0000 </r>
       <r>    2.0958    1.0000 </r>
       <r>    2.5009    1.0000 </r>
       <r>    7.8405    0.0003 </r>
       <r>    8.2111    0.0000 </r>
       <r>   11.7143    0.0000 </r>
       <r>   14.1895    0.0000 </r>
       <r>   14.6844    0.0000 </r>
       <r>   16.5604    0.0000 </r>
       <r>   17.9581    0.0000 </r>
       <r>   19.5252    0.0000 </r>
       <r>   20.0388    0.0000 </r>
       <r>   20.9809    0.0000 </r>
       <r>   22.2626    0.0000 </r>
       <r>   22.9862    0.0000 </r>
      </set>
      <set comment="kpoint 20">
       <r>   -2.5367    1.0000 </r>
       <r>   -1.4738    1.0000 </r>
       <r>    1.4725    1.0000 </r>
       <r>    2.5904    1.0000 </r>
       <r>    8.3623    0.0000 </r>
       <r>   10.4520    0.0000 </r>
       <r>   11.2046    0.0000 </r>
       <r>   11.3593    0.0000 </r>
       <r>   14.5988    0.0000 </r>
       <r>   15.7642    0.0000 </r>
       <r>   18.6700    0.0000 </r>
       <r>   19.9535    0.0000 </r>
       <r>   20.7972    0.0000 </r>
       <r>   21.9190    0.0000 </r>
       <r>   23.0488    0.0000 </r>
       <r>   23.8670    0.0000 </r>
      </set>
     </set>
     <set comment="spin 2">
      <set comment="kpoint 1">
       <r>   -6.2045    1.0000 </r>
       <r>    5.6188    0.6804 </r>
       <r>    5.6188    0.6804 </r>
       <r>    5.6188    0.6804 </r>
       <r>    8.1821    0.0000 </r>
       <r>    8.1821    0.0000 </r>
       <r>    8.1821    0.0000 </r>
       <r>    8.7697    0.0000 </r>
       <r>   13.3355    0.0000 </r>
       <r>   13.3355    0.0000 </r>
       <r>   13.5025    0.0000 </r>
       <r>   16.8146    0.0000 </r>
       <r>   16.8146    0.0000 </r>
       <r>   16.8146    0.0000 </r>
       <r>   20.9007    0.0000 </r>
       <r>   28.4925    0.0000 </r>
      </set>
      <set comment="kpoint 2">
       <r>   -5.9428    1.0000 </r>
       <r>    3.6995    0.9999 </r>
       <r>    5.2695    0.8613 </r>
       <r>    5.2695    0.8613 </r>
       <r>    8.0054    0.0001 </r>
       <r>    8.6935    0.0000 </r>
       <r>    8.6935    0.0000 </r>
       <r>   10.4820    0.0000 </r>
       <r>   12.7864    0.0000 </r>
       <r>   12.7864    0.0000 </r>
       <r>   14.4505    0.0000 </r>
       <r>   16.1986    0.0000 </r>
       <r>   18.2508    0.0000 </r>
       <r>   18.2508    0.0000 </r>
       <r>   22.4179    0.0000 </r>
       <r>   26.0135    0.0000 </r>
      </set>
      <set comment="kpoint 3">
       <r>   -5.1895    1.0000 </r>
       <r>    1.1148    1.0000 </r>
       <r>    4.7619    0.9764 </r>
       <r>    4.7619    0.9764 </r>
       <r>    7.4615    0.0026 </r>
       <r>    9.1503    0.0000 </r>
       <r>    9.1503    0.0000 </r>
       <r>   12.9430    0.0000 </r>
       <r>   13.0661    0.0000 </r>
       <r>   13.0661    0.0000 </r>
       <r>   14.4548    0.0000 </r>
       <r>   18.0950    0.0000 </r>
       <r>   20.5160    0.0000 </r>
       <r>   20.5160    0.0000 </r>
       <r>   22.8117    0.0000 </r>
       <r>   22.8274    0.0000 </r>
      </set>
      <set comment="kpoint 4">
       <r>   -4.1708    1.0000 </r>
       <r>   -0.8817    1.0000 </r>
       <r>    4.4766    0.9936 </r>
       <r>    4.4766    0.9936 </r>
       <r>    7.1353    0.0135 </r>
       <r>    9.0127    0.0000 </r>
       <r>    9.0127    0.0000 </r>
       <r>   13.3852    0.0000 </r>
       <r>   15.0514    0.0000 </r>
       <r>   15.0514    0.0000 </r>
       <r>   16.0165    0.0000 </r>
       <r>   18.0757    0.0000 </r>
       <r>   18.0757    0.0000 </r>
       <r>   19.0968    0.0000 </r>
       <r>   23.0228    0.0000 </r>
       <r>   25.3326    0.0000 </r>
      </set>
      <set comment="kpoint 5">
       <r>   -5.8542    1.0000 </r>
       <r>    3.9719    0.9996 </r>
       <r>    4.6693    0.9841 </r>
       <r>    4.6693    0.9841 </r>
       <r>    7.5116    0.0020 </r>
       <r>    9.5598    0.0000 </r>
       <r>    9.5598    0.0000 </r>
       <r>    9.9215    0.0000 </r>
       <r>   12.0407    0.0000 </r>
       <r>   13.7254    0.0000 </r>
       <r>   14.8621    0.0000 </r>
       <r>   17.4223    0.0000 </r>
       <r>   17.4223    0.0000 </r>
       <r>   17.9451    0.0000 </r>
       <r>   23.1773    0.0000 </r>
       <r>   25.5266    0.0000 </r>
      </set>
      <set comment="kpoint 6">
       <r>   -5.2574    1.0000 </r>
       <r>    1.8857    1.0000 </r>
       <r>    4.0874    0.9993 </r>
       <r>    4.1358    0.9990 </r>
       <r>    7.6991    0.0007 </r>
       <r>    9.4562    0.0000 </r>
       <r>   10.1851    0.0000 </r>
       <r>   10.3385    0.0000 </r>
       <r>   13.6443    0.0000 </r>
       <r>   14.1018    0.0000 </r>
       <r>   15.7699    0.0000 </r>
       <r>   17.6161    0.0000 </r>
       <r>   19.0553    0.0000 </r>
       <r>   20.4689    0.0000 </r>
       <r>   22.2184    0.0000 </r>
       <r>   22.8422    0.0000 </r>
      </set>
      <set comment="kpoint 7">
       <r>   -4.2676    1.0000 </r>
       <r>   -0.2611    1.0000 </r>
       <r>    3.4083    1.0000 </r>
       <r>    3.9483    0.9997 </r>
       <r>    7.7564    0.0005 </r>
       <r>    9.4042    0.0000 </r>
       <r>   10.1397    0.0000 </r>
       <r>   11.3729    0.0000 </r>
       <r>   15.0418    0.0000 </r>
       <r>   15.8029    0.0000 </r>
       <r>   16.4001    0.0000 </r>
       <r>   17.7611    0.0000 </r>
       <r>   18.5178    0.0000 </r>
       <r>   21.1777    0.0000 </r>
       <r>   22.9620    0.0000 </r>
       <r>   23.0888    0.0000 </r>
      </set>
      <set comment="kpoint 8">
       <r>   -3.7227    1.0000 </r>
       <r>   -1.1069    1.0000 </r>
       <r>    3.0025    1.0000 </r>
       <r>    4.1410    0.9990 </r>
       <r>    7.8441    0.0003 </r>
       <r>    9.3265    0.0000 </r>
       <r>    9.7536    0.0000 </r>
       <r>   13.7245    0.0000 </r>
       <r>   14.2471    0.0000 </r>
       <r>   14.6216    0.0000 </r>
       <r>   16.5157    0.0000 </r>
       <r>   18.6672    0.0000 </r>
       <r>   19.1763    0.0000 </r>
       <r>   19.6645    0.0000 </r>
       <r>   23.6065    0.0000 </r>
       <r>   25.4057    0.0000 </r>
      </set>
      <set comment="kpoint 9">
       <r>   -4.6288    1.0000 </r>
       <r>    0.4068    1.0000 </r>
       <r>    3.0116    1.0000 </r>
       <r>    4.6447    0.9858 </r>
       <r>    8.2286    0.0000 </r>
       <r>    9.5112    0.0000 </r>
       <r>    9.5321    0.0000 </r>
       <r>   12.1977    0.0000 </r>
       <r>   12.3699    0.0000 </r>
       <r>   15.3984    0.0000 </r>
       <r>   16.6736    0.0000 </r>
       <r>   17.7398    0.0000 </r>
       <r>   19.6406    0.0000 </r>
       <r>   21.4323    0.0000 </r>
       <r>   21.6964    0.0000 </r>
       <r>   22.9827    0.0000 </r>
      </set>
      <set comment="kpoint 10">
       <r>   -5.5138    1.0000 </r>
       <r>    2.4960    1.0000 </r>
       <r>    3.6973    0.9999 </r>
       <r>    5.2264    0.8775 </r>
       <r>    8.6195    0.0000 </r>
       <r>    8.9039    0.0000 </r>
       <r>    9.1478    0.0000 </r>
       <r>   11.1697    0.0000 </r>
       <r>   11.8477    0.0000 </r>
       <r>   14.0637    0.0000 </r>
       <r>   15.6252    0.0000 </r>
       <r>   16.8535    0.0000 </r>
       <r>   18.3013    0.0000 </r>
       <r>   20.6591    0.0000 </r>
       <r>   22.2224    0.0000 </r>
       <r>   24.0030    0.0000 </r>
      </set>
      <set comment="kpoint 11">
       <r>   -4.8204    1.0000 </r>
       <r>    1.4674    1.0000 </r>
       <r>    3.5246    1.0000 </r>
       <r>    3.5246    1.0000 </r>
       <r>    6.5788    0.1097 </r>
       <r>    8.2514    0.0000 </r>
       <r>   11.9441    0.0000 </r>
       <r>   11.9441    0.0000 </r>
       <r>   14.2420    0.0000 </r>
       <r>   14.8922    0.0000 </r>
       <r>   17.6651    0.0000 </r>
       <r>   18.9077    0.0000 </r>
       <r>   18.9077    0.0000 </r>
       <r>   19.8030    0.0000 </r>
       <r>   22.1989    0.0000 </r>
       <r>   22.1989    0.0000 </r>
      </set>
      <set comment="kpoint 12">
       <r>   -3.9334    1.0000 </r>
       <r>   -0.0122    1.0000 </r>
       <r>    2.5659    1.0000 </r>
       <r>    3.2685    1.0000 </r>
       <r>    6.8618    0.0419 </r>
       <r>    8.3328    0.0000 </r>
       <r>   12.1533    0.0000 </r>
       <r>   12.3457    0.0000 </r>
       <r>   16.4484    0.0000 </r>
       <r>   16.7050    0.0000 </r>
       <r>   17.1600    0.0000 </r>
       <r>   17.7404    0.0000 </r>
       <r>   19.6471    0.0000 </r>
       <r>   20.5347    0.0000 </r>
       <r>   21.7945    0.0000 </r>
       <r>   23.3604    0.0000 </r>
      </set>
      <set comment="kpoint 13">
       <r>   -3.0361    1.0000 </r>
       <r>   -1.1662    1.0000 </r>
       <r>    1.6307    1.0000 </r>
       <r>    3.4335    1.0000 </r>
       <r>    7.0995    0.0158 </r>
       <r>   10.5462    0.0000 </r>
       <r>   11.8581    0.0000 </r>
       <r>   11.8878    0.0000 </r>
       <r>   14.5668    0.0000 </r>
       <r>   14.6326    0.0000 </r>
       <r>   18.9199    0.0000 </r>
       <r>   19.2634    0.0000 </r>
       <r>   19.6942    0.0000 </r>
       <r>   22.8578    0.0000 </r>
       <r>   23.0184    0.0000 </r>
       <r>   23.3803    0.0000 </r>
      </set>
      <set comment="kpoint 14">
       <r>   -3.6733    1.0000 </r>
       <r>   -0.4285    1.0000 </r>
       <r>    1.5600    1.0000 </r>
       <r>    3.9722    0.9996 </r>
       <r>    7.6914    0.0007 </r>
       <r>   11.0363    0.0000 </r>
       <r>   11.3670    0.0000 </r>
       <r>   12.1383    0.0000 </r>
       <r>   12.5040    0.0000 </r>
       <r>   13.6881    0.0000 </r>
       <r>   18.8519    0.0000 </r>
       <r>   19.4698    0.0000 </r>
       <r>   20.3104    0.0000 </r>
       <r>   22.0298    0.0000 </r>
       <r>   22.2294    0.0000 </r>
       <r>   23.2578    0.0000 </r>
      </set>
      <set comment="kpoint 15">
       <r>   -3.1609    1.0000 </r>
       <r>   -0.9969    1.0000 </r>
       <r>    2.9029    1.0000 </r>
       <r>    2.9029    1.0000 </r>
       <r>    6.2328    0.2687 </r>
       <r>    6.7501    0.0629 </r>
       <r>   14.5598    0.0000 </r>
       <r>   14.5598    0.0000 </r>
       <r>   16.8260    0.0000 </r>
       <r>   17.1897    0.0000 </r>
       <r>   17.5661    0.0000 </r>
       <r>   17.5661    0.0000 </r>
       <r>   19.2063    0.0000 </r>
       <r>   19.5041    0.0000 </r>
       <r>   22.6798    0.0000 </r>
       <r>   23.4524    0.0000 </r>
      </set>
      <set comment="kpoint 16">
       <r>   -2.2296    1.0000 </r>
       <r>   -1.9404    1.0000 </r>
       <r>    2.0322    1.0000 </r>
       <r>    2.9632    1.0000 </r>
       <r>    6.5335    0.1254 </r>
       <r>    7.7715    0.0004 </r>
       <r>   14.3415    0.0000 </r>
       <r>   14.7520    0.0000 </r>
       <r>   14.9854    0.0000 </r>
       <r>   15.3042    0.0000 </r>
       <r>   19.2260    0.0000 </r>
       <r>   19.2639    0.0000 </r>
       <r>   19.4178    0.0000 </r>
       <r>   20.2633    0.0000 </r>
       <r>   22.5945    0.0000 </r>
       <r>   23.0260    0.0000 </r>
      </set>
      <set comment="kpoint 17">
       <r>   -4.5176    1.0000 </r>
       <r>    0.7483    1.0000 </r>
       <r>    2.5698    1.0000 </r>
       <r>    3.8672    0.9998 </r>
       <r>    8.2020    0.0000 </r>
       <r>    9.4407    0.0000 </r>
       <r>    9.7328    0.0000 </r>
       <r>   11.7035    0.0000 </r>
       <r>   13.8031    0.0000 </r>
       <r>   16.4887    0.0000 </r>
       <r>   16.8795    0.0000 </r>
       <r>   18.0883    0.0000 </r>
       <r>   19.2550    0.0000 </r>
       <r>   20.9918    0.0000 </r>
       <r>   21.1396    0.0000 </r>
       <r>   24.0115    0.0000 </r>
      </set>
      <set comment="kpoint 18">
       <r>   -3.4962    1.0000 </r>
       <r>   -0.7551    1.0000 </r>
       <r>    2.0017    1.0000 </r>
       <r>    3.3436    1.0000 </r>
       <r>    8.6840    0.0000 </r>
       <r>    9.0888    0.0000 </r>
       <r>   11.0516    0.0000 </r>
       <r>   12.1554    0.0000 </r>
       <r>   13.8789    0.0000 </r>
       <r>   15.5196    0.0000 </r>
       <r>   17.7279    0.0000 </r>
       <r>   18.9176    0.0000 </r>
       <r>   20.0529    0.0000 </r>
       <r>   21.5029    0.0000 </r>
       <r>   22.9213    0.0000 </r>
       <r>   23.7029    0.0000 </r>
      </set>
      <set comment="kpoint 19">
       <r>   -2.9615    1.0000 </r>
       <r>   -1.0837    1.0000 </r>
       <r>    2.0965    1.0000 </r>
       <r>    2.5016    1.0000 </r>
       <r>    7.8410    0.0003 </r>
       <r>    8.2115    0.0000 </r>
       <r>   11.7149    0.0000 </r>
       <r>   14.1902    0.0000 </r>
       <r>   14.6847    0.0000 </r>
       <r>   16.5609    0.0000 </r>
       <r>   17.9585    0.0000 </r>
       <r>   19.5257    0.0000 </r>
       <r>   20.0393    0.0000 </r>
       <r>   20.9809    0.0000 </r>
       <r>   22.2628    0.0000 </r>
       <r>   22.9864    0.0000 </r>
      </set>
      <set comment="kpoint 20">
       <r>   -2.5358    1.0000 </r>
       <r>   -1.4730    1.0000 </r>
       <r>    1.4731    1.0000 </r>
       <r>    2.5911    1.0000 </r>
       <r>    8.3627    0.0000 </r>
       <r>   10.4523    0.0000 </r>
       <r>   11.2053    0.0000 </r>
       <r>   11.3599    0.0000 </r>
       <r>   14.5993    0.0000 </r>
       <r>   15.7647    0.0000 </r>
       <r>   18.6705    0.0000 </r>
       <r>   19.9540    0.0000 </r>
       <r>   20.7972    0.0000 </r>
       <r>   21.9190    0.0000 </r>
       <r>   23.0492    0.0000 </r>
       <r>   23.8673    0.0000 </r>
      </set>
     </set>
    </set>
   </array>
  </eigenvalues>
  <separator name="orbital magnetization" >
   <v name="MAGDIPOLOUT">      0.00000000      0.00000000      0.00000000</v>
  </separator>
  <dos>
   <i name="efermi">      5.88400469 </i>
   <total>
    <array>
     <dimension dim="1">gridpoints</dimension>
     <dimension dim="2">spin</dimension>
     <field>energy</field>
     <field>total</field>
     <field>integrated</field>
     <set>
      <set comment="spin 1">
       <r>   -14.2052     0.0000     0.0000 </r>
       <r>   -14.0362     0.0000     0.0000 </r>
       <r>   -13.8672     0.0000     0.0000 </r>
       <r>   -13.6982     0.0000     0.0000 </r>
       <r>   -13.5293     0.0000     0.0000 </r>
       <r>   -13.3603     0.0000     0.0000 </r>
       <r>   -13.1913     0.0000     0.0000 </r>
       <r>   -13.0223     0.0000     0.0000 </r>
       <r>   -12.8533     0.0000     0.0000 </r>
       <r>   -12.6843     0.0000     0.0000 </r>
       <r>   -12.5153     0.0000     0.0000 </r>
       <r>   -12.3463     0.0000     0.0000 </r>
       <r>   -12.1773     0.0000     0.0000 </r>
       <r>   -12.0083     0.0000     0.0000 </r>
       <r>   -11.8393     0.0000     0.0000 </r>
       <r>   -11.6703     0.0000     0.0000 </r>
       <r>   -11.5013     0.0000     0.0000 </r>
       <r>   -11.3323     0.0000     0.0000 </r>
       <r>   -11.1633     0.0000     0.0000 </r>
       <r>   -10.9943     0.0000     0.0000 </r>
       <r>   -10.8254     0.0000     0.0000 </r>
       <r>   -10.6564     0.0000     0.0000 </r>
       <r>   -10.4874     0.0000     0.0000 </r>
       <r>   -10.3184     0.0000     0.0000 </r>
       <r>   -10.1494     0.0000     0.0000 </r>
       <r>    -9.9804     0.0000     0.0000 </r>
       <r>    -9.8114     0.0000     0.0000 </r>
       <r>    -9.6424     0.0000     0.0000 </r>
       <r>    -9.4734     0.0000     0.0000 </r>
       <r>    -9.3044     0.0000     0.0000 </r>
       <r>    -9.1354     0.0000     0.0000 </r>
       <r>    -8.9664     0.0000     0.0000 </r>
       <r>    -8.7974     0.0000     0.0000 </r>
       <r>    -8.6284     0.0000     0.0000 </r>
       <r>    -8.4594     0.0000     0.0000 </r>
       <r>    -8.2904     0.0000     0.0000 </r>
       <r>    -8.1215     0.0000     0.0000 </r>
       <r>    -7.9525     0.0000     0.0000 </r>
       <r>    -7.7835     0.0001     0.0000 </r>
       <r>    -7.6145     0.0003     0.0001 </r>
       <r>    -7.4455     0.0007     0.0002 </r>
       <r>    -7.2765     0.0015     0.0005 </r>
       <r>    -7.1075     0.0032     0.0010 </r>
       <r>    -6.9385     0.0061     0.0020 </r>
       <r>    -6.7695     0.0110     0.0039 </r>
       <r>    -6.6005     0.0183     0.0070 </r>
       <r>    -6.4315     0.0288     0.0118 </r>
       <r>    -6.2625     0.0426     0.0190 </r>
       <r>    -6.0935     0.0596     0.0291 </r>
       <r>    -5.9245     0.0793     0.0425 </r>
       <r>    -5.7555     0.1009     0.0596 </r>
       <r>    -5.5865     0.1234     0.0804 </r>
       <r>    -5.4176     0.1462     0.1051 </r>
       <r>    -5.2486     0.1691     0.1337 </r>
       <r>    -5.0796     0.1920     0.1662 </r>
       <r>    -4.9106     0.2151     0.2025 </r>
       <r>    -4.7416     0.2386     0.2428 </r>
       <r>    -4.5726     0.2621     0.2871 </r>
       <r>    -4.4036     0.2849     0.3353 </r>
       <r>    -4.2346     0.3059     0.3870 </r>
       <r>    -4.0656     0.3241     0.4417 </r>
       <r>    -3.8966     0.3379     0.4988 </r>
       <r>    -3.7276     0.3459     0.5573 </r>
       <r>    -3.5586     0.3467     0.6159 </r>
       <r>    -3.3896     0.3396     0.6733 </r>
       <r>    -3.2206     0.3248     0.7282 </r>
       <r>    -3.0516     0.3036     0.7795 </r>
       <r>    -2.8827     0.2782     0.8265 </r>
       <r>    -2.7137     0.2512     0.8689 </r>
       <r>    -2.5447     0.2259     0.9071 </r>
       <r>    -2.3757     0.2053     0.9418 </r>
       <r>    -2.2067     0.1927     0.9744 </r>
       <r>    -2.0377     0.1905     1.0066 </r>
       <r>    -1.8687     0.2005     1.0404 </r>
       <r>    -1.6997     0.2225     1.0780 </r>
       <r>    -1.5307     0.2539     1.1209 </r>
       <r>    -1.3617     0.2895     1.1699 </r>
       <r>    -1.1927     0.3228     1.2244 </r>
       <r>    -1.0237     0.3473     1.2831 </r>
       <r>    -0.8547     0.3587     1.3437 </r>
       <r>    -0.6857     0.3556     1.4038 </r>
       <r>    -0.5167     0.3400     1.4613 </r>
       <r>    -0.3477     0.3160     1.5147 </r>
       <r>    -0.1788     0.2885     1.5634 </r>
       <r>    -0.0098     0.2616     1.6077 </r>
       <r>     0.1592     0.2383     1.6479 </r>
       <r>     0.3282     0.2204     1.6852 </r>
       <r>     0.4972     0.2092     1.7205 </r>
       <r>     0.6662     0.2063     1.7554 </r>
       <r>     0.8352     0.2132     1.7914 </r>
       <r>     1.0042     0.2313     1.8305 </r>
       <r>     1.1732     0.2613     1.8747 </r>
       <r>     1.3422     0.3021     1.9257 </r>
       <r>     1.5112     0.3507     1.9850 </r>
       <r>     1.6802     0.4028     2.0531 </r>
       <r>     1.8492     0.4536     2.1297 </r>
       <r>     2.0182     0.4993     2.2141 </r>
       <r>     2.1872     0.5380     2.3050 </r>
       <r>     2.3562     0.5697     2.4013 </r>
       <r>     2.5251     0.5958     2.5020 </r>
       <r>     2.6941     0.6179     2.6064 </r>
       <r>     2.8631     0.6370     2.7140 </r>
       <r>     3.0321     0.6530     2.8244 </r>
       <r>     3.2011     0.6646     2.9367 </r>
       <r>     3.3701     0.6696     3.0499 </r>
       <r>     3.5391     0.6658     3.1624 </r>
       <r>     3.7081     0.6516     3.2725 </r>
       <r>     3.8771     0.6260     3.3783 </r>
       <r>     4.0461     0.5890     3.4778 </r>
       <r>     4.2151     0.5419     3.5694 </r>
       <r>     4.3841     0.4869     3.6517 </r>
       <r>     4.5531     0.4272     3.7239 </r>
       <r>     4.7221     0.3663     3.7858 </r>
       <r>     4.8911     0.3073     3.8377 </r>
       <r>     5.0601     0.2529     3.8804 </r>
       <r>     5.2290     0.2050     3.9151 </r>
       <r>     5.3980     0.1649     3.9430 </r>
       <r>     5.5670     0.1339     3.9656 </r>
       <r>     5.7360     0.1131     3.9847 </r>
       <r>     5.9050     0.1035     4.0022 </r>
       <r>     6.0740     0.1055     4.0200 </r>
       <r>     6.2430     0.1186     4.0401 </r>
       <r>     6.4120     0.1416     4.0640 </r>
       <r>     6.5810     0.1725     4.0931 </r>
       <r>     6.7500     0.2100     4.1286 </r>
       <r>     6.9190     0.2535     4.1715 </r>
       <r>     7.0880     0.3030     4.2227 </r>
       <r>     7.2570     0.3591     4.2834 </r>
       <r>     7.4260     0.4210     4.3545 </r>
       <r>     7.5950     0.4864     4.4367 </r>
       <r>     7.7639     0.5509     4.5298 </r>
       <r>     7.9329     0.6094     4.6328 </r>
       <r>     8.1019     0.6579     4.7440 </r>
       <r>     8.2709     0.6951     4.8614 </r>
       <r>     8.4399     0.7223     4.9835 </r>
       <r>     8.6089     0.7428     5.1090 </r>
       <r>     8.7779     0.7599     5.2375 </r>
       <r>     8.9469     0.7744     5.3683 </r>
       <r>     9.1159     0.7843     5.5009 </r>
       <r>     9.2849     0.7855     5.6336 </r>
       <r>     9.4539     0.7735     5.7643 </r>
       <r>     9.6229     0.7467     5.8905 </r>
       <r>     9.7919     0.7070     6.0100 </r>
       <r>     9.9609     0.6598     6.1215 </r>
       <r>    10.1299     0.6125     6.2250 </r>
       <r>    10.2989     0.5722     6.3217 </r>
       <r>    10.4678     0.5444     6.4137 </r>
       <r>    10.6368     0.5319     6.5036 </r>
       <r>    10.8058     0.5356     6.5941 </r>
       <r>    10.9748     0.5542     6.6878 </r>
       <r>    11.1438     0.5843     6.7865 </r>
       <r>    11.3128     0.6215     6.8915 </r>
       <r>    11.4818     0.6600     7.0031 </r>
       <r>    11.6508     0.6930     7.1202 </r>
       <r>    11.8198     0.7135     7.2408 </r>
       <r>    11.9888     0.7150     7.3616 </r>
       <r>    12.1578     0.6934     7.4788 </r>
       <r>    12.3268     0.6494     7.5885 </r>
       <r>    12.4958     0.5888     7.6880 </r>
       <r>    12.6648     0.5227     7.7764 </r>
       <r>    12.8338     0.4645     7.8549 </r>
       <r>    13.0028     0.4266     7.9270 </r>
       <r>    13.1717     0.4171     7.9974 </r>
       <r>    13.3407     0.4379     8.0715 </r>
       <r>    13.5097     0.4849     8.1534 </r>
       <r>    13.6787     0.5490     8.2462 </r>
       <r>    13.8477     0.6189     8.3508 </r>
       <r>    14.0167     0.6837     8.4663 </r>
       <r>    14.1857     0.7347     8.5905 </r>
       <r>    14.3547     0.7666     8.7200 </r>
       <r>    14.5237     0.7775     8.8514 </r>
       <r>    14.6927     0.7692     8.9814 </r>
       <r>    14.8617     0.7461     9.1075 </r>
       <r>    15.0307     0.7145     9.2282 </r>
       <r>    15.1997     0.6807     9.3432 </r>
       <r>    15.3687     0.6499     9.4531 </r>
       <r>    15.5377     0.6256     9.5588 </r>
       <r>    15.7067     0.6095     9.6618 </r>
       <r>    15.8756     0.6020     9.7636 </r>
       <r>    16.0446     0.6026     9.8654 </r>
       <r>    16.2136     0.6092     9.9683 </r>
       <r>    16.3826     0.6184    10.0728 </r>
       <r>    16.5516     0.6266    10.1787 </r>
       <r>    16.7206     0.6313    10.2854 </r>
       <r>    16.8896     0.6332    10.3924 </r>
       <r>    17.0586     0.6361    10.4999 </r>
       <r>    17.2276     0.6441    10.6088 </r>
       <r>    17.3966     0.6594    10.7202 </r>
       <r>    17.5656     0.6804    10.8352 </r>
       <r>    17.7346     0.7024    10.9539 </r>
       <r>    17.9036     0.7207    11.0757 </r>
       <r>    18.0726     0.7342    11.1997 </r>
       <r>    18.2416     0.7456    11.3257 </r>
       <r>    18.4106     0.7606    11.4543 </r>
       <r>    18.5795     0.7837    11.5867 </r>
       <r>    18.7485     0.8157    11.7246 </r>
       <r>    18.9175     0.8525    11.8686 </r>
       <r>    19.0865     0.8865    12.0184 </r>
       <r>    19.2555     0.9096    12.1722 </r>
       <r>    19.4245     0.9159    12.3269 </r>
       <r>    19.5935     0.9035    12.4796 </r>
       <r>    19.7625     0.8741    12.6273 </r>
       <r>    19.9315     0.8325    12.7680 </r>
       <r>    20.1005     0.7851    12.9007 </r>
       <r>    20.2695     0.7381    13.0254 </r>
       <r>    20.4385     0.6967    13.1432 </r>
       <r>    20.6075     0.6639    13.2554 </r>
       <r>    20.7765     0.6408    13.3637 </r>
       <r>    20.9455     0.6265    13.4695 </r>
       <r>    21.1144     0.6190    13.5742 </r>
       <r>    21.2834     0.6162    13.6783 </r>
       <r>    21.4524     0.6165    13.7825 </r>
       <r>    21.6214     0.6201    13.8873 </r>
       <r>    21.7904     0.6285    13.9935 </r>
       <r>    21.9594     0.6452    14.1025 </r>
       <r>    22.1284     0.6735    14.2163 </r>
       <r>    22.2974     0.7156    14.3373 </r>
       <r>    22.4664     0.7697    14.4673 </r>
       <r>    22.6354     0.8288    14.6074 </r>
       <r>    22.8044     0.8816    14.7564 </r>
       <r>    22.9734     0.9147    14.9110 </r>
       <r>    23.1424     0.9170    15.0659 </r>
       <r>    23.3114     0.8836    15.2153 </r>
       <r>    23.4804     0.8163    15.3532 </r>
       <r>    23.6494     0.7228    15.4754 </r>
       <r>    23.8183     0.6139    15.5791 </r>
       <r>    23.9873     0.5004    15.6637 </r>
       <r>    24.1563     0.3917    15.7299 </r>
       <r>    24.3253     0.2956    15.7798 </r>
       <r>    24.4943     0.2174    15.8166 </r>
       <r>    24.6633     0.1600    15.8436 </r>
       <r>    24.8323     0.1230    15.8644 </r>
       <r>    25.0013     0.1034    15.8819 </r>
       <r>    25.1703     0.0959    15.8981 </r>
       <r>    25.3393     0.0942    15.9140 </r>
       <r>    25.5083     0.0929    15.9297 </r>
       <r>    25.6773     0.0885    15.9446 </r>
       <r>    25.8463     0.0798    15.9581 </r>
       <r>    26.0153     0.0676    15.9695 </r>
       <r>    26.1843     0.0536    15.9786 </r>
       <r>    26.3533     0.0398    15.9853 </r>
       <r>    26.5222     0.0277    15.9900 </r>
       <r>    26.6912     0.0181    15.9931 </r>
       <r>    26.8602     0.0111    15.9949 </r>
       <r>    27.0292     0.0064    15.9960 </r>
       <r>    27.1982     0.0035    15.9966 </r>
       <r>    27.3672     0.0019    15.9969 </r>
       <r>    27.5362     0.0012    15.9971 </r>
       <r>    27.7052     0.0010    15.9973 </r>
       <r>    27.8742     0.0011    15.9975 </r>
       <r>    28.0432     0.0014    15.9977 </r>
       <r>    28.2122     0.0017    15.9980 </r>
       <r>    28.3812     0.0019    15.9983 </r>
       <r>    28.5502     0.0020    15.9987 </r>
       <r>    28.7192     0.0020    15.9990 </r>
       <r>    28.8882     0.0018    15.9993 </r>
       <r>    29.0572     0.0014    15.9995 </r>
       <r>    29.2261     0.0011    15.9997 </r>
       <r>    29.3951     0.0007    15.9998 </r>
       <r>    29.5641     0.0005    15.9999 </r>
       <r>    29.7331     0.0003    16.0000 </r>
       <r>    29.9021     0.0001    16.0000 </r>
       <r>    30.0711     0.0001    16.0000 </r>
       <r>    30.2401     0.0000    16.0000 </r>
       <r>    30.4091     0.0000    16.0000 </r>
       <r>    30.5781     0.0000    16.0000 </r>
       <r>    30.7471     0.0000    16.0000 </r>
       <r>    30.9161     0.0000    16.0000 </r>
       <r>    31.0851     0.0000    16.0000 </r>
       <r>    31.2541     0.0000    16.0000 </r>
       <r>    31.4231     0.0000    16.0000 </r>
       <r>    31.5921     0.0000    16.0000 </r>
       <r>    31.7611     0.0000    16.0000 </r>
       <r>    31.9300     0.0000    16.0000 </r>
       <r>    32.0990     0.0000    16.0000 </r>
       <r>    32.2680     0.0000    16.0000 </r>
       <r>    32.4370     0.0000    16.0000 </r>
       <r>    32.6060     0.0000    16.0000 </r>
       <r>    32.7750     0.0000    16.0000 </r>
       <r>    32.9440     0.0000    16.0000 </r>
       <r>    33.1130     0.0000    16.0000 </r>
       <r>    33.2820     0.0000    16.0000 </r>
       <r>    33.4510     0.0000    16.0000 </r>
       <r>    33.6200     0.0000    16.0000 </r>
       <r>    33.7890     0.0000    16.0000 </r>
       <r>    33.9580     0.0000    16.0000 </r>
       <r>    34.1270     0.0000    16.0000 </r>
       <r>    34.2960     0.0000    16.0000 </r>
       <r>    34.4649     0.0000    16.0000 </r>
       <r>    34.6339     0.0000    16.0000 </r>
       <r>    34.8029     0.0000    16.0000 </r>
       <r>    34.9719     0.0000    16.0000 </r>
       <r>    35.1409     0.0000    16.0000 </r>
       <r>    35.3099     0.0000    16.0000 </r>
       <r>    35.4789     0.0000    16.0000 </r>
       <r>    35.6479     0.0000    16.0000 </r>
       <r>    35.8169     0.0000    16.0000 </r>
       <r>    35.9859     0.0000    16.0000 </r>
       <r>    36.1549     0.0000    16.0000 </r>
       <r>    36.3239     0.0000    16.0000 </r>
       <r>    36.4929     0.0000    16.0000 </r>
      </set>
      <set comment="spin 2">
       <r>   -14.2052     0.0000     0.0000 </r>
       <r>   -14.0362     0.0000     0.0000 </r>
       <r>   -13.8672     0.0000     0.0000 </r>
       <r>   -13.6982     0.0000     0.0000 </r>
       <r>   -13.5293     0.0000     0.0000 </r>
       <r>   -13.3603     0.0000     0.0000 </r>
       <r>   -13.1913     0.0000     0.0000 </r>
       <r>   -13.0223     0.0000     0.0000 </r>
       <r>   -12.8533     0.0000     0.0000 </r>
       <r>   -12.6843     0.0000     0.0000 </r>
       <r>   -12.5153     0.0000     0.0000 </r>
       <r>   -12.3463     0.0000     0.0000 </r>
       <r>   -12.1773     0.0000     0.0000 </r>
       <r>   -12.0083     0.0000     0.0000 </r>
       <r>   -11.8393     0.0000     0.0000 </r>
       <r>   -11.6703     0.0000     0.0000 </r>
       <r>   -11.5013     0.0000     0.0000 </r>
       <r>   -11.3323     0.0000     0.0000 </r>
       <r>   -11.1633     0.0000     0.0000 </r>
       <r>   -10.9943     0.0000     0.0000 </r>
       <r>   -10.8254     0.0000     0.0000 </r>
       <r>   -10.6564     0.0000     0.0000 </r>
       <r>   -10.4874     0.0000     0.0000 </r>
       <r>   -10.3184     0.0000     0.0000 </r>
       <r>   -10.1494     0.0000     0.0000 </r>
       <r>    -9.9804     0.0000     0.0000 </r>
       <r>    -9.8114     0.0000     0.0000 </r>
       <r>    -9.6424     0.0000     0.0000 </r>
       <r>    -9.4734     0.0000     0.0000 </r>
       <r>    -9.3044     0.0000     0.0000 </r>
       <r>    -9.1354     0.0000     0.0000 </r>
       <r>    -8.9664     0.0000     0.0000 </r>
       <r>    -8.7974     0.0000     0.0000 </r>
       <r>    -8.6284     0.0000     0.0000 </r>
       <r>    -8.4594     0.0000     0.0000 </r>
       <r>    -8.2904     0.0000     0.0000 </r>
       <r>    -8.1215     0.0000     0.0000 </r>
       <r>    -7.9525     0.0000     0.0000 </r>
       <r>    -7.7835     0.0001     0.0000 </r>
       <r>    -7.6145     0.0003     0.0001 </r>
       <r>    -7.4455     0.0007     0.0002 </r>
       <r>    -7.2765     0.0015     0.0005 </r>
       <r>    -7.1075     0.0032     0.0010 </r>
       <r>    -6.9385     0.0061     0.0020 </r>
       <r>    -6.7695     0.0109     0.0039 </r>
       <r>    -6.6005     0.0183     0.0070 </r>
       <r>    -6.4315     0.0288     0.0118 </r>
       <r>    -6.2625     0.0425     0.0190 </r>
       <r>    -6.0935     0.0595     0.0291 </r>
       <r>    -5.9245     0.0792     0.0425 </r>
       <r>    -5.7555     0.1008     0.0595 </r>
       <r>    -5.5865     0.1233     0.0803 </r>
       <r>    -5.4176     0.1461     0.1050 </r>
       <r>    -5.2486     0.1690     0.1336 </r>
       <r>    -5.0796     0.1919     0.1660 </r>
       <r>    -4.9106     0.2150     0.2023 </r>
       <r>    -4.7416     0.2385     0.2426 </r>
       <r>    -4.5726     0.2620     0.2869 </r>
       <r>    -4.4036     0.2848     0.3350 </r>
       <r>    -4.2346     0.3058     0.3867 </r>
       <r>    -4.0656     0.3240     0.4415 </r>
       <r>    -3.8966     0.3378     0.4986 </r>
       <r>    -3.7276     0.3458     0.5570 </r>
       <r>    -3.5586     0.3467     0.6156 </r>
       <r>    -3.3896     0.3396     0.6730 </r>
       <r>    -3.2206     0.3249     0.7279 </r>
       <r>    -3.0516     0.3037     0.7792 </r>
       <r>    -2.8827     0.2783     0.8263 </r>
       <r>    -2.7137     0.2514     0.8687 </r>
       <r>    -2.5447     0.2260     0.9069 </r>
       <r>    -2.3757     0.2054     0.9416 </r>
       <r>    -2.2067     0.1927     0.9742 </r>
       <r>    -2.0377     0.1905     1.0064 </r>
       <r>    -1.8687     0.2004     1.0403 </r>
       <r>    -1.6997     0.2224     1.0779 </r>
       <r>    -1.5307     0.2537     1.1207 </r>
       <r>    -1.3617     0.2893     1.1696 </r>
       <r>    -1.1927     0.3226     1.2241 </r>
       <r>    -1.0237     0.3472     1.2828 </r>
       <r>    -0.8547     0.3587     1.3434 </r>
       <r>    -0.6857     0.3556     1.4035 </r>
       <r>    -0.5167     0.3401     1.4610 </r>
       <r>    -0.3477     0.3162     1.5144 </r>
       <r>    -0.1788     0.2887     1.5632 </r>
       <r>    -0.0098     0.2617     1.6074 </r>
       <r>     0.1592     0.2384     1.6477 </r>
       <r>     0.3282     0.2204     1.6850 </r>
       <r>     0.4972     0.2093     1.7203 </r>
       <r>     0.6662     0.2063     1.7552 </r>
       <r>     0.8352     0.2131     1.7912 </r>
       <r>     1.0042     0.2312     1.8303 </r>
       <r>     1.1732     0.2611     1.8744 </r>
       <r>     1.3422     0.3019     1.9255 </r>
       <r>     1.5112     0.3505     1.9847 </r>
       <r>     1.6802     0.4026     2.0527 </r>
       <r>     1.8492     0.4534     2.1294 </r>
       <r>     2.0182     0.4991     2.2137 </r>
       <r>     2.1872     0.5378     2.3046 </r>
       <r>     2.3562     0.5695     2.4008 </r>
       <r>     2.5251     0.5957     2.5015 </r>
       <r>     2.6941     0.6178     2.6059 </r>
       <r>     2.8631     0.6369     2.7135 </r>
       <r>     3.0321     0.6529     2.8239 </r>
       <r>     3.2011     0.6645     2.9362 </r>
       <r>     3.3701     0.6695     3.0493 </r>
       <r>     3.5391     0.6658     3.1619 </r>
       <r>     3.7081     0.6517     3.2720 </r>
       <r>     3.8771     0.6261     3.3778 </r>
       <r>     4.0461     0.5892     3.4774 </r>
       <r>     4.2151     0.5421     3.5690 </r>
       <r>     4.3841     0.4872     3.6513 </r>
       <r>     4.5531     0.4275     3.7236 </r>
       <r>     4.7221     0.3666     3.7855 </r>
       <r>     4.8911     0.3076     3.8375 </r>
       <r>     5.0601     0.2532     3.8803 </r>
       <r>     5.2290     0.2052     3.9149 </r>
       <r>     5.3980     0.1651     3.9428 </r>
       <r>     5.5670     0.1340     3.9655 </r>
       <r>     5.7360     0.1132     3.9846 </r>
       <r>     5.9050     0.1036     4.0021 </r>
       <r>     6.0740     0.1055     4.0200 </r>
       <r>     6.2430     0.1186     4.0400 </r>
       <r>     6.4120     0.1415     4.0639 </r>
       <r>     6.5810     0.1724     4.0931 </r>
       <r>     6.7500     0.2099     4.1285 </r>
       <r>     6.9190     0.2533     4.1713 </r>
       <r>     7.0880     0.3029     4.2225 </r>
       <r>     7.2570     0.3589     4.2832 </r>
       <r>     7.4260     0.4208     4.3543 </r>
       <r>     7.5950     0.4862     4.4365 </r>
       <r>     7.7639     0.5507     4.5295 </r>
       <r>     7.9329     0.6092     4.6325 </r>
       <r>     8.1019     0.6578     4.7436 </r>
       <r>     8.2709     0.6950     4.8611 </r>
       <r>     8.4399     0.7222     4.9831 </r>
       <r>     8.6089     0.7428     5.1086 </r>
       <r>     8.7779     0.7598     5.2370 </r>
       <r>     8.9469     0.7743     5.3679 </r>
       <r>     9.1159     0.7843     5.5004 </r>
       <r>     9.2849     0.7855     5.6332 </r>
       <r>     9.4539     0.7736     5.7639 </r>
       <r>     9.6229     0.7469     5.8901 </r>
       <r>     9.7919     0.7072     6.0096 </r>
       <r>     9.9609     0.6600     6.1211 </r>
       <r>    10.1299     0.6127     6.2247 </r>
       <r>    10.2989     0.5724     6.3214 </r>
       <r>    10.4678     0.5444     6.4134 </r>
       <r>    10.6368     0.5319     6.5033 </r>
       <r>    10.8058     0.5356     6.5938 </r>
       <r>    10.9748     0.5541     6.6875 </r>
       <r>    11.1438     0.5842     6.7862 </r>
       <r>    11.3128     0.6214     6.8912 </r>
       <r>    11.4818     0.6599     7.0027 </r>
       <r>    11.6508     0.6929     7.1198 </r>
       <r>    11.8198     0.7135     7.2404 </r>
       <r>    11.9888     0.7150     7.3612 </r>
       <r>    12.1578     0.6936     7.4784 </r>
[...]
       </set>
       <set comment="band 12">
        <r>  0.0000  0.0275  0.0000  0.0453  0.0000  0.0000  0.0000  0.0000  0.0000 </r>
        <r>  0.0000  0.0717  0.0000  0.0011  0.0000  0.0000  0.0000  0.0000  0.0000 </r>
       </set>
       <set comment="band 13">
        <r>  0.0151  0.0000  0.2251  0.0000  0.0000  0.0000  0.0000  0.0000  0.0000 </r>
        <r>  0.0151  0.0000  0.2251  0.0000  0.0000  0.0000  0.0000  0.0000  0.0000 </r>
       </set>
       <set comment="band 14">
        <r>  0.0000  0.0000  0.0000  0.0000  0.0000  0.0000  0.0000  0.0000  0.0000 </r>
        <r>  0.0000  0.0000  0.0000  0.0000  0.0000  0.0000  0.0000  0.0000  0.0000 </r>
       </set>
       <set comment="band 15">
        <r>  0.0001  0.0000  0.0037  0.0000  0.0000  0.0000  0.0000  0.0000  0.0000 </r>
        <r>  0.0001  0.0000  0.0037  0.0000  0.0000  0.0000  0.0000  0.0000  0.0000 </r>
       </set>
       <set comment="band 16">
        <r>  0.0000  0.0029  0.0000  0.0508  0.0000  0.0000  0.0000  0.0000  0.0000 </r>
        <r>  0.0000  0.0156  0.0000  0.0381  0.0000  0.0000  0.0000  0.0000  0.0000 </r>
       </set>
      </set>
      <set comment="kpoint 16">
       <set comment="band 1">
        <r>  0.2025  0.0013  0.0366  0.0013  0.0000  0.0000  0.0000  0.0000  0.0000 </r>
        <r>  0.2025  0.0013  0.0366  0.0013  0.0000  0.0000  0.0000  0.0000  0.0000 </r>
       </set>
       <set comment="band 2">
        <r>  0.1902  0.0018  0.0436  0.0018  0.0000  0.0000  0.0000  0.0000  0.0000 </r>
        <r>  0.1902  0.0018  0.0436  0.0018  0.0000  0.0000  0.0000  0.0000  0.0000 </r>
       </set>
       <set comment="band 3">
        <r>  0.0021  0.0732  0.0199  0.0732  0.0000  0.0000  0.0000  0.0000  0.0000 </r>
        <r>  0.0021  0.0732  0.0199  0.0732  0.0000  0.0000  0.0000  0.0000  0.0000 </r>
       </set>
       <set comment="band 4">
        <r>  0.0000  0.0981  0.0000  0.0981  0.0000  0.0000  0.0000  0.0000  0.0000 </r>
        <r>  0.0000  0.0981  0.0000  0.0981  0.0000  0.0000  0.0000  0.0000  0.0000 </r>
       </set>
       <set comment="band 5">
        <r>  0.0514  0.0003  0.0374  0.0003  0.0000  0.0000  0.0000  0.0000  0.0000 </r>
        <r>  0.0514  0.0003  0.0374  0.0003  0.0000  0.0000  0.0000  0.0000  0.0000 </r>
       </set>
       <set comment="band 6">
        <r>  0.0377  0.0227  0.0239  0.0227  0.0000  0.0000  0.0000  0.0000  0.0000 </r>
        <r>  0.0377  0.0227  0.0239  0.0227  0.0000  0.0000  0.0000  0.0000  0.0000 </r>
       </set>
       <set comment="band 7">
        <r>  0.0000  0.0895  0.0000  0.0895  0.0000  0.0000  0.0000  0.0000  0.0000 </r>
        <r>  0.0000  0.0895  0.0000  0.0895  0.0000  0.0000  0.0000  0.0000  0.0000 </r>
       </set>
       <set comment="band 8">
        <r>  0.0278  0.0919  0.0256  0.0919  0.0000  0.0000  0.0000  0.0000  0.0000 </r>
        <r>  0.0278  0.0919  0.0256  0.0919  0.0000  0.0000  0.0000  0.0000  0.0000 </r>
       </set>
       <set comment="band 9">
        <r>  0.0229  0.0014  0.0777  0.0014  0.0000  0.0000  0.0000  0.0000  0.0000 </r>
        <r>  0.0229  0.0014  0.0777  0.0014  0.0000  0.0000  0.0000  0.0000  0.0000 </r>
       </set>
       <set comment="band 10">
        <r>  0.0000  0.0060  0.0000  0.0060  0.0000  0.0000  0.0000  0.0000  0.0000 </r>
        <r>  0.0000  0.0060  0.0000  0.0060  0.0000  0.0000  0.0000  0.0000  0.0000 </r>
       </set>
       <set comment="band 11">
        <r>  0.0297  0.0237  0.1833  0.0237  0.0000  0.0000  0.0000  0.0000  0.0000 </r>
        <r>  0.0297  0.0237  0.1833  0.0237  0.0000  0.0000  0.0000  0.0000  0.0000 </r>
       </set>
       <set comment="band 12">
        <r>  0.0000  0.0000  0.0000  0.0000  0.0000  0.0000  0.0000  0.0000  0.0000 </r>
        <r>  0.0000  0.0000  0.0000  0.0000  0.0000  0.0000  0.0000  0.0000  0.0000 </r>
       </set>
       <set comment="band 13">
        <r>  0.0000  0.0326  0.0000  0.0326  0.0000  0.0000  0.0000  0.0000  0.0000 </r>
        <r>  0.0000  0.0326  0.0000  0.0326  0.0000  0.0000  0.0000  0.0000  0.0000 </r>
       </set>
       <set comment="band 14">
        <r>  0.0339  0.0063  0.1321  0.0063  0.0000  0.0000  0.0000  0.0000  0.0000 </r>
        <r>  0.0339  0.0063  0.1321  0.0063  0.0000  0.0000  0.0000  0.0000  0.0000 </r>
       </set>
       <set comment="band 15">
        <r>  0.0133  0.0034  0.0015  0.0034  0.0000  0.0000  0.0000  0.0000  0.0000 </r>
        <r>  0.0133  0.0034  0.0015  0.0034  0.0000  0.0000  0.0000  0.0000  0.0000 </r>
       </set>
       <set comment="band 16">
        <r>  0.0061  0.0118  0.0042  0.0118  0.0000  0.0000  0.0000  0.0000  0.0000 </r>
        <r>  0.0061  0.0118  0.0042  0.0118  0.0000  0.0000  0.0000  0.0000  0.0000 </r>
       </set>
      </set>
      <set comment="kpoint 17">
       <set comment="band 1">
        <r>  0.2066  0.0025  0.0135  0.0008  0.0000  0.0000  0.0000  0.0000  0.0000 </r>
        <r>  0.2066  0.0025  0.0135  0.0008  0.0000  0.0000  0.0000  0.0000  0.0000 </r>
       </set>
       <set comment="band 2">
        <r>  0.1566  0.0136  0.0462  0.0266  0.0000  0.0000  0.0000  0.0000  0.0000 </r>
        <r>  0.1566  0.0136  0.0462  0.0266  0.0000  0.0000  0.0000  0.0000  0.0000 </r>
       </set>
       <set comment="band 3">
        <r>  0.0114  0.0506  0.0206  0.0921  0.0000  0.0000  0.0000  0.0000  0.0000 </r>
        <r>  0.0114  0.0506  0.0206  0.0921  0.0000  0.0000  0.0000  0.0000  0.0000 </r>
       </set>
       <set comment="band 4">
        <r>  0.0064  0.1025  0.0581  0.0306  0.0000  0.0000  0.0000  0.0000  0.0000 </r>
        <r>  0.0064  0.1025  0.0581  0.0306  0.0000  0.0000  0.0000  0.0000  0.0000 </r>
       </set>
       <set comment="band 5">
        <r>  0.0284  0.0253  0.0513  0.0284  0.0000  0.0000  0.0000  0.0000  0.0000 </r>
        <r>  0.0284  0.0253  0.0513  0.0284  0.0000  0.0000  0.0000  0.0000  0.0000 </r>
       </set>
       <set comment="band 6">
        <r>  0.0624  0.0094  0.0296  0.0208  0.0000  0.0000  0.0000  0.0000  0.0000 </r>
        <r>  0.0624  0.0094  0.0296  0.0208  0.0000  0.0000  0.0000  0.0000  0.0000 </r>
       </set>
       <set comment="band 7">
        <r>  0.0293  0.0523  0.0052  0.0434  0.0000  0.0000  0.0000  0.0000  0.0000 </r>
        <r>  0.0293  0.0523  0.0052  0.0434  0.0000  0.0000  0.0000  0.0000  0.0000 </r>
       </set>
       <set comment="band 8">
        <r>  0.0064  0.0576  0.0116  0.0817  0.0000  0.0000  0.0000  0.0000  0.0000 </r>
        <r>  0.0064  0.0576  0.0116  0.0817  0.0000  0.0000  0.0000  0.0000  0.0000 </r>
       </set>
       <set comment="band 9">
        <r>  0.0412  0.0081  0.0464  0.0026  0.0000  0.0000  0.0000  0.0000  0.0000 </r>
        <r>  0.0412  0.0081  0.0464  0.0026  0.0000  0.0000  0.0000  0.0000  0.0000 </r>
       </set>
       <set comment="band 10">
        <r>  0.0005  0.0325  0.0740  0.0315  0.0000  0.0000  0.0000  0.0000  0.0000 </r>
        <r>  0.0005  0.0325  0.0740  0.0315  0.0000  0.0000  0.0000  0.0000  0.0000 </r>
       </set>
       <set comment="band 11">
        <r>  0.0495  0.0362  0.0525  0.0237  0.0000  0.0000  0.0000  0.0000  0.0000 </r>
        <r>  0.0495  0.0362  0.0525  0.0237  0.0000  0.0000  0.0000  0.0000  0.0000 </r>
       </set>
       <set comment="band 12">
        <r>  0.0117  0.0033  0.0000  0.0005  0.0000  0.0000  0.0000  0.0000  0.0000 </r>
        <r>  0.0117  0.0033  0.0000  0.0005  0.0000  0.0000  0.0000  0.0000  0.0000 </r>
       </set>
       <set comment="band 13">
        <r>  0.0333  0.0067  0.0126  0.0000  0.0000  0.0000  0.0000  0.0000  0.0000 </r>
        <r>  0.0333  0.0067  0.0126  0.0000  0.0000  0.0000  0.0000  0.0000  0.0000 </r>
       </set>
       <set comment="band 14">
        <r>  0.0004  0.0243  0.0388  0.0054  0.0000  0.0000  0.0000  0.0000  0.0000 </r>
        <r>  0.0004  0.0243  0.0388  0.0054  0.0000  0.0000  0.0000  0.0000  0.0000 </r>
       </set>
       <set comment="band 15">
        <r>  0.0000  0.0229  0.0002  0.0533  0.0000  0.0000  0.0000  0.0000  0.0000 </r>
        <r>  0.0000  0.0229  0.0002  0.0534  0.0000  0.0000  0.0000  0.0000  0.0000 </r>
       </set>
       <set comment="band 16">
        <r>  0.0187  0.0029  0.0257  0.0143  0.0000  0.0000  0.0000  0.0000  0.0000 </r>
        <r>  0.0260  0.0041  0.0478  0.0007  0.0000  0.0000  0.0000  0.0000  0.0000 </r>
       </set>
      </set>
      <set comment="kpoint 18">
       <set comment="band 1">
        <r>  0.2117  0.0032  0.0154  0.0047  0.0000  0.0000  0.0000  0.0000  0.0000 </r>
        <r>  0.2117  0.0032  0.0154  0.0047  0.0000  0.0000  0.0000  0.0000  0.0000 </r>
       </set>
       <set comment="band 2">
        <r>  0.1540  0.0148  0.0277  0.0312  0.0000  0.0000  0.0000  0.0000  0.0000 </r>
        <r>  0.1540  0.0148  0.0277  0.0312  0.0000  0.0000  0.0000  0.0000  0.0000 </r>
       </set>
       <set comment="band 3">
        <r>  0.0266  0.0394  0.0418  0.0686  0.0000  0.0000  0.0000  0.0000  0.0000 </r>
        <r>  0.0266  0.0394  0.0418  0.0686  0.0000  0.0000  0.0000  0.0000  0.0000 </r>
       </set>
       <set comment="band 4">
        <r>  0.0021  0.0974  0.0532  0.0345  0.0000  0.0000  0.0000  0.0000  0.0000 </r>
        <r>  0.0021  0.0974  0.0532  0.0345  0.0000  0.0000  0.0000  0.0000  0.0000 </r>
       </set>
       <set comment="band 5">
        <r>  0.0377  0.0295  0.0363  0.0188  0.0000  0.0000  0.0000  0.0000  0.0000 </r>
        <r>  0.0377  0.0295  0.0363  0.0188  0.0000  0.0000  0.0000  0.0000  0.0000 </r>
       </set>
       <set comment="band 6">
        <r>  0.0404  0.0386  0.0119  0.0367  0.0000  0.0000  0.0000  0.0000  0.0000 </r>
        <r>  0.0404  0.0386  0.0119  0.0367  0.0000  0.0000  0.0000  0.0000  0.0000 </r>
       </set>
       <set comment="band 7">
        <r>  0.0321  0.0395  0.0238  0.0323  0.0000  0.0000  0.0000  0.0000  0.0000 </r>
        <r>  0.0321  0.0395  0.0238  0.0323  0.0000  0.0000  0.0000  0.0000  0.0000 </r>
       </set>
       <set comment="band 8">
        <r>  0.0165  0.0377  0.0281  0.0558  0.0000  0.0000  0.0000  0.0000  0.0000 </r>
        <r>  0.0165  0.0377  0.0281  0.0558  0.0000  0.0000  0.0000  0.0000  0.0000 </r>
       </set>
       <set comment="band 9">
        <r>  0.0133  0.0394  0.0530  0.0251  0.0000  0.0000  0.0000  0.0000  0.0000 </r>
        <r>  0.0133  0.0394  0.0530  0.0251  0.0000  0.0000  0.0000  0.0000  0.0000 </r>
       </set>
       <set comment="band 10">
        <r>  0.0168  0.0142  0.0437  0.0280  0.0000  0.0000  0.0000  0.0000  0.0000 </r>
        <r>  0.0168  0.0142  0.0437  0.0280  0.0000  0.0000  0.0000  0.0000  0.0000 </r>
       </set>
       <set comment="band 11">
        <r>  0.0184  0.0049  0.0261  0.0083  0.0000  0.0000  0.0000  0.0000  0.0000 </r>
        <r>  0.0184  0.0049  0.0261  0.0083  0.0000  0.0000  0.0000  0.0000  0.0000 </r>
       </set>
       <set comment="band 12">
        <r>  0.0203  0.0215  0.0175  0.0639  0.0000  0.0000  0.0000  0.0000  0.0000 </r>
        <r>  0.0203  0.0215  0.0175  0.0639  0.0000  0.0000  0.0000  0.0000  0.0000 </r>
       </set>
       <set comment="band 13">
        <r>  0.0186  0.0416  0.0662  0.0159  0.0000  0.0000  0.0000  0.0000  0.0000 </r>
        <r>  0.0186  0.0416  0.0662  0.0159  0.0000  0.0000  0.0000  0.0000  0.0000 </r>
       </set>
       <set comment="band 14">
        <r>  0.0138  0.0020  0.0264  0.0147  0.0000  0.0000  0.0000  0.0000  0.0000 </r>
        <r>  0.0138  0.0020  0.0264  0.0147  0.0000  0.0000  0.0000  0.0000  0.0000 </r>
       </set>
       <set comment="band 15">
        <r>  0.0040  0.0359  0.0232  0.0581  0.0000  0.0000  0.0000  0.0000  0.0000 </r>
        <r>  0.0040  0.0359  0.0232  0.0581  0.0000  0.0000  0.0000  0.0000  0.0000 </r>
       </set>
       <set comment="band 16">
        <r>  0.0207  0.0071  0.0327  0.0009  0.0000  0.0000  0.0000  0.0000  0.0000 </r>
        <r>  0.0206  0.0071  0.0326  0.0009  0.0000  0.0000  0.0000  0.0000  0.0000 </r>
       </set>
      </set>
      <set comment="kpoint 19">
       <set comment="band 1">
        <r>  0.2029  0.0008  0.0284  0.0032  0.0000  0.0000  0.0000  0.0000  0.0000 </r>
        <r>  0.2029  0.0008  0.0284  0.0032  0.0000  0.0000  0.0000  0.0000  0.0000 </r>
       </set>
       <set comment="band 2">
        <r>  0.1922  0.0007  0.0424  0.0115  0.0000  0.0000  0.0000  0.0000  0.0000 </r>
        <r>  0.1922  0.0007  0.0424  0.0115  0.0000  0.0000  0.0000  0.0000  0.0000 </r>
       </set>
       <set comment="band 3">
        <r>  0.0062  0.0670  0.0181  0.0789  0.0000  0.0000  0.0000  0.0000  0.0000 </r>
        <r>  0.0062  0.0670  0.0181  0.0789  0.0000  0.0000  0.0000  0.0000  0.0000 </r>
       </set>
       <set comment="band 4">
        <r>  0.0000  0.0853  0.0267  0.0614  0.0000  0.0000  0.0000  0.0000  0.0000 </r>
        <r>  0.0000  0.0853  0.0267  0.0614  0.0000  0.0000  0.0000  0.0000  0.0000 </r>
       </set>
       <set comment="band 5">
        <r>  0.0362  0.0291  0.0307  0.0207  0.0000  0.0000  0.0000  0.0000  0.0000 </r>
        <r>  0.0362  0.0291  0.0307  0.0207  0.0000  0.0000  0.0000  0.0000  0.0000 </r>
       </set>
       <set comment="band 6">
        <r>  0.0369  0.0285  0.0209  0.0133  0.0000  0.0000  0.0000  0.0000  0.0000 </r>
        <r>  0.0369  0.0285  0.0209  0.0133  0.0000  0.0000  0.0000  0.0000  0.0000 </r>
       </set>
       <set comment="band 7">
        <r>  0.0316  0.0532  0.0252  0.0363  0.0000  0.0000  0.0000  0.0000  0.0000 </r>
        <r>  0.0316  0.0532  0.0252  0.0363  0.0000  0.0000  0.0000  0.0000  0.0000 </r>
       </set>
       <set comment="band 8">
        <r>  0.0164  0.0799  0.0212  0.0655  0.0000  0.0000  0.0000  0.0000  0.0000 </r>
        <r>  0.0164  0.0799  0.0212  0.0655  0.0000  0.0000  0.0000  0.0000  0.0000 </r>
       </set>
       <set comment="band 9">
        <r>  0.0003  0.0128  0.0340  0.0460  0.0000  0.0000  0.0000  0.0000  0.0000 </r>
        <r>  0.0003  0.0128  0.0340  0.0460  0.0000  0.0000  0.0000  0.0000  0.0000 </r>
       </set>
       <set comment="band 10">
        <r>  0.0285  0.0126  0.0785  0.0016  0.0000  0.0000  0.0000  0.0000  0.0000 </r>
        <r>  0.0285  0.0126  0.0785  0.0016  0.0000  0.0000  0.0000  0.0000  0.0000 </r>
       </set>
       <set comment="band 11">
        <r>  0.0069  0.0242  0.0010  0.0823  0.0000  0.0000  0.0000  0.0000  0.0000 </r>
        <r>  0.0069  0.0242  0.0010  0.0823  0.0000  0.0000  0.0000  0.0000  0.0000 </r>
       </set>
       <set comment="band 12">
        <r>  0.0057  0.0012  0.1098  0.0085  0.0000  0.0000  0.0000  0.0000  0.0000 </r>
        <r>  0.0057  0.0012  0.1098  0.0085  0.0000  0.0000  0.0000  0.0000  0.0000 </r>
       </set>
       <set comment="band 13">
        <r>  0.0288  0.0289  0.0713  0.0143  0.0000  0.0000  0.0000  0.0000  0.0000 </r>
        <r>  0.0288  0.0289  0.0713  0.0143  0.0000  0.0000  0.0000  0.0000  0.0000 </r>
       </set>
       <set comment="band 14">
        <r>  0.0000  0.0008  0.0040  0.0168  0.0000  0.0000  0.0000  0.0000  0.0000 </r>
        <r>  0.0000  0.0008  0.0040  0.0168  0.0000  0.0000  0.0000  0.0000  0.0000 </r>
       </set>
       <set comment="band 15">
        <r>  0.0204  0.0117  0.0160  0.0038  0.0000  0.0000  0.0000  0.0000  0.0000 </r>
        <r>  0.0204  0.0117  0.0160  0.0038  0.0000  0.0000  0.0000  0.0000  0.0000 </r>
       </set>
       <set comment="band 16">
        <r>  0.0258  0.0004  0.0406  0.0109  0.0000  0.0000  0.0000  0.0000  0.0000 </r>
        <r>  0.0258  0.0004  0.0406  0.0109  0.0000  0.0000  0.0000  0.0000  0.0000 </r>
       </set>
      </set>
      <set comment="kpoint 20">
       <set comment="band 1">
        <r>  0.2112  0.0015  0.0169  0.0142  0.0000  0.0000  0.0000  0.0000  0.0000 </r>
        <r>  0.2112  0.0015  0.0169  0.0142  0.0000  0.0000  0.0000  0.0000  0.0000 </r>
       </set>
       <set comment="band 2">
        <r>  0.1906  0.0022  0.0344  0.0150  0.0000  0.0000  0.0000  0.0000  0.0000 </r>
        <r>  0.1906  0.0022  0.0344  0.0150  0.0000  0.0000  0.0000  0.0000  0.0000 </r>
       </set>
       <set comment="band 3">
        <r>  0.0008  0.0593  0.0510  0.0442  0.0000  0.0000  0.0000  0.0000  0.0000 </r>
        <r>  0.0008  0.0593  0.0510  0.0442  0.0000  0.0000  0.0000  0.0000  0.0000 </r>
       </set>
       <set comment="band 4">
        <r>  0.0027  0.0808  0.0218  0.0696  0.0000  0.0000  0.0000  0.0000  0.0000 </r>
        <r>  0.0027  0.0808  0.0218  0.0696  0.0000  0.0000  0.0000  0.0000  0.0000 </r>
       </set>
       <set comment="band 5">
        <r>  0.0356  0.0370  0.0269  0.0121  0.0000  0.0000  0.0000  0.0000  0.0000 </r>
        <r>  0.0356  0.0370  0.0269  0.0121  0.0000  0.0000  0.0000  0.0000  0.0000 </r>
       </set>
       <set comment="band 6">
        <r>  0.0033  0.0801  0.0007  0.0047  0.0000  0.0000  0.0000  0.0000  0.0000 </r>
        <r>  0.0033  0.0801  0.0007  0.0047  0.0000  0.0000  0.0000  0.0000  0.0000 </r>
       </set>
       <set comment="band 7">
        <r>  0.0457  0.0067  0.0519  0.0642  0.0000  0.0000  0.0000  0.0000  0.0000 </r>
        <r>  0.0457  0.0067  0.0519  0.0642  0.0000  0.0000  0.0000  0.0000  0.0000 </r>
       </set>
       <set comment="band 8">
        <r>  0.0381  0.0412  0.0299  0.0244  0.0000  0.0000  0.0000  0.0000  0.0000 </r>
        <r>  0.0381  0.0412  0.0299  0.0244  0.0000  0.0000  0.0000  0.0000  0.0000 </r>
       </set>
       <set comment="band 9">
        <r>  0.0065  0.0383  0.0683  0.0327  0.0000  0.0000  0.0000  0.0000  0.0000 </r>
        <r>  0.0065  0.0383  0.0683  0.0327  0.0000  0.0000  0.0000  0.0000  0.0000 </r>
       </set>
       <set comment="band 10">
        <r>  0.0181  0.0178  0.0015  0.0777  0.0000  0.0000  0.0000  0.0000  0.0000 </r>
        <r>  0.0181  0.0178  0.0015  0.0777  0.0000  0.0000  0.0000  0.0000  0.0000 </r>
       </set>
       <set comment="band 11">
        <r>  0.0112  0.0191  0.1036  0.0008  0.0000  0.0000  0.0000  0.0000  0.0000 </r>
        <r>  0.0112  0.0191  0.1036  0.0008  0.0000  0.0000  0.0000  0.0000  0.0000 </r>
       </set>
       <set comment="band 12">
        <r>  0.0082  0.0028  0.0313  0.0834  0.0000  0.0000  0.0000  0.0000  0.0000 </r>
        <r>  0.0082  0.0028  0.0313  0.0834  0.0000  0.0000  0.0000  0.0000  0.0000 </r>
       </set>
       <set comment="band 13">
        <r>  0.0072  0.0051  0.0118  0.0139  0.0000  0.0000  0.0000  0.0000  0.0000 </r>
        <r>  0.0072  0.0051  0.0118  0.0139  0.0000  0.0000  0.0000  0.0000  0.0000 </r>
       </set>
       <set comment="band 14">
        <r>  0.0267  0.0043  0.0004  0.0016  0.0000  0.0000  0.0000  0.0000  0.0000 </r>
        <r>  0.0267  0.0043  0.0004  0.0016  0.0000  0.0000  0.0000  0.0000  0.0000 </r>
       </set>
       <set comment="band 15">
        <r>  0.0031  0.0284  0.0643  0.0330  0.0000  0.0000  0.0000  0.0000  0.0000 </r>
        <r>  0.0031  0.0284  0.0643  0.0330  0.0000  0.0000  0.0000  0.0000  0.0000 </r>
       </set>
       <set comment="band 16">
        <r>  0.0011  0.0305  0.0759  0.0073  0.0000  0.0000  0.0000  0.0000  0.0000 </r>
        <r>  0.0011  0.0307  0.0760  0.0072  0.0000  0.0000  0.0000  0.0000  0.0000 </r>
       </set>
      </set>
     </set>
    </set>
   </array>
  </projected>
 </calculation>
 <structure name="finalpos" >
  <crystal>
   <varray name="basis" >
    <v>       0.00000000       2.73289734       2.73289734 </v>
    <v>       2.73289734      -0.00000000       2.73289734 </v>
    <v>       2.73289734       2.73289734      -0.00000000 </v>
   </varray>
   <i name="volume">     40.82253288 </i>
   <varray name="rec_basis" >
    <v>      -0.18295601       0.18295601       0.18295601 </v>
    <v>       0.18295601      -0.18295601       0.18295601 </v>
    <v>       0.18295601       0.18295601      -0.18295601 </v>
   </varray>
  </crystal>
  <varray name="positions" >
   <v>       0.12500000       0.12500000       0.12500000 </v>
   <v>       0.87500000       0.87500000       0.87500000 </v>
  </varray>
 </structure>
</modeling>
