
Running Job 1 of 1 mol.qin
qchem mol.qin_62715.0 /tmp/scratch/ 0
/clusterfs/mp/software/qchem5.4/exe/qcprog.exe_s mol.qin_62715.0 /tmp/scratch/
                  Welcome to Q-Chem
     A Quantum Leap Into The Future Of Chemistry


 Q-Chem 5.4, Q-Chem, Inc., Pleasanton, CA (2021)

 E. Epifanovsky,  A. T. B. Gilbert,  Xintian Feng,  Joonho Lee,  Yuezhi Mao,  
 N. Mardirossian,  P. Pokhilko,  A. White,  M. Wormit,  M. P. Coons,  
 A. L. Dempwolff,  Zhengting Gan,  D. Hait,  P. R. Horn,  L. D. Jacobson,  
 I. Kaliman,  J. Kussmann,  A. W. Lange,  Ka Un Lao,  D. S. Levine,  Jie Liu,  
 S. C. McKenzie,  A. F. Morrison,  K. Nanda,  F. Plasser,  D. R. Rehn,  
 M. L. Vidal,  Zhi-Qiang You,  Ying Zhu,  B. Alam,  B. Albrecht,  
 A. Aldossary,  E. Alguire,  J. H. Andersen,  D. Barton,  K. Begam,  A. Behn,  
 Y. A. Bernard,  E. J. Berquist,  H. Burton,  A. Carreras,  K. Carter-Fenk,  
 Romit Chakraborty,  A. D. Chien,  K. D. Closser,  V. Cofer-Shabica,  
 S. Dasgupta,  Jia Deng,  M. de Wergifosse,  M. Diedenhofen,  Hainam Do,  
 S. Ehlert,  Po-Tung Fang,  S. Fatehi,  Qingguo Feng,  T. Friedhoff,  
 J. Gayvert,  Qinghui Ge,  G. Gidofalvi,  M. Goldey,  J. Gomes,  
 C. Gonzalez-Espinoza,  S. Gulania,  A. Gunina,  M. W. D. Hanson-Heine,  
 P. H. P. Harbach,  A. W. Hauser,  M. F. Herbst,  M. Hernandez Vera,  
 M. Hodecker,  Z. C. Holden,  S. Houck,  Xunkun Huang,  Kerwin Hui,  
 B. C. Huynh,  M. Ivanov,  Hyunjun Ji,  Hanjie Jiang,  B. Kaduk,  S. Kaehler,  
 K. Khistyaev,  Jaehoon Kim,  P. Klunzinger,  Z. Koczor-Benda,  
 Joong Hoon Koh,  D. Kosenkov,  L. Koulias,  T. Kowalczyk,  C. M. Krauter,  
 K. Kue,  A. Kunitsa,  T. Kus,  A. Landau,  K. V. Lawler,  D. Lefrancois,  
 S. Lehtola,  Rain Li,  Yi-Pei Li,  Jiashu Liang,  M. Liebenthal,  
 Hung-Hsuan Lin,  You-Sheng Lin,  Fenglai Liu,  Kuan-Yu Liu,  
 M. Loipersberger,  A. Luenser,  A. Manjanath,  P. Manohar,  E. Mansoor,  
 S. F. Manzer,  Shan-Ping Mao,  A. V. Marenich,  T. Markovich,  S. Mason,  
 S. A. Maurer,  P. F. McLaughlin,  M. F. S. J. Menger,  J.-M. Mewes,  
 S. A. Mewes,  P. Morgante,  J. W. Mullinax,  K. J. Oosterbaan,  G. Paran,  
 Alexander C. Paul,  Suranjan K. Paul,  F. Pavosevic,  Zheng Pei,  S. Prager,  
 E. I. Proynov,  E. Ramos,  B. Rana,  A. E. Rask,  A. Rettig,  R. M. Richard,  
 F. Rob,  E. Rossomme,  T. Scheele,  M. Scheurer,  M. Schneider,  
 N. Sergueev,  S. M. Sharada,  W. Skomorowski,  D. W. Small,  C. J. Stein,  
 Yu-Chuan Su,  E. J. Sundstrom,  Zhen Tao,  J. Thirman,  T. Tsuchimochi,  
 N. M. Tubman,  S. P. Veccham,  O. Vydrov,  J. Wenzel,  J. Witte,  A. Yamada,  
 Kun Yao,  S. Yeganeh,  S. R. Yost,  A. Zech,  Igor Ying Zhang,  Xing Zhang,  
 Yu Zhang,  D. Zuev,  A. Aspuru-Guzik,  A. T. Bell,  N. A. Besley,  
 K. B. Bravaya,  B. R. Brooks,  D. Casanova,  Jeng-Da Chai,  S. Coriani,  
 C. J. Cramer,  A. E. DePrince, III,  R. A. DiStasio Jr.,  A. Dreuw,  
 B. D. Dunietz,  T. R. Furlani,  W. A. Goddard III,  S. Grimme,  
 S. Hammes-Schiffer,  T. Head-Gordon,  W. J. Hehre,  Chao-Ping Hsu,  
 T.-C. Jagau,  Yousung Jung,  A. Klamt,  Jing Kong,  D. S. Lambrecht,  
 WanZhen Liang,  N. J. Mayhall,  C. W. McCurdy,  J. B. Neaton,  T. Neudecker,  
 C. Ochsenfeld,  J. A. Parkhill,  R. Peverati,  V. A. Rassolov,  Yihan Shao,  
 L. V. Slipchenko,  R. P. Steele,  J. E. Subotnik,  A. J. W. Thom,  
 A. Tkatchenko,  D. G. Truhlar,  T. Van Voorhis,  T. A. Wesolowski,  
 K. B. Whaley,  H. L. Woodcock III,  P. M. Zimmerman,  S. Faraji,  
 P. M. W. Gill,  M. Head-Gordon,  J. M. Herbert,  A. I. Krylov

 Additional authors since Version 5.4.0: 
 Chandrima Chakravarty,  L. Cunha,  R. Kang,  Yongbin Kim,  S. Kotaru,  
 Shaozhi Li,  Xiangyuan Li,  F. Matz,  A. Molle,  V. Parravicini,  
 Haisheng Ren,  Hengyuan Shen,  Yingli Su,  Hung-Yi Tsai,  C. Utku,  
 Fang Wang,  Jeff Yang,  F. Zeller

 Contributors to earlier versions of Q-Chem not listed above: 
 R. D. Adamson,  B. Austin,  R. Baer,  J. Baker,  G. J. O. Beran,  
 K. Brandhorst,  S. T. Brown,  E. F. C. Byrd,  Arup K. Chakraborty,  
 G. K. L. Chan,  Chun-Min Chang,  Yunqing Chen,  C.-L. Cheng,  
 Siu Hung Chien,  D. M. Chipman,  D. L. Crittenden,  H. Dachsel,  
 R. J. Doerksen,  A. D. Dutoi,  R. G. Edgar,  J. Fosso-Tande,  
 L. Fusti-Molnar,  D. Ghosh,  A. Ghysels,  A. Golubeva-Zadorozhnaya,  
 J. Gonthier,  M. S. Gordon,  S. R. Gwaltney,  G. Hawkins,  J. E. Herr,  
 A. Heyden,  S. Hirata,  E. G. Hohenstein,  G. Kedziora,  F. J. Keil,  
 C. Kelley,  Jihan Kim,  R. A. King,  R. Z. Khaliullin,  P. P. Korambath,  
 W. Kurlancheek,  A. Laurent,  A. M. Lee,  M. S. Lee,  S. V. Levchenko,  
 Ching Yeh Lin,  D. Liotard,  E. Livshits,  R. C. Lochan,  I. Lotan,  
 L. A. Martinez-Martinez,  P. E. Maslen,  N. Nair,  D. P. O'Neill,  
 D. Neuhauser,  E. Neuscamman,  C. M. Oana,  R. Olivares-Amaya,  R. Olson,  
 T. M. Perrine,  B. Peters,  P. A. Pieniazek,  A. Prociuk,  Y. M. Rhee,  
 J. Ritchie,  M. A. Rohrdanz,  E. Rosta,  N. J. Russ,  H. F. Schaefer III,  
 M. W. Schmidt,  N. E. Schultz,  S. Sharma,  N. Shenvi,  C. D. Sherrill,  
 A. C. Simmonett,  A. Sodt,  T. Stein,  D. Stuck,  K. S. Thanthiriwatte,  
 V. Vanovschi,  L. Vogt,  Tao Wang,  A. Warshel,  M. A. Watson,  
 C. F. Williams,  Q. Wu,  X. Xu,  Jun Yang,  W. Zhang,  Yan Zhao

   Please cite Q-Chem as follows:
  "Software for the frontiers of quantum chemistry:
   An overview of developments in the Q-Chem 5 package"
   J. Chem. Phys. 155, 084801 (2021)
   https://doi.org/10.1063/5.0055522 (open access)

 Q-Chem 5.4.2 for Intel X86 EM64T Linux

 Parts of Q-Chem use Armadillo 9.900.5 (Nocturnal Misbehaviour).
 http://arma.sourceforge.net/

 Q-Chem begins on Sat May 28 13:13:00 2022  

 Host: 
0

     Scratch files written to /tmp/scratch//
 Dec1321 |scratch|qcdevops|jenkins|workspace|build_RNUM 7600   
 Processing $rem in /clusterfs/mp/software/qchem5.4/config/preferences:
 Processing $rem in /global/home/users/smblau/.qchemrc:
 Symmetry turned off for PCM/SM12/SMD calculation

 Checking the input file for inconsistencies... 	...done.

--------------------------------------------------------------
User input:
--------------------------------------------------------------
$molecule
1 1
N      0.2957000000      0.0768300000     -0.2228700000
C      1.3224100000     -0.8879800000      0.3212700000
C     -0.7146500000      0.3849200000      0.8582300000
C     -0.3610100000     -0.5574000000     -1.4253400000
C      0.9421400000      1.3738000000     -0.6469800000
C      2.1936600000     -0.3665800000      1.4504200000
C     -1.9897800000      1.0756200000      0.4025400000
C     -1.1519500000     -1.8289400000     -1.1536400000
C      2.0517600000      1.2602900000     -1.6784300000
C      3.1481200000     -1.4687300000      1.9117200000
C     -2.8504700000      1.4389300000      1.6126900000
C     -2.0644500000     -2.1383700000     -2.3395000000
C      2.7162100000      2.6215400000     -1.8821200000
C      4.0576400000     -1.0145100000      3.0468900000
C     -4.1671500000      2.0927400000      1.2110700000
C     -2.8469800000     -3.4311200000     -2.1478200000
C      3.8179200000      2.5742700000     -2.9341700000
H      1.9442300000     -1.1908700000     -0.5269200000
H      0.7631100000     -1.7670800000      0.6565100000
H     -0.1953700000      1.0094600000      1.5913000000
H     -0.9537700000     -0.5635800000      1.3496800000
H      0.4409600000     -0.7717700000     -2.1377800000
H     -1.0016900000      0.2132100000     -1.8665300000
H      1.3189100000      1.8429400000      0.2674100000
H      0.1385500000      2.0091500000     -1.0316200000
H      1.5854000000     -0.0375500000      2.3039700000
H      2.7875300000      0.4961900000      1.1183300000
H     -2.5702400000      0.4201000000     -0.2604000000
H     -1.7646000000      1.9900800000     -0.1630900000
H     -1.7689700000     -1.7375800000     -0.2498400000
H     -0.4679300000     -2.6725800000     -0.9922800000
H      1.6511500000      0.9084500000     -2.6382000000
H      2.8097900000      0.5299700000     -1.3679400000
H      3.7581500000     -1.7956600000      1.0559400000
H      2.5627600000     -2.3445900000      2.2310500000
H     -2.2827800000      2.1148600000      2.2700200000
H     -3.0511700000      0.5293500000      2.1996200000
H     -1.4569000000     -2.2027200000     -3.2544600000
H     -2.7616600000     -1.2982700000     -2.4840300000
H      3.1328400000      2.9669400000     -0.9232900000
H      1.9543200000      3.3609500000     -2.1736500000
H      3.4695000000     -0.7099900000      3.9244000000
H      4.6714200000     -0.1559900000      2.7388300000
H      4.7358700000     -1.8201700000      3.3559200000
H     -4.7625300000      1.4205500000      0.5765900000
H     -3.9904200000      3.0190600000      0.6457000000
H     -4.7687300000      2.3448600000      2.0938500000
H     -3.4790000000     -3.3761700000     -1.2494500000
H     -2.1684300000     -4.2869800000     -2.0309700000
H     -3.4994900000     -3.6292800000     -3.0081400000
H      3.4163600000      2.2641300000     -3.9096100000
H      4.6001500000      1.8555900000     -2.6502100000
H      4.2896700000      3.5576900000     -3.0576100000
O      2.8720100000     -2.0469700000     -2.3639900000
H      2.8111000000     -3.6287800000     -0.2778100000
C      2.1323800000     -3.9061200000     -1.0867300000
C      2.1386500000     -3.0743100000     -2.2709400000
C      1.3048300000     -4.9882800000     -0.9614600000
H      1.3137600000     -5.5927700000     -0.0519300000
C      1.2293900000     -3.4681900000     -3.3235900000
H      1.2131000000     -2.8543300000     -4.2268300000
C      0.3893800000     -5.3801400000     -2.0131500000
C      0.4063300000     -4.5539200000     -3.2027800000
O     -0.3806000000     -6.3739000000     -1.8973300000
H     -0.2837000000     -4.8213700000     -4.0059300000
C     -1.2514500000     -7.4805100000     -1.8640100000
O     -2.4827200000     -7.7457800000     -2.7859100000
O     -1.2688400000     -8.5061600000     -0.6618000000
$end

$rem
job_type = opt
basis = def2-svpd
max_scf_cycles = 100
gen_scfman = true
xc_grid = 3
thresh = 14
s2thresh = 16
scf_algorithm = diis
resp_charges = true
symmetry = false
sym_ignore = true
method = wb97xd
geom_opt_max_cycles = 200
solvent_method = pcm
geom_opt2 = 3
$end

$pcm
heavypoints 194
hpoints 194
radii uff
theory cpcm
vdwscale 1.1
$end

$solvent
dielectric 38.88
$end

$geom_opt
maxiter = 200
$end
--------------------------------------------------------------
 ----------------------------------------------------------------
             Standard Nuclear Orientation (Angstroms)
    I     Atom           X                Y                Z
 ----------------------------------------------------------------
    1      N       0.2957000000     0.0768300000    -0.2228700000
    2      C       1.3224100000    -0.8879800000     0.3212700000
    3      C      -0.7146500000     0.3849200000     0.8582300000
    4      C      -0.3610100000    -0.5574000000    -1.4253400000
    5      C       0.9421400000     1.3738000000    -0.6469800000
    6      C       2.1936600000    -0.3665800000     1.4504200000
    7      C      -1.9897800000     1.0756200000     0.4025400000
    8      C      -1.1519500000    -1.8289400000    -1.1536400000
    9      C       2.0517600000     1.2602900000    -1.6784300000
   10      C       3.1481200000    -1.4687300000     1.9117200000
   11      C      -2.8504700000     1.4389300000     1.6126900000
   12      C      -2.0644500000    -2.1383700000    -2.3395000000
   13      C       2.7162100000     2.6215400000    -1.8821200000
   14      C       4.0576400000    -1.0145100000     3.0468900000
   15      C      -4.1671500000     2.0927400000     1.2110700000
   16      C      -2.8469800000    -3.4311200000    -2.1478200000
   17      C       3.8179200000     2.5742700000    -2.9341700000
   18      H       1.9442300000    -1.1908700000    -0.5269200000
   19      H       0.7631100000    -1.7670800000     0.6565100000
   20      H      -0.1953700000     1.0094600000     1.5913000000
   21      H      -0.9537700000    -0.5635800000     1.3496800000
   22      H       0.4409600000    -0.7717700000    -2.1377800000
   23      H      -1.0016900000     0.2132100000    -1.8665300000
   24      H       1.3189100000     1.8429400000     0.2674100000
   25      H       0.1385500000     2.0091500000    -1.0316200000
   26      H       1.5854000000    -0.0375500000     2.3039700000
   27      H       2.7875300000     0.4961900000     1.1183300000
   28      H      -2.5702400000     0.4201000000    -0.2604000000
   29      H      -1.7646000000     1.9900800000    -0.1630900000
   30      H      -1.7689700000    -1.7375800000    -0.2498400000
   31      H      -0.4679300000    -2.6725800000    -0.9922800000
   32      H       1.6511500000     0.9084500000    -2.6382000000
   33      H       2.8097900000     0.5299700000    -1.3679400000
   34      H       3.7581500000    -1.7956600000     1.0559400000
   35      H       2.5627600000    -2.3445900000     2.2310500000
   36      H      -2.2827800000     2.1148600000     2.2700200000
   37      H      -3.0511700000     0.5293500000     2.1996200000
   38      H      -1.4569000000    -2.2027200000    -3.2544600000
   39      H      -2.7616600000    -1.2982700000    -2.4840300000
   40      H       3.1328400000     2.9669400000    -0.9232900000
   41      H       1.9543200000     3.3609500000    -2.1736500000
   42      H       3.4695000000    -0.7099900000     3.9244000000
   43      H       4.6714200000    -0.1559900000     2.7388300000
   44      H       4.7358700000    -1.8201700000     3.3559200000
   45      H      -4.7625300000     1.4205500000     0.5765900000
   46      H      -3.9904200000     3.0190600000     0.6457000000
   47      H      -4.7687300000     2.3448600000     2.0938500000
   48      H      -3.4790000000    -3.3761700000    -1.2494500000
   49      H      -2.1684300000    -4.2869800000    -2.0309700000
   50      H      -3.4994900000    -3.6292800000    -3.0081400000
   51      H       3.4163600000     2.2641300000    -3.9096100000
   52      H       4.6001500000     1.8555900000    -2.6502100000
   53      H       4.2896700000     3.5576900000    -3.0576100000
   54      O       2.8720100000    -2.0469700000    -2.3639900000
   55      H       2.8111000000    -3.6287800000    -0.2778100000
   56      C       2.1323800000    -3.9061200000    -1.0867300000
   57      C       2.1386500000    -3.0743100000    -2.2709400000
   58      C       1.3048300000    -4.9882800000    -0.9614600000
   59      H       1.3137600000    -5.5927700000    -0.0519300000
   60      C       1.2293900000    -3.4681900000    -3.3235900000
   61      H       1.2131000000    -2.8543300000    -4.2268300000
   62      C       0.3893800000    -5.3801400000    -2.0131500000
   63      C       0.4063300000    -4.5539200000    -3.2027800000
   64      O      -0.3806000000    -6.3739000000    -1.8973300000
   65      H      -0.2837000000    -4.8213700000    -4.0059300000
   66      C      -1.2514500000    -7.4805100000    -1.8640100000
   67      O      -2.4827200000    -7.7457800000    -2.7859100000
   68      O      -1.2688400000    -8.5061600000    -0.6618000000
 ----------------------------------------------------------------
 Nuclear Repulsion Energy =        2816.40682164 hartrees
 There are      108 alpha and      108 beta electrons
 Requested basis set is def2-SVPD
 There are 388 shells and 892 basis functions

 Total QAlloc Memory Limit  96000 MB
 Mega-Array Size       188 MB
 MEM_STATIC part       192 MB
 -----------------------------------------------------------------------
                STARTING GEOMETRY OPTIMIZER USING LIBOPT3
                by Peter F. McLaughlin, Yu Zhang, Evgeny Epifanovsky
 -----------------------------------------------------------------------
  Checking Topology for Ill-Behaving Coordinates
  Done Checking Topology
              Initial Energy and Gradient Calculation

	Performing Iterative Coordinate Back-Transformation

	  Starting from Previous Position
	  iter:	0	rms: 0.000000	maxdev: 0.000000	 Success!

	Finished Iterative Coordinate Back-Transformation
 ----------------------------------------------------------------
             Standard Nuclear Orientation (Angstroms)
    I     Atom           X                Y                Z
 ----------------------------------------------------------------
    1      N       0.2957000000     0.0768300000    -0.2228700000
    2      C       1.3224100000    -0.8879800000     0.3212700000
    3      C      -0.7146500000     0.3849200000     0.8582300000
    4      C      -0.3610100000    -0.5574000000    -1.4253400000
    5      C       0.9421400000     1.3738000000    -0.6469800000
    6      C       2.1936600000    -0.3665800000     1.4504200000
    7      C      -1.9897800000     1.0756200000     0.4025400000
    8      C      -1.1519500000    -1.8289400000    -1.1536400000
    9      C       2.0517600000     1.2602900000    -1.6784300000
   10      C       3.1481200000    -1.4687300000     1.9117200000
   11      C      -2.8504700000     1.4389300000     1.6126900000
   12      C      -2.0644500000    -2.1383700000    -2.3395000000
   13      C       2.7162100000     2.6215400000    -1.8821200000
   14      C       4.0576400000    -1.0145100000     3.0468900000
   15      C      -4.1671500000     2.0927400000     1.2110700000
   16      C      -2.8469800000    -3.4311200000    -2.1478200000
   17      C       3.8179200000     2.5742700000    -2.9341700000
   18      H       1.9442300000    -1.1908700000    -0.5269200000
   19      H       0.7631100000    -1.7670800000     0.6565100000
   20      H      -0.1953700000     1.0094600000     1.5913000000
   21      H      -0.9537700000    -0.5635800000     1.3496800000
   22      H       0.4409600000    -0.7717700000    -2.1377800000
   23      H      -1.0016900000     0.2132100000    -1.8665300000
   24      H       1.3189100000     1.8429400000     0.2674100000
   25      H       0.1385500000     2.0091500000    -1.0316200000
   26      H       1.5854000000    -0.0375500000     2.3039700000
   27      H       2.7875300000     0.4961900000     1.1183300000
   28      H      -2.5702400000     0.4201000000    -0.2604000000
   29      H      -1.7646000000     1.9900800000    -0.1630900000
   30      H      -1.7689700000    -1.7375800000    -0.2498400000
   31      H      -0.4679300000    -2.6725800000    -0.9922800000
   32      H       1.6511500000     0.9084500000    -2.6382000000
   33      H       2.8097900000     0.5299700000    -1.3679400000
   34      H       3.7581500000    -1.7956600000     1.0559400000
   35      H       2.5627600000    -2.3445900000     2.2310500000
   36      H      -2.2827800000     2.1148600000     2.2700200000
   37      H      -3.0511700000     0.5293500000     2.1996200000
   38      H      -1.4569000000    -2.2027200000    -3.2544600000
   39      H      -2.7616600000    -1.2982700000    -2.4840300000
   40      H       3.1328400000     2.9669400000    -0.9232900000
   41      H       1.9543200000     3.3609500000    -2.1736500000
   42      H       3.4695000000    -0.7099900000     3.9244000000
   43      H       4.6714200000    -0.1559900000     2.7388300000
   44      H       4.7358700000    -1.8201700000     3.3559200000
   45      H      -4.7625300000     1.4205500000     0.5765900000
   46      H      -3.9904200000     3.0190600000     0.6457000000
   47      H      -4.7687300000     2.3448600000     2.0938500000
   48      H      -3.4790000000    -3.3761700000    -1.2494500000
   49      H      -2.1684300000    -4.2869800000    -2.0309700000
   50      H      -3.4994900000    -3.6292800000    -3.0081400000
   51      H       3.4163600000     2.2641300000    -3.9096100000
   52      H       4.6001500000     1.8555900000    -2.6502100000
   53      H       4.2896700000     3.5576900000    -3.0576100000
   54      O       2.8720100000    -2.0469700000    -2.3639900000
   55      H       2.8111000000    -3.6287800000    -0.2778100000
   56      C       2.1323800000    -3.9061200000    -1.0867300000
   57      C       2.1386500000    -3.0743100000    -2.2709400000
   58      C       1.3048300000    -4.9882800000    -0.9614600000
   59      H       1.3137600000    -5.5927700000    -0.0519300000
   60      C       1.2293900000    -3.4681900000    -3.3235900000
   61      H       1.2131000000    -2.8543300000    -4.2268300000
   62      C       0.3893800000    -5.3801400000    -2.0131500000
   63      C       0.4063300000    -4.5539200000    -3.2027800000
   64      O      -0.3806000000    -6.3739000000    -1.8973300000
   65      H      -0.2837000000    -4.8213700000    -4.0059300000
   66      C      -1.2514500000    -7.4805100000    -1.8640100000
   67      O      -2.4827200000    -7.7457800000    -2.7859100000
   68      O      -1.2688400000    -8.5061600000    -0.6618000000
 ----------------------------------------------------------------
 Nuclear Repulsion Energy =        2816.40682164 hartrees
 There are      108 alpha and      108 beta electrons
 Discretize the solute cavity surface with Lebedev spheres
	Using 194 Lebedev grid points for each H atom
	Using 194 Lebedev grid points for other atoms
	Atomic van der Waals radii will be scaled by 1.10
 Remove points where switching function is < 1.0e-08
 Keep 4662 surface tesserae and discard 8530 interior tesserae
 Molecular Surface Area = 544.680 Angst**2
 Requested basis set is def2-SVPD
 There are 388 shells and 892 basis functions
 A cutoff of  1.0D-16 yielded  63483 shell pairs
 There are    333047 function pairs (    375922 Cartesian)
 Smallest overlap matrix eigenvalue = 5.61E-06

 Scale SEOQF with 1.000000e-01/1.000000e-02/1.000000e-01

 Standard Electronic Orientation quadrupole field applied
 Nucleus-field energy     =    -0.0000000278 hartrees
 Guess from superposition of atomic densities
 Warning:  Energy on first SCF cycle will be non-variational
 SAD guess density has 217.000000 electrons

 -----------------------------------------------------------------------
  General SCF calculation program by
  Eric Jon Sundstrom, Paul Horn, Yuezhi Mao, Dmitri Zuev, Alec White,
  David Stuck, Shaama M.S., Shane Yost, Joonho Lee, David Small,
  Daniel Levine, Susi Lehtola, Hugh Burton, Evgeny Epifanovsky,
  Bang C. Huynh
 -----------------------------------------------------------------------
 Exchange:     0.2220 Hartree-Fock + 1.0000 wB97X-D + LR-HF
 Correlation:  1.0000 wB97X-D
 Using SG-3 standard quadrature grid
 Dispersion:   Grimme D
 using 40 threads for integral computing
 -------------------------------------------------------
 OpenMP Integral computing Module                
 Release: version 1.0, May 2013, Q-Chem Inc. Pittsburgh 
 -------------------------------------------------------
 A restricted SCF calculation will be
 performed using DIIS
 SCF converges when DIIS error is below 1.0e-08
 ---------------------------------------
  Cycle       Energy         DIIS error
 ---------------------------------------
    1   -1261.7108046450      1.98e-02  
    2   -1253.8620767648      2.61e-03  
    3   -1251.2025126914      5.74e-03  
    4   -1254.4034382954      1.23e-03  
    5   -1254.5302286688      3.20e-04  
    6   -1254.5371300878      2.35e-04  
    7   -1254.5415983388      5.77e-05  
    8   -1254.5418052906      4.15e-05  
    9   -1254.5419469393      1.83e-05  
   10   -1254.5419756458      8.02e-06  
   11   -1254.5419846721      2.17e-06  
   12   -1254.5419853202      7.69e-07  
   13   -1254.5419857007      3.13e-07  
   14   -1254.5419859149      1.75e-07  
   15   -1254.5419861742      7.99e-08  
   16   -1254.5419861932      4.55e-08  
   17   -1254.5419863090      2.35e-08  
   18   -1254.5419857990      1.36e-08  
   19   -1254.5419857103      5.08e-09  Convergence criterion met
 ---------------------------------------
 SCF time:   CPU 33954.98s  wall 1825.00s 

************** Final PCM Free Energy Summary **************
 G_electrostatic  =      -0.14567950 hartree =     -91.41526743 kcal/mol
 G_cavitation     =       0.00000000 hartree =       0.00000000 kcal/mol
 G_dispersion     =       0.00000000 hartree =       0.00000000 kcal/mol
 G_repulsion      =       0.00000000 hartree =       0.00000000 kcal/mol
 --------------------------------------------------
 Non-electrostatic Free Energy =       0.00000000 hartree =       0.00000000 kcal/mol
 Total                         =      -0.14567950 hartree =     -91.41526743 kcal/mol
 --------------------------------------------------
 SCF Energy (H0 + V/2)                       =   -1254.54198571 
 Solute Internal Energy (H0)                 =   -1254.39630621 
 Total Free Energy (H0 + V/2 + non-elec)     =   -1254.54198571 hartree
                                             = -787236.97780036 kcal/mol
***********************************************************

 SCF   energy in the final basis set =    -1254.5419857103
 Total energy in the final basis set =    -1254.5419857103
 
 --------------------------------------------------------------
 
                    Orbital Energies (a.u.)
 --------------------------------------------------------------
 
 Alpha MOs
 -- Occupied --
-19.4328 -19.3501 -19.2780 -19.2732 -14.5976 -10.5541 -10.5311 -10.4689
-10.4010 -10.4005 -10.3943 -10.3937 -10.3745 -10.3717 -10.3692 -10.3684
-10.3293 -10.3213 -10.3199 -10.3187 -10.3150 -10.3110 -10.3076 -10.3076
-10.3012 -10.2946 -10.2932 -10.2932  -1.3026  -1.1960  -1.1351  -1.0504
 -1.0218  -0.9741  -0.9385  -0.9347  -0.9318  -0.9261  -0.9240  -0.9056
 -0.8590  -0.8556  -0.8516  -0.8459  -0.8127  -0.7984  -0.7732  -0.7695
 -0.7496  -0.7424  -0.7012  -0.6969  -0.6934  -0.6911  -0.6827  -0.6804
 -0.6508  -0.6433  -0.6399  -0.6202  -0.6169  -0.6084  -0.6021  -0.5919
 -0.5871  -0.5782  -0.5772  -0.5735  -0.5715  -0.5673  -0.5646  -0.5423
 -0.5378  -0.5294  -0.5268  -0.5225  -0.5200  -0.5151  -0.5142  -0.5106
 -0.5047  -0.4934  -0.4848  -0.4831  -0.4790  -0.4707  -0.4631  -0.4605
 -0.4511  -0.4488  -0.4460  -0.4441  -0.4416  -0.4391  -0.4367  -0.4329
 -0.4316  -0.4299  -0.4289  -0.4256  -0.4227  -0.4212  -0.4206  -0.4182
 -0.4178  -0.3910  -0.3525  -0.3439
 -- Virtual --
 -0.1700  -0.0322  -0.0115   0.0219   0.0461   0.0715   0.0793   0.0809
  0.0819   0.0934   0.0979   0.1001   0.1018   0.1075   0.1082   0.1171
  0.1174   0.1181   0.1234   0.1273   0.1292   0.1321   0.1374   0.1400
  0.1408   0.1424   0.1491   0.1507   0.1511   0.1571   0.1608   0.1615
  0.1658   0.1690   0.1726   0.1761   0.1763   0.1787   0.1801   0.1824
  0.1862   0.1884   0.1889   0.1919   0.1946   0.1951   0.1967   0.1989
  0.2002   0.2013   0.2059   0.2074   0.2092   0.2110   0.2121   0.2163
  0.2168   0.2190   0.2227   0.2229   0.2252   0.2263   0.2301   0.2321
  0.2327   0.2360   0.2398   0.2421   0.2443   0.2467   0.2498   0.2527
  0.2538   0.2567   0.2574   0.2599   0.2630   0.2657   0.2685   0.2698
  0.2728   0.2763   0.2765   0.2808   0.2830   0.2849   0.2868   0.2884
  0.2925   0.2939   0.2982   0.2991   0.3010   0.3024   0.3057   0.3085
  0.3137   0.3175   0.3220   0.3243   0.3262   0.3282   0.3313   0.3328
  0.3363   0.3398   0.3421   0.3452   0.3461   0.3490   0.3508   0.3544
  0.3575   0.3618   0.3627   0.3656   0.3678   0.3714   0.3737   0.3750
  0.3772   0.3779   0.3818   0.3853   0.3876   0.3895   0.3903   0.3930
  0.3955   0.3960   0.3988   0.3996   0.4022   0.4057   0.4070   0.4086
  0.4119   0.4149   0.4158   0.4175   0.4208   0.4219   0.4231   0.4238
  0.4268   0.4271   0.4282   0.4295   0.4331   0.4351   0.4352   0.4370
  0.4384   0.4392   0.4433   0.4442   0.4466   0.4479   0.4494   0.4513
  0.4546   0.4566   0.4604   0.4612   0.4620   0.4633   0.4651   0.4690
  0.4695   0.4714   0.4723   0.4752   0.4777   0.4784   0.4806   0.4829
  0.4853   0.4888   0.4906   0.4918   0.4951   0.4983   0.4996   0.5018
  0.5029   0.5085   0.5096   0.5111   0.5117   0.5142   0.5162   0.5187
  0.5208   0.5233   0.5273   0.5295   0.5308   0.5321   0.5345   0.5387
  0.5408   0.5426   0.5453   0.5474   0.5515   0.5528   0.5531   0.5557
  0.5577   0.5593   0.5622   0.5636   0.5650   0.5659   0.5688   0.5726
  0.5732   0.5783   0.5802   0.5805   0.5840   0.5862   0.5892   0.5928
  0.5950   0.5966   0.5986   0.6015   0.6021   0.6050   0.6071   0.6098
  0.6130   0.6149   0.6176   0.6201   0.6237   0.6243   0.6267   0.6284
  0.6310   0.6326   0.6395   0.6415   0.6422   0.6444   0.6468   0.6474
  0.6481   0.6503   0.6543   0.6551   0.6555   0.6628   0.6648   0.6664
  0.6680   0.6708   0.6753   0.6797   0.6812   0.6835   0.6877   0.6890
  0.6899   0.6922   0.6969   0.6974   0.6991   0.7014   0.7027   0.7060
  0.7064   0.7083   0.7135   0.7150   0.7196   0.7228   0.7266   0.7272
  0.7279   0.7289   0.7308   0.7344   0.7379   0.7394   0.7438   0.7449
  0.7475   0.7502   0.7521   0.7543   0.7567   0.7596   0.7640   0.7662
  0.7683   0.7727   0.7753   0.7794   0.7821   0.7860   0.7909   0.7928
  0.7949   0.7973   0.7993   0.8032   0.8049   0.8082   0.8130   0.8140
  0.8180   0.8203   0.8266   0.8269   0.8342   0.8355   0.8401   0.8419
  0.8424   0.8473   0.8516   0.8557   0.8574   0.8636   0.8645   0.8670
  0.8724   0.8739   0.8793   0.8813   0.8820   0.8852   0.8943   0.8954
  0.8982   0.9016   0.9051   0.9107   0.9139   0.9161   0.9203   0.9237
  0.9249   0.9285   0.9320   0.9356   0.9376   0.9432   0.9453   0.9511
  0.9518   0.9569   0.9594   0.9626   0.9718   0.9735   0.9793   0.9836
  0.9856   0.9951   1.0005   1.0040   1.0062   1.0122   1.0179   1.0208
  1.0232   1.0295   1.0344   1.0390   1.0407   1.0462   1.0500   1.0516
  1.0555   1.0657   1.0680   1.0727   1.0751   1.0772   1.0863   1.0884
  1.0914   1.0949   1.0972   1.1002   1.1042   1.1105   1.1130   1.1138
  1.1175   1.1180   1.1270   1.1291   1.1316   1.1361   1.1420   1.1442
  1.1486   1.1544   1.1575   1.1599   1.1673   1.1691   1.1729   1.1796
  1.1848   1.1867   1.1909   1.1919   1.2017   1.2070   1.2091   1.2185
  1.2206   1.2240   1.2305   1.2377   1.2436   1.2452   1.2513   1.2551
  1.2599   1.2696   1.2743   1.2813   1.2826   1.2873   1.2931   1.3009
  1.3049   1.3112   1.3167   1.3214   1.3243   1.3296   1.3361   1.3377
  1.3423   1.3479   1.3518   1.3606   1.3633   1.3656   1.3694   1.3744
  1.3819   1.3912   1.4010   1.4086   1.4152   1.4209   1.4244   1.4326
  1.4351   1.4396   1.4455   1.4511   1.4556   1.4586   1.4666   1.4719
  1.4744   1.4827   1.4891   1.4938   1.4955   1.4989   1.5102   1.5117
  1.5149   1.5244   1.5294   1.5347   1.5420   1.5441   1.5486   1.5500
  1.5590   1.5649   1.5683   1.5775   1.5831   1.5859   1.5937   1.6019
  1.6108   1.6181   1.6208   1.6273   1.6316   1.6404   1.6473   1.6504
  1.6608   1.6758   1.6832   1.6869   1.6903   1.6917   1.7055   1.7078
  1.7173   1.7211   1.7249   1.7343   1.7352   1.7405   1.7473   1.7570
  1.7622   1.7717   1.7779   1.7815   1.7848   1.7865   1.7977   1.8017
  1.8059   1.8086   1.8137   1.8221   1.8288   1.8315   1.8432   1.8469
  1.8555   1.8586   1.8613   1.8636   1.8654   1.8759   1.8790   1.8877
  1.8900   1.8930   1.8993   1.9041   1.9081   1.9151   1.9180   1.9237
  1.9283   1.9356   1.9411   1.9435   1.9519   1.9524   1.9568   1.9623
  1.9672   1.9707   1.9726   1.9800   1.9844   1.9864   1.9951   1.9953
  2.0006   2.0044   2.0124   2.0151   2.0188   2.0209   2.0233   2.0292
  2.0325   2.0352   2.0403   2.0491   2.0505   2.0532   2.0633   2.0654
  2.0676   2.0710   2.0785   2.0845   2.0867   2.0962   2.0980   2.1053
  2.1070   2.1119   2.1148   2.1161   2.1212   2.1294   2.1324   2.1390
  2.1424   2.1448   2.1513   2.1527   2.1576   2.1610   2.1650   2.1716
  2.1737   2.1773   2.1841   2.1870   2.1896   2.1940   2.2021   2.2141
  2.2186   2.2231   2.2261   2.2316   2.2376   2.2455   2.2519   2.2588
  2.2698   2.2760   2.2789   2.2842   2.2950   2.2969   2.3047   2.3098
  2.3131   2.3156   2.3189   2.3234   2.3305   2.3377   2.3445   2.3471
  2.3501   2.3535   2.3619   2.3665   2.3726   2.3830   2.3862   2.3910
  2.4001   2.4076   2.4100   2.4147   2.4181   2.4246   2.4313   2.4403
  2.4470   2.4568   2.4641   2.4664   2.4842   2.4925   2.5019   2.5068
  2.5098   2.5209   2.5282   2.5302   2.5395   2.5498   2.5557   2.5622
  2.5645   2.5715   2.5775   2.5847   2.6006   2.6094   2.6123   2.6197
  2.6229   2.6298   2.6372   2.6486   2.6534   2.6560   2.6573   2.6612
  2.6722   2.6866   2.6903   2.7024   2.7049   2.7116   2.7177   2.7273
  2.7392   2.7404   2.7476   2.7516   2.7552   2.7605   2.7691   2.7723
  2.7741   2.7911   2.7952   2.7960   2.7987   2.8108   2.8131   2.8189
  2.8320   2.8449   2.8510   2.8932   2.8967   2.9052   2.9187   2.9250
  2.9284   2.9295   2.9396   2.9420   2.9487   2.9554   2.9605   2.9643
  2.9672   2.9706   2.9718   2.9782   2.9811   2.9909   2.9947   3.0021
  3.0025   3.0129   3.0195   3.0317   3.0382   3.0430   3.0592   3.0873
  3.0990   3.1080   3.1217   3.1236   3.1346   3.1361   3.1454   3.1533
  3.1586   3.1665   3.1723   3.1840   3.1912   3.1927   3.2036   3.2118
  3.2264   3.2325   3.2473   3.2587   3.2623   3.2673   3.2740   3.2760
  3.2894   3.2920   3.3013   3.3079   3.3240   3.3319   3.3362   3.3417
  3.3425   3.3570   3.3683   3.3751   3.3904   3.4197   3.4424   3.4533
  3.4992   3.5142   3.5210   3.5289   3.5776   3.5873   3.8660   4.0109
 --------------------------------------------------------------
 
          Ground-State Mulliken Net Atomic Charges

     Atom                 Charge (a.u.)
  ----------------------------------------
      1 N                    -2.304971
      2 C                     0.146663
      3 C                     0.277046
      4 C                     0.488457
      5 C                     0.492927
      6 C                     0.420237
      7 C                     0.294017
      8 C                     0.249209
      9 C                    -0.041416
     10 C                    -0.085529
     11 C                    -0.092006
     12 C                    -0.028333
     13 C                    -0.009646
     14 C                     0.739348
     15 C                     0.600002
     16 C                     1.319554
     17 C                     0.629839
     18 H                    -0.772882
     19 H                    -0.117395
     20 H                    -0.274107
     21 H                     0.024769
     22 H                    -0.292542
     23 H                    -0.267424
     24 H                    -0.084944
     25 H                    -0.340179
     26 H                     0.036825
     27 H                    -0.107645
     28 H                    -0.019036
     29 H                     0.035304
     30 H                    -0.070927
     31 H                    -0.024849
     32 H                     0.147602
     33 H                    -0.195045
     34 H                     0.062192
     35 H                     0.032237
     36 H                    -0.017915
     37 H                     0.055666
     38 H                     0.036522
     39 H                    -0.034325
     40 H                     0.060915
     41 H                     0.015346
     42 H                     0.089850
     43 H                     0.106942
     44 H                    -0.007714
     45 H                     0.076505
     46 H                     0.090390
     47 H                     0.004513
     48 H                     0.189232
     49 H                    -0.648530
     50 H                     0.103253
     51 H                     0.108184
     52 H                     0.082861
     53 H                    -0.004213
     54 O                    -0.394674
     55 H                    -0.266552
     56 C                     0.232732
     57 C                     0.369650
     58 C                    -0.049858
     59 H                     0.498803
     60 C                    -0.199428
     61 H                     0.085408
     62 C                     0.258217
     63 C                     0.214234
     64 O                    -0.712008
     65 H                     0.495224
     66 C                     0.812004
     67 O                    -0.755961
     68 O                    -0.762626
  ----------------------------------------
  Sum of atomic charges =     1.000000

  Building new vdw surfaces
         Merz-Kollman RESP Net Atomic Charges

     Atom                 Charge (a.u.)
  ----------------------------------------
      1 N                     1.066503
      2 C                    -0.252002
      3 C                    -0.401255
      4 C                    -0.067182
      5 C                    -0.598963
      6 C                    -0.107076
      7 C                    -0.082239
      8 C                    -0.245938
      9 C                     0.144581
     10 C                     0.271095
     11 C                     0.121225
     12 C                     0.233404
     13 C                     0.121251
     14 C                    -0.659403
     15 C                    -0.511757
     16 C                    -0.549372
     17 C                    -0.549372
     18 H                     0.017264
     19 H                     0.025631
     20 H                     0.119107
     21 H                     0.119107
     22 H                     0.013602
     23 H                     0.013602
     24 H                     0.143557
     25 H                     0.143557
     26 H                     0.060692
     27 H                     0.060692
     28 H                     0.086594
     29 H                     0.086594
     30 H                     0.086594
     31 H                     0.086594
     32 H                     0.023339
     33 H                     0.023339
     34 H                     0.020354
     35 H                     0.020354
     36 H                     0.038610
     37 H                     0.038610
     38 H                     0.007550
     39 H                     0.007550
     40 H                     0.034888
     41 H                     0.034888
     42 H                     0.164590
     43 H                     0.164590
     44 H                     0.164590
     45 H                     0.132504
     46 H                     0.132504
     47 H                     0.132504
     48 H                     0.145766
     49 H                     0.145766
     50 H                     0.145766
     51 H                     0.140116
     52 H                     0.140116
     53 H                     0.140116
     54 O                    -0.415524
     55 H                     0.091584
     56 C                     0.218250
     57 C                     0.451401
     58 C                    -0.547086
     59 H                     0.263394
     60 C                    -0.082162
     61 H                     0.199574
     62 C                     0.860270
     63 C                    -0.231095
     64 O                    -0.276505
     65 H                     0.171985
     66 C                     0.518637
     67 O                    -0.608908
     68 O                    -0.608908
  ----------------------------------------
  Sum of atomic charges =     1.000000

  Related Dipole Moment =    17.8073 (X 11.6369 Y 13.2313 Z -2.5721)

 -----------------------------------------------------------------
                    Cartesian Multipole Moments
 -----------------------------------------------------------------
    Charge (ESU x 10^10)
                 4.8032
    Dipole Moment (Debye)
         X      11.5883      Y      13.1086      Z      -2.6103
       Tot      17.6900
    Quadrupole Moments (Debye-Ang)
        XX    -171.2274     XY     -80.4656     YY    -333.3876
        XZ     -17.5414     YZ     -11.4652     ZZ    -149.7962
    Octopole Moments (Debye-Ang^2)
       XXX    -109.4682    XXY     434.8259    XYY     568.5243
       YYY    2738.0597    XXZ     200.7561    XYZ     138.2329
       YYZ     362.1004    XZZ       1.8748    YZZ     322.5274
       ZZZ     381.6537
    Hexadecapole Moments (Debye-Ang^3)
      XXXX   -5711.9401   XXXY    -798.4004   XXYY   -4303.2324
      XYYY   -5168.9393   YYYY  -30827.6476   XXXZ      21.9369
      XXYZ    -943.9489   XYYZ   -1133.8672   YYYZ   -4271.5125
      XXZZ   -1732.7049   XYZZ    -552.2209   YYZZ   -3507.5779
      XZZZ     -92.5471   YZZZ   -1789.4861   ZZZZ   -3849.1568
 -----------------------------------------------------------------
 Calculating analytic gradient of the SCF energy
 Gradient of SCF Energy
            1           2           3           4           5           6
    1   0.0023636   0.0237639  -0.0049490   0.0212014   0.0127480   0.0051123
    2  -0.0274761   0.0060343  -0.0009126   0.0014312  -0.0333438  -0.0693014
    3  -0.0012699  -0.0139112  -0.0292747   0.0351880   0.0190151   0.0051620
            7           8           9          10          11          12
    1  -0.0132404  -0.0337511  -0.0044462  -0.0023858   0.0006514   0.0061701
    2   0.0213075   0.0072959   0.0722255   0.0250419   0.0092757  -0.0221898
    3   0.0577023  -0.0648647  -0.0072770  -0.0028602  -0.0248587   0.0275715
           13          14          15          16          17          18
    1   0.0113235   0.0280770  -0.0251071  -0.0474443   0.0220369   0.0008958
    2  -0.0317461  -0.0113879   0.0148915  -0.0152982   0.0194710   0.0138091
    3  -0.0035485   0.0289519   0.0163308  -0.0205384  -0.0154635  -0.0083428
           19          20          21          22          23          24
    1  -0.0198375   0.0218695  -0.0196816  -0.0144270  -0.0060696   0.0168899
    2  -0.0341939   0.0358801  -0.0485453  -0.0220076   0.0239878   0.0229262
    3   0.0142312   0.0300535   0.0076591  -0.0037391  -0.0304626   0.0403591
           25          26          27          28          29          30
    1  -0.0256721  -0.0522161   0.0385024  -0.0337584   0.0196454  -0.0307796
    2   0.0246309   0.0042320   0.0352853  -0.0635003   0.0537663  -0.0063034
    3  -0.0508400   0.0416436  -0.0333928  -0.0144626  -0.0096524   0.0413940
           31          32          33          34          35          36
    1   0.0887107  -0.0483010   0.0514421   0.0284765  -0.0457136   0.0329704
    2  -0.0339033  -0.0087756  -0.0125345   0.0156451  -0.0324620   0.0279359
    3  -0.0253798  -0.0471624   0.0257494  -0.0380847   0.0090874   0.0189425
           37          38          39          40          41          42
    1  -0.0010466   0.0393166  -0.0199640   0.0128791  -0.0412258  -0.0229343
    2  -0.0454790   0.0046791   0.0461260   0.0013859   0.0222978   0.0104646
    3   0.0161764  -0.0330666   0.0057408   0.0471222  -0.0121055   0.0277182
           43          44          45          46          47          48
    1   0.0201801   0.0225830  -0.0173426   0.0115286  -0.0184050  -0.0221685
    2   0.0302176  -0.0337493  -0.0278392   0.0317471   0.0077830   0.0069201
    3  -0.0171734   0.0114469  -0.0191390  -0.0179616   0.0307349   0.0259952
           49          50          51          52          53          54
    1   0.0458326  -0.0234166  -0.0192120   0.0240911   0.0150998   0.0636715
    2  -0.0187588  -0.0026598  -0.0094811  -0.0250793   0.0351718   0.1141840
    3   0.0054625  -0.0242081  -0.0312649   0.0162568  -0.0023998  -0.0025657
           55          56          57          58          59          60
    1   0.0531842   0.0425233  -0.0581047  -0.0392651   0.0121989   0.0653786
    2  -0.0098458   0.1217132  -0.0647553  -0.0588962  -0.0740953   0.0803536
    3   0.0478558   0.0024084   0.0472207  -0.0809506   0.0787275   0.0077462
           61          62          63          64          65          66
    1   0.0153507   0.0118870  -0.0473436  -0.0333079  -0.0455125   0.1455507
    2   0.0496923   0.0462790  -0.0747677  -0.0052476  -0.0476746   0.1292296
    3  -0.0928653   0.0082393   0.0321383   0.0237500  -0.0788470  -0.0374517
           67          68
    1  -0.1620436  -0.0350338
    2  -0.0645357  -0.1365714
    3  -0.0868257   0.1284296
 Max gradient component =       1.620E-01
 RMS gradient           =       4.197E-02
 Computing fast CPCM-SWIG gradient
 Updating gradient with PCM contributions...
 -- total gradient after adding PCM contribution --
---------------------------------------------------
  Atom         X              Y              Z     
---------------------------------------------------
   1      -0.000745       0.001306       0.001248
   2       0.001150      -0.000884      -0.000434
   3       0.000830       0.000133      -0.001396
   4       0.000108      -0.000784      -0.001465
   5      -0.000596      -0.001192       0.000150
   6      -0.001111       0.000094      -0.000051
   7      -0.000237      -0.000081       0.000642
   8       0.001361      -0.001821       0.000556
   9       0.000995       0.000838       0.000416
  10       0.000602       0.000573      -0.000061
  11      -0.000003       0.000124      -0.000414
  12       0.000015       0.000603       0.000054
  13      -0.000602      -0.000299       0.000055
  14      -0.000315      -0.000096       0.000010
  15      -0.000023      -0.000001       0.000239
  16       0.000934      -0.001966       0.000494
  17      -0.000042       0.000226       0.000140
  18       0.000423      -0.003083      -0.003181
  19       0.000415      -0.000001      -0.001002
  20      -0.000060       0.000133       0.000197
  21      -0.000004      -0.000019      -0.000184
  22       0.001015      -0.002488       0.000502
  23      -0.000522       0.000778       0.000525
  24       0.000163       0.000149       0.000101
  25      -0.000111       0.000184      -0.000081
  26       0.000260       0.000375       0.000725
  27       0.000304       0.000235       0.000124
  28       0.000242      -0.000074      -0.000045
  29       0.000039       0.000038      -0.000052
  30      -0.001185       0.001062       0.000173
  31       0.001104      -0.000312      -0.002159
  32       0.000158      -0.000421       0.000514
  33      -0.001080      -0.000768      -0.000663
  34      -0.000859      -0.000345       0.000021
  35       0.000077      -0.000078      -0.000423
  36      -0.000022       0.000041       0.000100
  37      -0.000014      -0.000039       0.000036
  38       0.000968      -0.000879       0.001065
  39      -0.000846       0.000846       0.000182
  40       0.000125       0.000183       0.000090
  41       0.000047       0.000376      -0.000074
  42       0.000048       0.000122       0.000235
  43       0.000094       0.000122       0.000038
  44       0.000177      -0.000047       0.000157
  45      -0.000002      -0.000014      -0.000037
  46       0.000002       0.000018      -0.000037
  47      -0.000129       0.000060       0.000008
  48      -0.001096       0.000797       0.000208
  49       0.001612       0.000558      -0.000606
  50      -0.000994       0.000376      -0.000375
  51      -0.000001      -0.000057      -0.000011
  52      -0.000016      -0.000062      -0.000007
  53       0.000145       0.000088      -0.000107
  54       0.040168       0.057028      -0.003611
  55       0.001076       0.002130       0.000495
  56       0.007953       0.026835      -0.024975
  57      -0.044112      -0.057282       0.006543
  58      -0.010948      -0.002886      -0.016807
  59      -0.000585      -0.001615       0.001245
  60       0.025610       0.017147       0.021461
  61       0.000757       0.001961      -0.000636
  62      -0.016388      -0.022138       0.009519
  63       0.002138      -0.009826       0.016315
  64       0.026081       0.038927      -0.005938
  65      -0.001694      -0.000827      -0.000439
  66       0.148463       0.137159      -0.039278
  67      -0.152410      -0.055347      -0.085092
  68      -0.028907      -0.125890       0.125060
---------------------------------------------------
 Number of fixed atoms: 0
 Gradient time:  CPU 5359.53 s  wall 337.45 s
Initial Energy: -1.25454199e+03

 *****************************************************
             Starting BFGS Algorithm
 *****************************************************
            LIBOPT3 RUN PARAMETERS

  Geometry Optimization Coordinates :
	Internal Coordinates

  Step Length Selection Method :
	Eigenvector Following Algorithm

  Convergence Criteria :
	Max Gradient Component    	3.00000000e-04
	Max Displacement Component	1.20000000e-03
	Absolute Energy Difference	1.00000000e-06

  Initial Hessian :
	Approximate Hessian - Simple Internal Coordinate Scaled

  Type of Verification :
	Verify with final updated Hessian
 *****************************************************

	OPTIMIZATION CYCLE:	1

 All Eigenvalues from Projected Hessian
   0.10000000   0.10000000   0.10000000   0.10000000   0.10000000
   0.10000000   0.10000000   0.10000000   0.10000000   0.10000000
   0.10000000   0.10000000   0.10000000   0.10000000   0.10000000
   0.10000000   0.10000000   0.10000000   0.10000000   0.10000000
   0.10000000   0.10000000   0.10000000   0.10000000   0.10000000
   0.10000000   0.10000000   0.10000000   0.10000000   0.10000000
   0.10000000   0.10000000   0.10000000   0.10000000   0.10000000
   0.10000000   0.10000000   0.10000000   0.10000000   0.10000000
   0.10000000   0.10000000   0.10000000   0.10000000   0.10000000
   0.10000000   0.10000000   0.10000000   0.10000000   0.10000000
   0.10000000   0.10000000   0.10000000   0.10000000   0.10000000
   0.10000000   0.10000000   0.10000000   0.10000000   0.10000000
   0.10000000   0.10000000   0.10000000   0.10000000   0.10000000
   0.10000000   0.10000000   0.10000000   0.10000000   0.10000000
   0.10000000   0.10000000   0.10000000   0.10000000   0.10000000
   0.10000000   0.10000000   0.10000000   0.10000000   0.10000000
   0.10000000   0.10000000   0.10000000   0.10000000   0.10000000
   0.10000000   0.10000000   0.10000000   0.10000000   0.10000000
   0.10000000   0.10000000   0.10000000   0.10000000   0.10000000
   0.10000000   0.10000000   0.10000000   0.10000000   0.10000000
   0.10000000   0.10000000   0.10000000   0.10000000   0.10000000
   0.10000000   0.10000000   0.10000000   0.10000000   0.10000000
   0.10000000   0.10000000   0.10000000   0.10000000   0.10000000
   0.10000000   0.10000000   0.10000000   0.10000000   0.10000000
   0.10000000   0.10000000   0.10000000   0.10000000   0.10000000
   0.10000000   0.10000000   0.10000000   0.10000000   0.10000000
   0.10000000   0.10000000   0.10000000   0.10000000   0.10000000
   0.10000000   0.10000000   0.10000000   0.10000000   0.10000000
   0.10000000   0.10000000   0.10000000   0.10000000   0.10000000
   0.10000000   0.10000000   0.10000000   0.10000000   0.10000000
   0.10000000   0.10000000   0.10000000   0.10000000   0.10000000
   0.10000000   0.10000000   0.10000000   0.10000000   0.10000000
   0.10000000   0.10000000   0.10000000   0.10000000   0.10000000
   0.10000000   0.10000000   0.10000000   0.10000000   0.10000000
   0.10000000   0.10000000   0.10000000   0.10000000   0.10000000
   0.10000000   0.10000000   0.10000000   0.20000000   0.20000000
   0.20000000   0.20000000   0.20000000   0.20000000   0.20000000
   0.20000000   0.20000000   0.20000000   0.20000000   0.20000000
   0.20000000   0.20000000   0.20000000   0.20000000   0.20000000
   0.20000000   0.20000000   0.20000000   0.20000000   0.20000000
   0.20000000   0.20000000   0.20000000   0.20000000   0.20000000
   0.20000000   0.20000000   0.20000000   0.20000000   0.20000000
   0.20000000   0.20000000   0.20000000   0.20000000   0.20000000
   0.20000000   0.20000000   0.20000000   0.20000000   0.20000000
   0.20000000   0.20000000   0.20000000   0.20000000   0.20000000
   0.20000000   0.20000000   0.20000000   0.20000000   0.20000000
   0.20000000   0.20000000   0.20000000   0.20000000   0.20000000
   0.20000000   0.20000000   0.20000000   0.20000000   0.20000000
   0.20000000   0.20000000   0.20000000   0.20000000   0.20000000
   0.20000000   0.20000000   0.20000000   0.20000000   0.20000000
   0.20000000   0.20000000   0.20000000   0.20000000   0.20000000
   0.20000000   0.20000000   0.20000000   0.20000000   0.20000000
   0.20000000   0.20000000   0.20000000   0.20000000   0.20000000
   0.20000000   0.20000000   0.20000000   0.20000000   0.20000000
   0.20000000   0.20000000   0.20000000   0.20000000   0.20000000
   0.20000000   0.20000000   0.20000000   0.20000000   0.20000000
   0.20000000   0.20000000   0.20000000   0.20000000   0.20000000
   0.20000000   0.20000000   0.20000000   0.20000000   0.20000000
   0.20000000   0.20000000   0.20000000   0.20000000   0.20000000
   0.20000000   0.20000000   0.20000000   0.20000000   0.20000000
   0.20000000   0.20000000   0.20000000   0.20000000   0.50000000
   0.50000000   0.50000000   0.50000000   0.50000000   0.50000000
   0.50000000   0.50000000   0.50000000   0.50000000   0.50000000
   0.50000000   0.50000000   0.50000000   0.50000000   0.50000000
   0.50000000   0.50000000   0.50000000   0.50000000   0.50000000
   0.50000000   0.50000000   0.50000000   0.50000000   0.50000000
   0.50000000   0.50000000   0.50000000   0.50000000   0.50000000
   0.50000000   0.50000000   0.50000000   0.50000000   0.50000000
   0.50000000   0.50000000   0.50000000   0.50000000   0.50000000
   0.50000000   0.50000000   0.50000000   0.50000000   0.50000000
   0.50000000   0.50000000   0.50000000   0.50000000   0.50000000
   0.50000000   0.50000000   0.50000000   0.50000000   0.50000000
   0.50000000   0.50000000   0.50000000   0.50000000   0.50000000
   0.50000000   0.50000000   0.50000000   0.50000000   0.50000000
   0.50000000   0.50000000

 Scaling Magnitute of eigenvalues
 Minimum: -25.00000000
 Maximum: 25.00000000
 372 Hessian Eigenvalues to form next step
   0.10000000   0.10000000   0.10000000   0.10000000   0.10000000
   0.10000000   0.10000000   0.10000000   0.10000000   0.10000000
   0.10000000   0.10000000   0.10000000   0.10000000   0.10000000
   0.10000000   0.10000000   0.10000000   0.10000000   0.10000000
   0.10000000   0.10000000   0.10000000   0.10000000   0.10000000
   0.10000000   0.10000000   0.10000000   0.10000000   0.10000000
   0.10000000   0.10000000   0.10000000   0.10000000   0.10000000
   0.10000000   0.10000000   0.10000000   0.10000000   0.10000000
   0.10000000   0.10000000   0.10000000   0.10000000   0.10000000
   0.10000000   0.10000000   0.10000000   0.10000000   0.10000000
   0.10000000   0.10000000   0.10000000   0.10000000   0.10000000
   0.10000000   0.10000000   0.10000000   0.10000000   0.10000000
   0.10000000   0.10000000   0.10000000   0.10000000   0.10000000
   0.10000000   0.10000000   0.10000000   0.10000000   0.10000000
   0.10000000   0.10000000   0.10000000   0.10000000   0.10000000
   0.10000000   0.10000000   0.10000000   0.10000000   0.10000000
   0.10000000   0.10000000   0.10000000   0.10000000   0.10000000
   0.10000000   0.10000000   0.10000000   0.10000000   0.10000000
   0.10000000   0.10000000   0.10000000   0.10000000   0.10000000
   0.10000000   0.10000000   0.10000000   0.10000000   0.10000000
   0.10000000   0.10000000   0.10000000   0.10000000   0.10000000
   0.10000000   0.10000000   0.10000000   0.10000000   0.10000000
   0.10000000   0.10000000   0.10000000   0.10000000   0.10000000
   0.10000000   0.10000000   0.10000000   0.10000000   0.10000000
   0.10000000   0.10000000   0.10000000   0.10000000   0.10000000
   0.10000000   0.10000000   0.10000000   0.10000000   0.10000000
   0.10000000   0.10000000   0.10000000   0.10000000   0.10000000
   0.10000000   0.10000000   0.10000000   0.10000000   0.10000000
   0.10000000   0.10000000   0.10000000   0.10000000   0.10000000
   0.10000000   0.10000000   0.10000000   0.10000000   0.10000000
   0.10000000   0.10000000   0.10000000   0.10000000   0.10000000
   0.10000000   0.10000000   0.10000000   0.10000000   0.10000000
   0.10000000   0.10000000   0.10000000   0.10000000   0.10000000
   0.10000000   0.10000000   0.10000000   0.10000000   0.10000000
   0.10000000   0.10000000   0.10000000   0.10000000   0.10000000
   0.10000000   0.10000000   0.10000000   0.20000000   0.20000000
   0.20000000   0.20000000   0.20000000   0.20000000   0.20000000
   0.20000000   0.20000000   0.20000000   0.20000000   0.20000000
   0.20000000   0.20000000   0.20000000   0.20000000   0.20000000
   0.20000000   0.20000000   0.20000000   0.20000000   0.20000000
   0.20000000   0.20000000   0.20000000   0.20000000   0.20000000
   0.20000000   0.20000000   0.20000000   0.20000000   0.20000000
   0.20000000   0.20000000   0.20000000   0.20000000   0.20000000
   0.20000000   0.20000000   0.20000000   0.20000000   0.20000000
   0.20000000   0.20000000   0.20000000   0.20000000   0.20000000
   0.20000000   0.20000000   0.20000000   0.20000000   0.20000000
   0.20000000   0.20000000   0.20000000   0.20000000   0.20000000
   0.20000000   0.20000000   0.20000000   0.20000000   0.20000000
   0.20000000   0.20000000   0.20000000   0.20000000   0.20000000
   0.20000000   0.20000000   0.20000000   0.20000000   0.20000000
   0.20000000   0.20000000   0.20000000   0.20000000   0.20000000
   0.20000000   0.20000000   0.20000000   0.20000000   0.20000000
   0.20000000   0.20000000   0.20000000   0.20000000   0.20000000
   0.20000000   0.20000000   0.20000000   0.20000000   0.20000000
   0.20000000   0.20000000   0.20000000   0.20000000   0.20000000
   0.20000000   0.20000000   0.20000000   0.20000000   0.20000000
   0.20000000   0.20000000   0.20000000   0.20000000   0.20000000
   0.20000000   0.20000000   0.20000000   0.20000000   0.20000000
   0.20000000   0.20000000   0.20000000   0.20000000   0.20000000
   0.20000000   0.20000000   0.20000000   0.20000000   0.20000000
   0.20000000   0.20000000   0.20000000   0.20000000   0.50000000
   0.50000000   0.50000000   0.50000000   0.50000000   0.50000000
   0.50000000   0.50000000   0.50000000   0.50000000   0.50000000
   0.50000000   0.50000000   0.50000000   0.50000000   0.50000000
   0.50000000   0.50000000   0.50000000   0.50000000   0.50000000
   0.50000000   0.50000000   0.50000000   0.50000000   0.50000000
   0.50000000   0.50000000   0.50000000   0.50000000   0.50000000
   0.50000000   0.50000000   0.50000000   0.50000000   0.50000000
   0.50000000   0.50000000   0.50000000   0.50000000   0.50000000
   0.50000000   0.50000000   0.50000000   0.50000000   0.50000000
   0.50000000   0.50000000   0.50000000   0.50000000   0.50000000
   0.50000000   0.50000000   0.50000000   0.50000000   0.50000000
   0.50000000   0.50000000   0.50000000   0.50000000   0.50000000
   0.50000000   0.50000000   0.50000000   0.50000000   0.50000000
   0.50000000   0.50000000

 Minimum Search taking a RFO step
 Searching for Lambda that minimizes along all modes
 Value of Lambda  -0.14331360
 Norm of Stepsize  0.30000000

	Performing Iterative Coordinate Back-Transformation

	  Starting from Previous Position
	  iter:	0	rms: 0.15221591	maxdev: 0.79870647
	  iter:	1	rms: 0.00422658	maxdev: 0.02738612
	  iter:	2	rms: 0.00000776	maxdev: 0.00008586
	  iter:	3	rms: 0.00000000	maxdev: 0.00000002	 Success!

	Finished Iterative Coordinate Back-Transformation
 ----------------------------------------------------------------
             Standard Nuclear Orientation (Angstroms)
    I     Atom           X                Y                Z
 ----------------------------------------------------------------
    1      N       0.2570752877     0.0902546407    -0.2154856950
    2      C       1.2671395341    -0.8956261072     0.3254306516
    3      C      -0.7371778478     0.4230424119     0.8738680043
    4      C      -0.4297018015    -0.5245395131    -1.4106721712
    5      C       0.9335351140     1.3695188595    -0.6484197276
    6      C       2.1532852189    -0.3794025952     1.4450120089
    7      C      -1.9987566465     1.1435716476     0.4267099753
    8      C      -1.2554038293    -1.7717308586    -1.1286419280
    9      C       2.0312858886     1.2257314844    -1.6890520025
   10      C       3.0908333071    -1.4932466580     1.9133249871
   11      C      -2.8408655751     1.5283560999     1.6432267622
   12      C      -2.1907918032    -2.0535530512    -2.3042733676
   13      C       2.7288839936     2.5687882997    -1.9016396813
   14      C       4.0131131215    -1.0433521849     3.0396560896
   15      C      -4.1444298559     2.2131436994     1.2507252212
   16      C      -3.0124052906    -3.3202418111    -2.1022058268
   17      C       3.8201597747     2.4908195161    -2.9626595589
   18      H       1.8857275646    -1.2176989551    -0.5196303416
   19      H       0.6941660999    -1.7618152062     0.6718182152
   20      H      -0.1972628842     1.0355098557     1.6020697093
   21      H      -0.9950792619    -0.5189559728     1.3683872682
   22      H       0.3579746285    -0.7587450046    -2.1320906558
   23      H      -1.0534673162     0.2630317396    -1.8453351125
   24      H       1.3300421807     1.8306930722     0.2615497314
   25      H       0.1431034727     2.0242415253    -1.0274984479
   26      H       1.5543074761    -0.0316139530     2.2973617329
   27      H       2.7603820759     0.4694129967     1.1015736786
   28      H      -2.6001647703     0.5016947907    -0.2309336355
   29      H      -1.7561204587     2.0517944000    -0.1416821768
   30      H      -1.8585294681    -1.6611225026    -0.2181640495
   31      H      -0.5964645469    -2.6356271375    -0.9721596189
   32      H       1.6139391432     0.8826312050    -2.6450489571
   33      H       2.7740936263     0.4777944575    -1.3830187924
   34      H       3.6921429084    -1.8390997127     1.0585740451
   35      H       2.4920691839    -2.3556331237     2.2444333322
   36      H      -2.2520006079     2.1910119185     2.2953604184
   37      H      -3.0587610018     0.6244176514     2.2326861115
   38      H      -1.5971648983    -2.1370658571    -3.2269679271
   39      H      -2.8624767693    -1.1924271180    -2.4415111756
   40      H       3.1621382994     2.9053553730    -0.9471434210
   41      H       1.9836329778     3.3265769561    -2.1885078792
   42      H       3.4340128628    -0.7200582085     3.9163490632
   43      H       4.6400843311    -0.1987455399     2.7201609668
   44      H       4.6785963342    -1.8575428373     3.3536783179
   45      H      -4.7606023485     1.5548291259     0.6215920170
   46      H      -3.9498470868     3.1343971866     0.6829743447
   47      H      -4.7328746082     2.4804068727     2.1378370693
   48      H      -3.6313242279    -3.2448827260    -1.1967213026
   49      H      -2.3638114116    -4.1995404723    -1.9916809058
   50      H      -3.6804897969    -3.4977136653    -2.9545529600
   51      H       3.4027020926     2.1889987087    -3.9340073701
   52      H       4.5861156762     1.7530151530    -2.6834648029
   53      H       4.3156897027     3.4616060340    -3.0921379981
   54      O       2.8437527932    -2.0869823847    -2.3386596963
   55      H       2.8477443064    -3.6458240088    -0.2468297564
   56      C       2.1959541417    -3.9521771409    -1.0663381360
   57      C       2.1721285818    -3.1186144088    -2.2641709314
   58      C       1.4260793920    -5.0618123483    -0.9623914644
   59      H       1.4401243006    -5.6764540601    -0.0608772923
   60      C       1.2996163126    -3.5396838597    -3.3539707460
   61      H       1.2736220140    -2.9221832104    -4.2535549960
   62      C       0.5596896715    -5.4656294192    -2.0511278339
   63      C       0.5352842278    -4.6538056635    -3.2515367034
   64      O      -0.1600036443    -6.4933525451    -1.9495636271
   65      H      -0.1289565079    -4.9595786534    -4.0616785280
   66      C      -0.9626008169    -7.6185571615    -1.9570078901
   67      O      -2.0595280526    -7.8405191974    -2.9167837292
   68      O      -0.8934344841    -8.5890108478    -0.8216909024
 ----------------------------------------------------------------
 Nuclear Repulsion Energy =        2806.72897883 hartrees
 There are      108 alpha and      108 beta electrons
 Discretize the solute cavity surface with Lebedev spheres
	Using 194 Lebedev grid points for each H atom
	Using 194 Lebedev grid points for other atoms
	Atomic van der Waals radii will be scaled by 1.10
 Remove points where switching function is < 1.0e-08
 Keep 4764 surface tesserae and discard 8428 interior tesserae
 Molecular Surface Area = 549.353 Angst**2
 Applying Cartesian multipole field
    Component          Value
    ---------          -----
     (2,0,0)        1.00000E-11
     (0,2,0)        2.00000E-12
     (0,0,2)       -3.00000E-11
 Nucleus-field energy     =    -0.0000000295 hartrees
 Requested basis set is def2-SVPD
 There are 388 shells and 892 basis functions
 A cutoff of  1.0D-16 yielded  63266 shell pairs
 There are    331772 function pairs (    374478 Cartesian)
 Smallest overlap matrix eigenvalue = 5.74E-06
 Guess MOs from SCF MO coefficient file

 -----------------------------------------------------------------------
  General SCF calculation program by
  Eric Jon Sundstrom, Paul Horn, Yuezhi Mao, Dmitri Zuev, Alec White,
  David Stuck, Shaama M.S., Shane Yost, Joonho Lee, David Small,
  Daniel Levine, Susi Lehtola, Hugh Burton, Evgeny Epifanovsky,
  Bang C. Huynh
 -----------------------------------------------------------------------
 Exchange:     0.2220 Hartree-Fock + 1.0000 wB97X-D + LR-HF
 Correlation:  1.0000 wB97X-D
 Using SG-3 standard quadrature grid
 Dispersion:   Grimme D
 A restricted SCF calculation will be
 performed using Roothaan-Hall, DIIS
 SCF converges when DIIS error is below 1.0e-08
 ---------------------------------------
  Cycle       Energy         DIIS error
 ---------------------------------------
    1   -1254.4175712293      1.15e-03  Roothaan Step
 ---------------------------------------
  Cycle       Energy         DIIS error
 ---------------------------------------
    1   -1254.5929301475      3.69e-04  
    2   -1254.5989303025      5.17e-04  
    3   -1254.6189782861      7.52e-05  
    4   -1254.6197265265      6.09e-05  
    5   -1254.6201572998      2.25e-05  
    6   -1254.6202312095      1.09e-05  
    7   -1254.6202521726      5.42e-06  
    8   -1254.6202577737      2.82e-06  
    9   -1254.6202596171      8.67e-07  
   10   -1254.6202598769      4.70e-07  
   11   -1254.6202597896      2.37e-07  
   12   -1254.6202600112      1.01e-07  
   13   -1254.6202600178      4.72e-08  
   14   -1254.6202601868      2.34e-08  
   15   -1254.6202598541      1.10e-08  
   16   -1254.6202602223      5.69e-09  Convergence criterion met
 ---------------------------------------
 SCF time:   CPU 30748.25s  wall 1656.00s 

************** Final PCM Free Energy Summary **************
 G_electrostatic  =      -0.14192059 hartree =     -89.05651303 kcal/mol
 G_cavitation     =       0.00000000 hartree =       0.00000000 kcal/mol
 G_dispersion     =       0.00000000 hartree =       0.00000000 kcal/mol
 G_repulsion      =       0.00000000 hartree =       0.00000000 kcal/mol
 --------------------------------------------------
 Non-electrostatic Free Energy =       0.00000000 hartree =       0.00000000 kcal/mol
 Total                         =      -0.14192059 hartree =     -89.05651303 kcal/mol
 --------------------------------------------------
 SCF Energy (H0 + V/2)                       =   -1254.62026022 
 Solute Internal Energy (H0)                 =   -1254.47833963 
 Total Free Energy (H0 + V/2 + non-elec)     =   -1254.62026022 hartree
                                             = -787286.09579798 kcal/mol
***********************************************************

 SCF   energy in the final basis set =    -1254.6202602223
 Total energy in the final basis set =    -1254.6202602223
 
 --------------------------------------------------------------
 
                    Orbital Energies (a.u.)
 --------------------------------------------------------------
 
 Alpha MOs
 -- Occupied --
-19.4234 -19.3433 -19.2695 -19.2650 -14.5969 -10.5402 -10.5268 -10.4644
-10.3962 -10.3960 -10.3894 -10.3888 -10.3729 -10.3713 -10.3687 -10.3680
-10.3270 -10.3209 -10.3196 -10.3184 -10.3127 -10.3110 -10.3075 -10.3074
-10.2974 -10.2945 -10.2931 -10.2931  -1.3032  -1.2082  -1.1340  -1.0691
 -1.0245  -0.9915  -0.9357  -0.9345  -0.9320  -0.9248  -0.9236  -0.9049
 -0.8569  -0.8551  -0.8512  -0.8356  -0.8119  -0.7957  -0.7716  -0.7690
 -0.7488  -0.7402  -0.6994  -0.6958  -0.6930  -0.6908  -0.6818  -0.6795
 -0.6491  -0.6425  -0.6368  -0.6194  -0.6160  -0.6070  -0.5990  -0.5911
 -0.5903  -0.5781  -0.5762  -0.5725  -0.5712  -0.5687  -0.5645  -0.5409
 -0.5370  -0.5277  -0.5265  -0.5213  -0.5196  -0.5153  -0.5146  -0.5129
 -0.5039  -0.4925  -0.4850  -0.4823  -0.4811  -0.4709  -0.4619  -0.4607
 -0.4521  -0.4503  -0.4474  -0.4430  -0.4410  -0.4380  -0.4363  -0.4313
 -0.4307  -0.4287  -0.4281  -0.4252  -0.4242  -0.4231  -0.4216  -0.4187
 -0.4171  -0.3940  -0.3546  -0.3449
 -- Virtual --
 -0.1591  -0.0142  -0.0063   0.0396   0.0670   0.0733   0.0807   0.0816
  0.0821   0.0941   0.0982   0.0997   0.1041   0.1070   0.1083   0.1176
  0.1191   0.1231   0.1240   0.1265   0.1299   0.1334   0.1376   0.1401
  0.1427   0.1454   0.1484   0.1508   0.1534   0.1565   0.1616   0.1648
  0.1659   0.1698   0.1729   0.1756   0.1769   0.1783   0.1805   0.1822
  0.1873   0.1882   0.1902   0.1924   0.1945   0.1967   0.1979   0.1980
  0.2009   0.2044   0.2062   0.2083   0.2113   0.2131   0.2165   0.2169
  0.2197   0.2212   0.2224   0.2249   0.2267   0.2301   0.2327   0.2348
  0.2400   0.2411   0.2428   0.2453   0.2470   0.2484   0.2514   0.2525
  0.2539   0.2573   0.2589   0.2612   0.2644   0.2676   0.2686   0.2722
  0.2748   0.2766   0.2793   0.2826   0.2844   0.2865   0.2905   0.2912
  0.2960   0.2963   0.2990   0.2992   0.3021   0.3040   0.3051   0.3097
  0.3159   0.3189   0.3218   0.3232   0.3270   0.3292   0.3321   0.3324
  0.3371   0.3406   0.3435   0.3461   0.3484   0.3499   0.3515   0.3570
  0.3591   0.3609   0.3650   0.3672   0.3707   0.3719   0.3738   0.3760
  0.3787   0.3806   0.3841   0.3864   0.3892   0.3904   0.3918   0.3949
  0.3961   0.3975   0.3998   0.4010   0.4018   0.4059   0.4074   0.4092
  0.4102   0.4142   0.4153   0.4173   0.4201   0.4220   0.4233   0.4239
  0.4260   0.4277   0.4287   0.4297   0.4317   0.4320   0.4346   0.4366
  0.4380   0.4412   0.4424   0.4440   0.4467   0.4468   0.4482   0.4497
  0.4558   0.4563   0.4582   0.4609   0.4612   0.4639   0.4657   0.4678
  0.4692   0.4704   0.4719   0.4741   0.4752   0.4784   0.4792   0.4810
  0.4858   0.4873   0.4904   0.4920   0.4938   0.4968   0.4996   0.5004
  0.5032   0.5067   0.5071   0.5111   0.5125   0.5132   0.5164   0.5180
  0.5211   0.5217   0.5251   0.5270   0.5298   0.5305   0.5334   0.5357
  0.5392   0.5397   0.5447   0.5464   0.5483   0.5506   0.5537   0.5545
  0.5563   0.5575   0.5601   0.5627   0.5641   0.5647   0.5674   0.5690
  0.5716   0.5739   0.5784   0.5810   0.5827   0.5841   0.5872   0.5910
  0.5925   0.5949   0.5957   0.6003   0.6020   0.6026   0.6053   0.6067
  0.6076   0.6157   0.6164   0.6190   0.6206   0.6230   0.6244   0.6274
  0.6282   0.6316   0.6358   0.6379   0.6384   0.6406   0.6426   0.6454
  0.6461   0.6515   0.6529   0.6541   0.6563   0.6592   0.6634   0.6639
  0.6650   0.6702   0.6743   0.6781   0.6803   0.6821   0.6842   0.6864
  0.6893   0.6921   0.6936   0.6969   0.6980   0.7003   0.7012   0.7049
  0.7062   0.7096   0.7123   0.7151   0.7182   0.7215   0.7232   0.7235
  0.7259   0.7297   0.7323   0.7347   0.7386   0.7394   0.7421   0.7444
  0.7459   0.7495   0.7529   0.7556   0.7558   0.7639   0.7661   0.7668
  0.7724   0.7729   0.7763   0.7780   0.7840   0.7899   0.7912   0.7925
  0.7960   0.7963   0.7998   0.8032   0.8042   0.8061   0.8133   0.8147
  0.8173   0.8183   0.8258   0.8265   0.8334   0.8381   0.8388   0.8405
  0.8430   0.8461   0.8507   0.8534   0.8571   0.8589   0.8610   0.8656
  0.8717   0.8725   0.8764   0.8806   0.8815   0.8860   0.8894   0.8924
  0.8947   0.8988   0.9042   0.9062   0.9084   0.9109   0.9170   0.9174
  0.9202   0.9230   0.9280   0.9296   0.9342   0.9391   0.9407   0.9444
  0.9476   0.9524   0.9566   0.9632   0.9687   0.9701   0.9762   0.9776
  0.9848   0.9916   0.9956   1.0042   1.0086   1.0099   1.0137   1.0158
  1.0219   1.0226   1.0280   1.0389   1.0405   1.0427   1.0458   1.0504
  1.0514   1.0604   1.0629   1.0700   1.0733   1.0760   1.0783   1.0853
  1.0862   1.0899   1.0943   1.0971   1.1016   1.1039   1.1073   1.1134
  1.1147   1.1171   1.1213   1.1252   1.1264   1.1297   1.1343   1.1428
  1.1474   1.1515   1.1563   1.1578   1.1625   1.1671   1.1681   1.1704
  1.1842   1.1848   1.1878   1.1887   1.1962   1.2003   1.2064   1.2105
  1.2203   1.2245   1.2249   1.2357   1.2416   1.2445   1.2529   1.2576
  1.2594   1.2683   1.2695   1.2748   1.2835   1.2866   1.2917   1.2969
  1.3050   1.3121   1.3171   1.3212   1.3223   1.3311   1.3323   1.3369
  1.3409   1.3495   1.3536   1.3564   1.3636   1.3677   1.3680   1.3722
  1.3846   1.3890   1.3983   1.4023   1.4144   1.4178   1.4225   1.4296
  1.4326   1.4356   1.4382   1.4464   1.4571   1.4608   1.4683   1.4699
  1.4748   1.4833   1.4870   1.4917   1.4952   1.5000   1.5037   1.5107
  1.5136   1.5209   1.5265   1.5348   1.5371   1.5466   1.5482   1.5538
  1.5572   1.5600   1.5687   1.5782   1.5792   1.5884   1.5910   1.5921
  1.6009   1.6056   1.6172   1.6208   1.6259   1.6301   1.6397   1.6436
  1.6610   1.6752   1.6804   1.6843   1.6867   1.6907   1.7009   1.7030
  1.7145   1.7217   1.7259   1.7284   1.7397   1.7415   1.7513   1.7526
  1.7628   1.7723   1.7757   1.7776   1.7844   1.7852   1.7951   1.8014
  1.8033   1.8073   1.8103   1.8229   1.8242   1.8288   1.8392   1.8430
  1.8505   1.8537   1.8601   1.8626   1.8634   1.8713   1.8763   1.8826
  1.8863   1.8926   1.8931   1.9054   1.9133   1.9166   1.9185   1.9242
  1.9306   1.9351   1.9391   1.9408   1.9496   1.9518   1.9540   1.9608
  1.9638   1.9685   1.9732   1.9814   1.9844   1.9879   1.9924   1.9966
  1.9986   2.0051   2.0110   2.0126   2.0175   2.0191   2.0229   2.0282
  2.0330   2.0365   2.0424   2.0444   2.0472   2.0506   2.0530   2.0579
  2.0679   2.0697   2.0768   2.0818   2.0903   2.0918   2.0986   2.1004
  2.1064   2.1094   2.1115   2.1155   2.1232   2.1265   2.1315   2.1396
  2.1430   2.1435   2.1474   2.1502   2.1530   2.1586   2.1613   2.1638
  2.1697   2.1745   2.1775   2.1836   2.1892   2.1925   2.1975   2.2034
  2.2105   2.2177   2.2235   2.2262   2.2319   2.2334   2.2499   2.2558
  2.2695   2.2724   2.2748   2.2807   2.2930   2.2946   2.3031   2.3081
  2.3136   2.3145   2.3203   2.3239   2.3309   2.3408   2.3429   2.3458
  2.3483   2.3558   2.3624   2.3646   2.3702   2.3774   2.3809   2.3925
  2.3981   2.4023   2.4080   2.4098   2.4159   2.4224   2.4299   2.4397
  2.4458   2.4574   2.4592   2.4664   2.4678   2.4849   2.4976   2.5051
  2.5086   2.5197   2.5243   2.5294   2.5366   2.5480   2.5546   2.5599
  2.5639   2.5709   2.5739   2.5766   2.5959   2.6059   2.6088   2.6144
  2.6221   2.6244   2.6353   2.6470   2.6477   2.6511   2.6548   2.6594
  2.6709   2.6827   2.6842   2.6979   2.7029   2.7087   2.7165   2.7250
  2.7342   2.7386   2.7435   2.7498   2.7524   2.7569   2.7671   2.7719
  2.7745   2.7857   2.7911   2.7953   2.7970   2.8083   2.8124   2.8172
  2.8310   2.8434   2.8513   2.8905   2.8950   2.9033   2.9110   2.9205
  2.9217   2.9248   2.9294   2.9411   2.9465   2.9511   2.9615   2.9645
  2.9662   2.9714   2.9733   2.9803   2.9862   2.9941   2.9964   2.9988
  3.0053   3.0145   3.0232   3.0334   3.0467   3.0581   3.0671   3.0890
  3.1076   3.1206   3.1247   3.1277   3.1374   3.1485   3.1532   3.1550
  3.1613   3.1721   3.1792   3.1884   3.1916   3.2006   3.2018   3.2059
  3.2255   3.2394   3.2509   3.2615   3.2661   3.2723   3.2743   3.2783
  3.2894   3.2903   3.2989   3.3046   3.3202   3.3310   3.3399   3.3443
  3.3681   3.3723   3.3854   3.3913   3.4209   3.4385   3.4544   3.4858
  3.5112   3.5280   3.5452   3.5520   3.5774   3.6449   3.9057   4.0442
 --------------------------------------------------------------
 
          Ground-State Mulliken Net Atomic Charges

     Atom                 Charge (a.u.)
  ----------------------------------------
      1 N                    -2.301060
      2 C                     0.337401
      3 C                     0.274345
      4 C                     0.483420
      5 C                     0.504785
      6 C                     0.378532
      7 C                     0.293984
      8 C                     0.208587
      9 C                    -0.030320
     10 C                    -0.080592
     11 C                    -0.091812
     12 C                    -0.068961
     13 C                    -0.009943
     14 C                     0.748135
     15 C                     0.600355
     16 C                     1.048066
     17 C                     0.632399
     18 H                    -0.855925
     19 H                    -0.109527
     20 H                    -0.282772
     21 H                     0.020997
     22 H                    -0.314037
     23 H                    -0.251001
     24 H                    -0.084371
     25 H                    -0.353597
     26 H                     0.021807
     27 H                    -0.116767
     28 H                    -0.023626
     29 H                     0.032356
     30 H                    -0.056833
     31 H                    -0.015892
     32 H                     0.142842
     33 H                    -0.206546
     34 H                     0.050167
     35 H                     0.017375
     36 H                    -0.018464
     37 H                     0.056050
     38 H                     0.044786
     39 H                     0.014188
     40 H                     0.060149
     41 H                     0.011306
     42 H                     0.087519
     43 H                     0.107553
     44 H                    -0.006277
     45 H                     0.076609
     46 H                     0.090732
     47 H                     0.003891
     48 H                     0.147970
     49 H                    -0.340588
     50 H                     0.071043
     51 H                     0.108551
     52 H                     0.079928
     53 H                    -0.003660
     54 O                    -0.351743
     55 H                    -0.222817
     56 C                     0.292362
     57 C                     0.262080
     58 C                    -0.109652
     59 H                     0.436203
     60 C                    -0.220115
     61 H                     0.088197
     62 C                     0.424497
     63 C                     0.197452
     64 O                    -0.765636
     65 H                     0.498164
     66 C                     0.906220
     67 O                    -0.781342
     68 O                    -0.787126
  ----------------------------------------
  Sum of atomic charges =     1.000000

  Building new vdw surfaces
         Merz-Kollman RESP Net Atomic Charges

     Atom                 Charge (a.u.)
  ----------------------------------------
      1 N                     1.049746
      2 C                    -0.270837
      3 C                    -0.420609
      4 C                    -0.043824
      5 C                    -0.589387
      6 C                    -0.104048
      7 C                    -0.076562
      8 C                    -0.228707
      9 C                     0.134598
     10 C                     0.269213
     11 C                     0.127682
     12 C                     0.201706
     13 C                     0.126971
     14 C                    -0.661552
     15 C                    -0.509398
     16 C                    -0.555494
     17 C                    -0.555494
     18 H                     0.023758
     19 H                     0.032629
     20 H                     0.125932
     21 H                     0.125932
     22 H                     0.009948
     23 H                     0.009948
     24 H                     0.143050
     25 H                     0.143050
     26 H                     0.061881
     27 H                     0.061881
     28 H                     0.084403
[...]
       YYZ     189.4551    XZZ     -55.8227    YZZ     271.7670
       ZZZ     421.9812
    Hexadecapole Moments (Debye-Ang^3)
      XXXX   -5606.9245   XXXY    -356.3548   XXYY   -3210.4615
      XYYY    -749.0855   YYYY  -17837.7186   XXXZ     -20.8221
      XXYZ    -843.9168   XYYZ     -82.7341   YYYZ   -3052.4086
      XXZZ   -1741.8255   XYZZ    -141.1569   YYZZ   -3036.4642
      XZZZ     -64.7073   YZZZ   -2139.9046   ZZZZ   -4357.8577
 -----------------------------------------------------------------
 Calculating analytic gradient of the SCF energy
 Gradient of SCF Energy
            1           2           3           4           5           6
    1  -0.0065705   0.0015885  -0.0015363   0.0140105   0.0149602   0.0105507
    2  -0.0200353   0.0147480  -0.0040404   0.0021556  -0.0265421  -0.0604183
    3  -0.0002202  -0.0028166  -0.0249326   0.0303030   0.0111552   0.0102755
            7           8           9          10          11          12
    1  -0.0119942  -0.0155534  -0.0056657  -0.0033791   0.0002985   0.0022487
    2   0.0215931   0.0041704   0.0609650   0.0249601   0.0059417  -0.0116365
    3   0.0515364  -0.0613008  -0.0014016  -0.0002169  -0.0225113   0.0242583
           13          14          15          16          17          18
    1   0.0114698   0.0246977  -0.0232713  -0.0363048   0.0184774   0.0237761
    2  -0.0256698  -0.0095320   0.0142704  -0.0233848   0.0159744   0.0062078
    3  -0.0033960   0.0228018   0.0137980  -0.0242631  -0.0132427  -0.0189462
           19          20          21          22          23          24
    1  -0.0167084   0.0181732  -0.0180854  -0.0015945  -0.0091106   0.0152551
    2  -0.0247025   0.0344160  -0.0442223  -0.0208405   0.0209782   0.0208346
    3   0.0127255   0.0246907   0.0086023  -0.0104343  -0.0262425   0.0354218
           25          26          27          28          29          30
    1  -0.0210191  -0.0421356   0.0333841  -0.0294271   0.0177181  -0.0265449
    2   0.0172299   0.0050055   0.0283120  -0.0571314   0.0488390  -0.0041590
    3  -0.0450567   0.0339598  -0.0282353  -0.0120078  -0.0110423   0.0342911
           31          32          33          34          35          36
    1   0.0622600  -0.0380763   0.0365796   0.0192950  -0.0369148   0.0298149
    2  -0.0261945  -0.0070750  -0.0155242   0.0047754  -0.0261258   0.0267937
    3  -0.0064804  -0.0376844   0.0163187  -0.0356885   0.0096071   0.0159468
           37          38          39          40          41          42
    1  -0.0008459   0.0322441  -0.0200470   0.0104175  -0.0360603  -0.0196107
    2  -0.0405091   0.0036371   0.0397557   0.0033736   0.0177595   0.0099530
    3   0.0171107  -0.0288102   0.0040932   0.0405740  -0.0124511   0.0236202
           43          44          45          46          47          48
    1   0.0167402   0.0194972  -0.0159503   0.0103969  -0.0169680  -0.0199642
    2   0.0248448  -0.0274704  -0.0264516   0.0284420   0.0084271   0.0053738
    3  -0.0164185   0.0108430  -0.0164426  -0.0181158   0.0281884   0.0231034
           49          50          51          52          53          54
    1   0.0398057  -0.0210502  -0.0156552   0.0199008   0.0121033   0.0158134
    2  -0.0177211  -0.0030245  -0.0094515  -0.0196143   0.0296676   0.0499871
    3   0.0118802  -0.0210127  -0.0253419   0.0145212  -0.0033550   0.0015154
           55          56          57          58          59          60
    1   0.0449850   0.0251048  -0.0253933  -0.0210672   0.0068927   0.0251388
    2  -0.0096319   0.0783044  -0.0385907  -0.0413945  -0.0295229   0.0598140
    3   0.0375564   0.0174397   0.0231528  -0.0476899   0.0543990   0.0074449
           61          62          63          64          65          66
    1   0.0016422  -0.0087847  -0.0345713  -0.0240381  -0.0134670   0.0076918
    2   0.0342366   0.0217809  -0.0661012  -0.0382622  -0.0201214  -0.0057494
    3  -0.0622940   0.0155480   0.0063440  -0.0048509  -0.0529738   0.0025698
           67          68
    1  -0.0239131   0.0183461
    2   0.0459062  -0.0385831
    3  -0.0047442   0.0050245
 Max gradient component =       7.830E-02
 RMS gradient           =       2.644E-02
 Computing fast CPCM-SWIG gradient
 Updating gradient with PCM contributions...
 -- total gradient after adding PCM contribution --
---------------------------------------------------
  Atom         X              Y              Z     
---------------------------------------------------
   1      -0.000181       0.000532       0.000088
   2      -0.000057      -0.001097       0.000480
   3       0.000030       0.000104      -0.000315
   4       0.000437      -0.000212      -0.000341
   5      -0.000083      -0.000312       0.000344
   6       0.000033       0.000039      -0.000278
   7      -0.000184      -0.000083       0.000127
   8       0.000480      -0.000138      -0.000589
   9       0.000398       0.000231      -0.000119
  10       0.000349       0.000162       0.000311
  11       0.000044      -0.000081      -0.000105
  12       0.000023      -0.000083       0.000356
  13      -0.000135      -0.000088       0.000039
  14      -0.000171      -0.000063      -0.000059
  15      -0.000014      -0.000015       0.000049
  16       0.000082      -0.000527       0.000173
  17       0.000034       0.000028       0.000069
  18      -0.000987       0.001091      -0.000556
  19       0.000036       0.000260       0.000054
  20      -0.000001       0.000091      -0.000037
  21       0.000029       0.000037       0.000060
  22       0.000255      -0.000149       0.000061
  23      -0.000402      -0.000058       0.000227
  24       0.000045      -0.000065      -0.000000
  25      -0.000037       0.000027      -0.000075
  26       0.000070       0.000102       0.000137
  27       0.000089      -0.000018       0.000058
  28       0.000084       0.000008      -0.000069
  29       0.000051       0.000052       0.000008
  30      -0.000134       0.000235       0.000135
  31       0.000200      -0.000425      -0.000224
  32      -0.000064      -0.000052       0.000140
  33      -0.000172      -0.000014      -0.000126
  34      -0.000179      -0.000058       0.000020
  35       0.000029      -0.000103      -0.000229
  36      -0.000014       0.000026       0.000010
  37       0.000003      -0.000002       0.000022
  38       0.000175       0.000111       0.000083
  39      -0.000257       0.000191       0.000023
  40      -0.000012       0.000031       0.000030
  41       0.000016       0.000028      -0.000071
  42      -0.000002       0.000032       0.000045
  43       0.000038       0.000028      -0.000001
  44       0.000034      -0.000015       0.000055
  45      -0.000000      -0.000002      -0.000022
  46       0.000007       0.000001      -0.000026
  47      -0.000011       0.000018      -0.000004
  48      -0.000176       0.000269       0.000022
  49       0.000137       0.000261      -0.000266
  50      -0.000103       0.000078       0.000069
  51      -0.000002      -0.000002      -0.000008
  52       0.000013      -0.000008       0.000001
  53       0.000031       0.000014      -0.000029
  54       0.003202       0.005463      -0.000217
  55      -0.000184      -0.000761       0.000673
  56       0.001073       0.005176      -0.005839
  57      -0.004725      -0.009487       0.001956
  58       0.000403       0.000797      -0.001077
  59       0.000198      -0.000464       0.000712
  60       0.003535       0.003796       0.003621
  61      -0.000303      -0.000466      -0.000722
  62      -0.003766      -0.002499       0.000638
  63      -0.000549      -0.005153       0.004212
  64      -0.001733      -0.000426      -0.004209
  65      -0.000180       0.001086      -0.001970
  66       0.006690       0.001045       0.004833
  67      -0.001840       0.000376      -0.001278
  68      -0.001692       0.001100      -0.001081
---------------------------------------------------
 Number of fixed atoms: 0
 Gradient time:  CPU 5101.72 s  wall 331.62 s

     Step 14	:	Energy -1254.8482915836
                            Maximum         Tolerance       Converged?
         Gradient           6.65857801e-03	3.00000000e-04	false
         Displacement       2.51045060e-01	1.20000000e-03	false
         Energy change      3.70415475e-03	1.00000000e-06	false


	OPTIMIZATION CYCLE:	15

 All Eigenvalues from Projected Hessian
   0.01999454   0.08159842   0.09997122   0.10000000   0.10000000
   0.10000000   0.10000000   0.10000000   0.10000000   0.10000000
   0.10000000   0.10000000   0.10000000   0.10000000   0.10000000
   0.10000000   0.10000000   0.10000000   0.10000000   0.10000000
   0.10000000   0.10000000   0.10000000   0.10000000   0.10000000
   0.10000000   0.10000000   0.10000000   0.10000000   0.10000000
   0.10000000   0.10000000   0.10000000   0.10000000   0.10000000
   0.10000000   0.10000000   0.10000000   0.10000000   0.10000000
   0.10000000   0.10000000   0.10000000   0.10000000   0.10000000
   0.10000000   0.10000000   0.10000000   0.10000000   0.10000000
   0.10000000   0.10000000   0.10000000   0.10000000   0.10000000
   0.10000000   0.10000000   0.10000000   0.10000000   0.10000000
   0.10000000   0.10000000   0.10000000   0.10000000   0.10000000
   0.10000000   0.10000000   0.10000000   0.10000000   0.10000000
   0.10000000   0.10000000   0.10000000   0.10000000   0.10000000
   0.10000000   0.10000000   0.10000000   0.10000000   0.10000000
   0.10000000   0.10000000   0.10000000   0.10000000   0.10000000
   0.10000000   0.10000000   0.10000000   0.10000000   0.10000000
   0.10000000   0.10000000   0.10000000   0.10000000   0.10000000
   0.10000000   0.10000000   0.10000000   0.10000000   0.10000000
   0.10000000   0.10000000   0.10000000   0.10000000   0.10000000
   0.10000000   0.10000000   0.10000000   0.10000000   0.10000000
   0.10000000   0.10000000   0.10000000   0.10000000   0.10000000
   0.10000000   0.10000000   0.10000000   0.10000000   0.10000000
   0.10000000   0.10000000   0.10000000   0.10000000   0.10000000
   0.10000000   0.10000000   0.10000000   0.10000000   0.10000000
   0.10000000   0.10000000   0.10000000   0.10000000   0.10000000
   0.10000000   0.10000000   0.10000000   0.10000000   0.10000000
   0.10000000   0.10000000   0.10000000   0.10000000   0.10000000
   0.10000000   0.10000000   0.10000000   0.10000000   0.10000000
   0.10000000   0.10000000   0.10000000   0.10000000   0.10000000
   0.10000000   0.10000000   0.10000000   0.10000000   0.10000000
   0.10000000   0.10000000   0.10000000   0.10000000   0.10000000
   0.10000000   0.10000046   0.10000277   0.10001455   0.10002560
   0.10005744   0.10013771   0.10023437   0.10041069   0.10052699
   0.10176011   0.10428472   0.12643533   0.13520290   0.19434403
   0.19892204   0.20000000   0.20000000   0.20000000   0.20000000
   0.20000000   0.20000000   0.20000000   0.20000000   0.20000000
   0.20000000   0.20000000   0.20000000   0.20000000   0.20000000
   0.20000000   0.20000000   0.20000000   0.20000000   0.20000000
   0.20000000   0.20000000   0.20000000   0.20000000   0.20000000
   0.20000000   0.20000000   0.20000000   0.20000000   0.20000000
   0.20000000   0.20000000   0.20000000   0.20000000   0.20000000
   0.20000000   0.20000000   0.20000000   0.20000000   0.20000000
   0.20000000   0.20000000   0.20000000   0.20000000   0.20000000
   0.20000000   0.20000000   0.20000000   0.20000000   0.20000000
   0.20000000   0.20000000   0.20000000   0.20000000   0.20000000
   0.20000000   0.20000000   0.20000000   0.20000000   0.20000000
   0.20000000   0.20000000   0.20000000   0.20000000   0.20000000
   0.20000000   0.20000000   0.20000000   0.20000000   0.20000000
   0.20000000   0.20000000   0.20000000   0.20000000   0.20000000
   0.20000000   0.20000000   0.20000000   0.20000000   0.20000000
   0.20000000   0.20000000   0.20000000   0.20000000   0.20000000
   0.20000000   0.20000000   0.20000000   0.20000000   0.20000000
   0.20000000   0.20000000   0.20000000   0.20000000   0.20000000
   0.20000000   0.20000000   0.20000000   0.20000000   0.20000000
   0.20000000   0.20000000   0.20000000   0.20000000   0.20000000
   0.20000000   0.20000000   0.20000000   0.20000000   0.20000000
   0.20000000   0.20000000   0.20002347   0.20007978   0.20013524
   0.20033024   0.20063920   0.20067140   0.20403947   0.20761779
   0.22038098   0.24465162   0.30067121   0.34542704   0.48759968
   0.49106712   0.49992612   0.50000000   0.50000000   0.50000000
   0.50000000   0.50000000   0.50000000   0.50000000   0.50000000
   0.50000000   0.50000000   0.50000000   0.50000000   0.50000000
   0.50000000   0.50000000   0.50000000   0.50000000   0.50000000
   0.50000000   0.50000000   0.50000000   0.50000000   0.50000000
   0.50000000   0.50000000   0.50000000   0.50000000   0.50000000
   0.50000000   0.50000000   0.50000000   0.50000000   0.50000000
   0.50000000   0.50000000   0.50000000   0.50000000   0.50000000
   0.50000000   0.50000000   0.50000000   0.50000000   0.50000000
   0.50000000   0.50000000   0.50000000   0.50000000   0.50000000
   0.50000000   0.50000000   0.50000000   0.50000000   0.50000000
   0.50001185   0.50005892   0.50021971   0.50049492   0.50091442
   0.50145905   0.50379533   0.52405157   0.57536750   0.70455826
   0.91404682   1.23757214

 Scaling Magnitute of eigenvalues
 Minimum: -25.00000000
 Maximum: 25.00000000
 372 Hessian Eigenvalues to form next step
   0.01999454   0.08159842   0.09997122   0.10000000   0.10000000
   0.10000000   0.10000000   0.10000000   0.10000000   0.10000000
   0.10000000   0.10000000   0.10000000   0.10000000   0.10000000
   0.10000000   0.10000000   0.10000000   0.10000000   0.10000000
   0.10000000   0.10000000   0.10000000   0.10000000   0.10000000
   0.10000000   0.10000000   0.10000000   0.10000000   0.10000000
   0.10000000   0.10000000   0.10000000   0.10000000   0.10000000
   0.10000000   0.10000000   0.10000000   0.10000000   0.10000000
   0.10000000   0.10000000   0.10000000   0.10000000   0.10000000
   0.10000000   0.10000000   0.10000000   0.10000000   0.10000000
   0.10000000   0.10000000   0.10000000   0.10000000   0.10000000
   0.10000000   0.10000000   0.10000000   0.10000000   0.10000000
   0.10000000   0.10000000   0.10000000   0.10000000   0.10000000
   0.10000000   0.10000000   0.10000000   0.10000000   0.10000000
   0.10000000   0.10000000   0.10000000   0.10000000   0.10000000
   0.10000000   0.10000000   0.10000000   0.10000000   0.10000000
   0.10000000   0.10000000   0.10000000   0.10000000   0.10000000
   0.10000000   0.10000000   0.10000000   0.10000000   0.10000000
   0.10000000   0.10000000   0.10000000   0.10000000   0.10000000
   0.10000000   0.10000000   0.10000000   0.10000000   0.10000000
   0.10000000   0.10000000   0.10000000   0.10000000   0.10000000
   0.10000000   0.10000000   0.10000000   0.10000000   0.10000000
   0.10000000   0.10000000   0.10000000   0.10000000   0.10000000
   0.10000000   0.10000000   0.10000000   0.10000000   0.10000000
   0.10000000   0.10000000   0.10000000   0.10000000   0.10000000
   0.10000000   0.10000000   0.10000000   0.10000000   0.10000000
   0.10000000   0.10000000   0.10000000   0.10000000   0.10000000
   0.10000000   0.10000000   0.10000000   0.10000000   0.10000000
   0.10000000   0.10000000   0.10000000   0.10000000   0.10000000
   0.10000000   0.10000000   0.10000000   0.10000000   0.10000000
   0.10000000   0.10000000   0.10000000   0.10000000   0.10000000
   0.10000000   0.10000000   0.10000000   0.10000000   0.10000000
   0.10000000   0.10000000   0.10000000   0.10000000   0.10000000
   0.10000000   0.10000046   0.10000277   0.10001455   0.10002560
   0.10005744   0.10013771   0.10023437   0.10041069   0.10052699
   0.10176011   0.10428472   0.12643533   0.13520290   0.19434403
   0.19892204   0.20000000   0.20000000   0.20000000   0.20000000
   0.20000000   0.20000000   0.20000000   0.20000000   0.20000000
   0.20000000   0.20000000   0.20000000   0.20000000   0.20000000
   0.20000000   0.20000000   0.20000000   0.20000000   0.20000000
   0.20000000   0.20000000   0.20000000   0.20000000   0.20000000
   0.20000000   0.20000000   0.20000000   0.20000000   0.20000000
   0.20000000   0.20000000   0.20000000   0.20000000   0.20000000
   0.20000000   0.20000000   0.20000000   0.20000000   0.20000000
   0.20000000   0.20000000   0.20000000   0.20000000   0.20000000
   0.20000000   0.20000000   0.20000000   0.20000000   0.20000000
   0.20000000   0.20000000   0.20000000   0.20000000   0.20000000
   0.20000000   0.20000000   0.20000000   0.20000000   0.20000000
   0.20000000   0.20000000   0.20000000   0.20000000   0.20000000
   0.20000000   0.20000000   0.20000000   0.20000000   0.20000000
   0.20000000   0.20000000   0.20000000   0.20000000   0.20000000
   0.20000000   0.20000000   0.20000000   0.20000000   0.20000000
   0.20000000   0.20000000   0.20000000   0.20000000   0.20000000
   0.20000000   0.20000000   0.20000000   0.20000000   0.20000000
   0.20000000   0.20000000   0.20000000   0.20000000   0.20000000
   0.20000000   0.20000000   0.20000000   0.20000000   0.20000000
   0.20000000   0.20000000   0.20000000   0.20000000   0.20000000
   0.20000000   0.20000000   0.20000000   0.20000000   0.20000000
   0.20000000   0.20000000   0.20002347   0.20007978   0.20013524
   0.20033024   0.20063920   0.20067140   0.20403947   0.20761779
   0.22038098   0.24465162   0.30067121   0.34542704   0.48759968
   0.49106712   0.49992612   0.50000000   0.50000000   0.50000000
   0.50000000   0.50000000   0.50000000   0.50000000   0.50000000
   0.50000000   0.50000000   0.50000000   0.50000000   0.50000000
   0.50000000   0.50000000   0.50000000   0.50000000   0.50000000
   0.50000000   0.50000000   0.50000000   0.50000000   0.50000000
   0.50000000   0.50000000   0.50000000   0.50000000   0.50000000
   0.50000000   0.50000000   0.50000000   0.50000000   0.50000000
   0.50000000   0.50000000   0.50000000   0.50000000   0.50000000
   0.50000000   0.50000000   0.50000000   0.50000000   0.50000000
   0.50000000   0.50000000   0.50000000   0.50000000   0.50000000
   0.50000000   0.50000000   0.50000000   0.50000000   0.50000000
   0.50001185   0.50005892   0.50021971   0.50049492   0.50091442
   0.50145905   0.50379533   0.52405157   0.57536750   0.70455826
   0.91404682   1.23757214

 Minimum Search taking a RFO step
 Searching for Lambda that minimizes along all modes
 Value of Lambda  -0.00185790
 Norm of Stepsize  0.24033350

	Performing Iterative Coordinate Back-Transformation

	  Starting from Previous Position
	  iter:	0	rms: 0.04733242	maxdev: 0.24711650
	  iter:	1	rms: 0.00481859	maxdev: 0.03187486
	  iter:	2	rms: 0.00688746	maxdev: 0.04366164
	  iter:	3	rms: 0.00918991	maxdev: 0.05979306
	  iter:	4	rms: 0.01226647	maxdev: 0.08225728
	  iter:	5	rms: 0.01638660	maxdev: 0.11381531
	  iter:	6	rms: 0.02192232	maxdev: 0.16176630
	  iter:	7	rms: 0.02940095	maxdev: 0.24018266
	  iter:	8	rms: 0.03959276	maxdev: 0.35775066
	  iter:	9	rms: 0.05365340	maxdev: 0.52730000
	  iter:	10	rms: 0.07330553	maxdev: 0.74852599
	  iter:	11	rms: 0.10097939	maxdev: 0.96534518
	  iter:	12	rms: 0.15451622	maxdev: 1.17915239
	  iter:	13	rms: 0.07039979	maxdev: 0.64850421
	  iter:	14	rms: 0.21170300	maxdev: 1.87756966
	  iter:	15	rms: 0.31950687	maxdev: 3.87367222
	  iter:	16	rms: 0.23819283	maxdev: 2.67642894
	  iter:	17	rms: 0.22485711	maxdev: 2.16970093
	  iter:	18	rms: 0.44953206	maxdev: 3.34457898
	  iter:	19	rms: 0.51821992	maxdev: 4.08215288
	  iter:	20	rms: 0.64871407	maxdev: 6.03350822
*Error in back_transform*
Could not find a iterative internal coordinate within  the number of maximum iterations at double precision threshold
 *****************************************************
             End of BFGS Algorithm
 *****************************************************
	**Error within run_minimization with minimization method:bfgs

 Q-Chem error occurred in module libopt3/qchem/opt3_main.C, line 411:

 	**  OPTIMIZATION DID NOT CONVERGE  **

