 vasp.5.4.1 05Feb16 (build Mar 04 2017 10:19:11) gamma-only                     
  
 executed on           IFC91_ompi date 2017.03.05  15:03:45
 running on   24 total cores
 distrk:  each k-point on   24 cores,    1 groups
 distr:  one band on NCORES_PER_BAND=   4 cores,    6 groups


--------------------------------------------------------------------------------------------------------


 INCAR:
 POTCAR:    PAW_PBE Li 17Jan2003                  
 POTCAR:    PAW_PBE P 17Jan2003                   
 POTCAR:    PAW_PBE S 17Jan2003                   
 POTCAR:    PAW_PBE Li 17Jan2003                  
   VRHFIN =Li: s1p0                                                             
   LEXCH  = PE                                                                  
   EATOM  =     5.3001 eV,     .3895 Ry                                         
                                                                                
   TITEL  = PAW_PBE Li 17Jan2003                                                
   LULTRA =        F    use ultrasoft PP ?                                      
   IUNSCR =        1    unscreen: 0-lin 1-nonlin 2-no                           
   RPACOR =    1.500    partial core radius                                     
   POMASS =    7.010; ZVAL   =    1.000    mass and valenz                      
   RCORE  =    2.050    outmost cutoff radius                                   
   RWIGS  =    2.600; RWIGS  =    1.376    wigner-seitz radius (au A)           
   ENMAX  =  140.000; ENMIN  =  100.000 eV                                      
   ICORE  =        2    local potential                                         
   LCOR   =        T    correct aug charges                                     
   LPAW   =        T    paw PP                                                  
   EAUG   =  331.638                                                            
   DEXC   =    -.010                                                            
   RMAX   =    4.263    core radius for proj-oper                               
   RAUG   =    1.300    factor for augmentation sphere                          
   RDEP   =    2.094    radius for radial grids                                 
   QCUT   =   -2.932; QGAM   =    5.865    optimization parameters              
                                                                                
   Description                                                                  
     l     E      TYP  RCUT    TYP  RCUT                                        
     0   .000     23  2.050                                                     
     0  2.000     23  2.050                                                     
     1   .000     23  2.050                                                     
     2   .000     23  2.050                                                     
  local pseudopotential read in
  partial core-charges read in
  atomic valenz-charges read in
  non local Contribution for L=           0  read in
    real space projection operators read in
  non local Contribution for L=           0  read in
    real space projection operators read in
  non local Contribution for L=           1  read in
    real space projection operators read in
    PAW grid and wavefunctions read in
 
   number of l-projection  operators is LMAX  =           3
   number of lm-projection operators is LMMAX =           5
 
 POTCAR:    PAW_PBE P 17Jan2003                   
   VRHFIN =P : s2p3                                                             
   LEXCH  = PE                                                                  
   EATOM  =   176.0430 eV,   12.9388 Ry                                         
                                                                                
   TITEL  = PAW_PBE P 17Jan2003                                                 
   LULTRA =        F    use ultrasoft PP ?                                      
   IUNSCR =        1    unscreen: 0-lin 1-nonlin 2-no                           
   RPACOR =    1.500    partial core radius                                     
   POMASS =   30.974; ZVAL   =    5.000    mass and valenz                      
   RCORE  =    1.900    outmost cutoff radius                                   
   RWIGS  =    2.330; RWIGS  =    1.233    wigner-seitz radius (au A)           
   ENMAX  =  270.000; ENMIN  =  191.280 eV                                      
   ICORE  =        2    local potential                                         
   LCOR   =        T    correct aug charges                                     
   LPAW   =        T    paw PP                                                  
   EAUG   =  342.924                                                            
   DEXC   =    -.002                                                            
   RMAX   =    2.887    core radius for proj-oper                               
   RAUG   =    1.300    factor for augmentation sphere                          
   RDEP   =    1.931    radius for radial grids                                 
   QCUT   =   -4.330; QGAM   =    8.659    optimization parameters              
                                                                                
   Description                                                                  
     l     E      TYP  RCUT    TYP  RCUT                                        
     0   .000     23  1.900                                                     
     0   .000     23  1.900                                                     
     1   .000     23  1.900                                                     
     1   .000     23  1.900                                                     
     2   .000     23  1.900                                                     
  local pseudopotential read in
  partial core-charges read in
  atomic valenz-charges read in
  non local Contribution for L=           0  read in
    real space projection operators read in
  non local Contribution for L=           0  read in
    real space projection operators read in
  non local Contribution for L=           1  read in
    real space projection operators read in
  non local Contribution for L=           1  read in
    real space projection operators read in
    PAW grid and wavefunctions read in
 
   number of l-projection  operators is LMAX  =           4
   number of lm-projection operators is LMMAX =           8
 
 POTCAR:    PAW_PBE S 17Jan2003                   
   VRHFIN =S : s2p4                                                             
   LEXCH  = PE                                                                  
   EATOM  =   276.8230 eV,   20.3459 Ry                                         
                                                                                
   TITEL  = PAW_PBE S 17Jan2003                                                 
   LULTRA =        F    use ultrasoft PP ?                                      
   IUNSCR =        1    unscreen: 0-lin 1-nonlin 2-no                           
   RPACOR =    1.500    partial core radius                                     
   POMASS =   32.066; ZVAL   =    6.000    mass and valenz                      
   RCORE  =    1.900    outmost cutoff radius                                   
   RWIGS  =    2.200; RWIGS  =    1.164    wigner-seitz radius (au A)           
   ENMAX  =  280.000; ENMIN  =  194.016 eV                                      
   ICORE  =        2    local potential                                         
   LCOR   =        T    correct aug charges                                     
   LPAW   =        T    paw PP                                                  
   EAUG   =  335.092                                                            
   DEXC   =     .000                                                            
   RMAX   =    2.867    core radius for proj-oper                               
   RAUG   =    1.300    factor for augmentation sphere                          
   RDEP   =    1.954    radius for radial grids                                 
   QCUT   =   -4.360; QGAM   =    8.721    optimization parameters              
                                                                                
   Description                                                                  
     l     E      TYP  RCUT    TYP  RCUT                                        
     0   .000     23  1.900                                                     
     0   .000     23  1.900                                                     
     1   .000     23  1.900                                                     
     1   .000     23  1.900                                                     
     2   .000     23  1.900                                                     
  local pseudopotential read in
  partial core-charges read in
  atomic valenz-charges read in
  non local Contribution for L=           0  read in
    real space projection operators read in
  non local Contribution for L=           0  read in
    real space projection operators read in
  non local Contribution for L=           1  read in
    real space projection operators read in
  non local Contribution for L=           1  read in
    real space projection operators read in
    PAW grid and wavefunctions read in
 
   number of l-projection  operators is LMAX  =           4
   number of lm-projection operators is LMMAX =           8
 
  PAW_PBE Li 17Jan2003                  :
 energy of atom  1       EATOM=   -5.3001
 kinetic energy error for atom=    0.0000 (will be added to EATOM!!)
  PAW_PBE P 17Jan2003                   :
 energy of atom  2       EATOM= -176.0430
 kinetic energy error for atom=    0.0023 (will be added to EATOM!!)
  PAW_PBE S 17Jan2003                   :
 energy of atom  3       EATOM= -276.8230
 kinetic energy error for atom=    0.0046 (will be added to EATOM!!)
 
 
 POSCAR: Li28 P12 S44                            
  positions in direct lattice
  No initial velocities read in
 exchange correlation table for  LEXCH =        8
   RHO(1)=    0.500       N(1)  =     2000
   RHO(2)=  100.500       N(2)  =     4000

 VTST: version 3.1, (03/28/14)

 CHAIN: initializing optimizer
 
 OPT: Using VASP Dynamics algorithm
 CHAIN: Read ICHAIN            0
 
 POSCAR: Li28 P12 S44                            
  positions in direct lattice
  No initial velocities read in

 ----------------------------------------------------------------------------- 
|                                                                             |
|           W    W    AA    RRRRR   N    N  II  N    N   GGGG   !!!           |
|           W    W   A  A   R    R  NN   N  II  NN   N  G    G  !!!           |
|           W    W  A    A  R    R  N N  N  II  N N  N  G       !!!           |
|           W WW W  AAAAAA  RRRRR   N  N N  II  N  N N  G  GGG   !            |
|           WW  WW  A    A  R   R   N   NN  II  N   NN  G    G                |
|           W    W  A    A  R    R  N    N  II  N    N   GGGG   !!!           |
|                                                                             |
|      VASP found    249 degrees of freedom                                   |
|      the temperature will equal 2*E(kin)/ (degrees of freedom)              |
|      this differs from previous releases, where T was 2*E(kin)/(3 NIONS).   |
|      The new definition is more consistent                                  |
|                                                                             |
 ----------------------------------------------------------------------------- 

 


--------------------------------------------------------------------------------------------------------


 ion  position               nearest neighbor table
   1  0.329  0.468  0.895-  74 2.50  61 2.51  77 2.55  45 2.57  64 2.88  37 3.13
   2  0.329  0.968  0.895-  73 2.50  62 2.51  78 2.55  46 2.57  63 2.88  38 3.13
   3  0.671  0.032  0.105-  76 2.50  63 2.51  79 2.55  47 2.57  62 2.88  39 3.13
   4  0.671  0.532  0.105-  75 2.50  64 2.51  80 2.55  48 2.57  61 2.88  40 3.13
   5  0.383  0.237  0.110-  77 2.40  63 2.45  69 2.54  67 2.55  37 2.95  19 2.99
   6  0.383  0.737  0.110-  78 2.40  64 2.45  70 2.54  68 2.55  38 2.95  20 2.99
   7  0.617  0.263  0.890-  79 2.40  61 2.45  71 2.54  65 2.55  39 2.95  17 2.99
   8  0.617  0.763  0.890-  80 2.40  62 2.45  72 2.54  66 2.55  40 2.95  18 2.99
   9  0.825  0.240  0.296-  51 2.45  79 2.52  47 2.52  83 2.53  39 3.01
  10  0.825  0.740  0.296-  52 2.45  80 2.52  48 2.52  84 2.53  40 3.01
  11  0.175  0.260  0.704-  49 2.45  77 2.52  45 2.52  81 2.53  37 3.01
  12  0.175  0.760  0.704-  50 2.45  78 2.52  46 2.52  82 2.53  38 3.01
  13  0.033  0.087  0.755-  46 2.47  73 2.49  43 2.51  81 2.57
  14  0.033  0.587  0.755-  45 2.47  74 2.49  44 2.51  82 2.57
  15  0.967  0.413  0.245-  48 2.47  75 2.49  41 2.51  83 2.57
  16  0.967  0.913  0.245-  47 2.47  76 2.49  42 2.51  84 2.57
  17  0.686  0.149  0.684-  65 2.51  43 2.52  71 2.58  57 2.79  55 2.92   7 2.99
  18  0.686  0.649  0.684-  66 2.51  44 2.52  72 2.58  58 2.79  56 2.92   8 2.99
  19  0.314  0.351  0.316-  67 2.51  41 2.52  69 2.58  59 2.79  53 2.92   5 2.99
  20  0.314  0.851  0.316-  68 2.51  42 2.52  70 2.58  60 2.79  54 2.92   6 2.99
  21  0.345  0.143  0.508-  49 2.39  59 2.43  65 2.49  54 3.00
  22  0.345  0.643  0.508-  50 2.39  60 2.43  66 2.49  53 3.00
  23  0.655  0.357  0.492-  51 2.39  57 2.43  67 2.49  56 3.00
  24  0.655  0.857  0.492-  52 2.39  58 2.43  68 2.49  55 3.00
  25  0.865  0.356  0.878-  75 2.39  71 2.51  81 2.51  57 2.66
  26  0.865  0.856  0.878-  76 2.39  72 2.51  82 2.51  58 2.66
  27  0.135  0.144  0.122-  73 2.39  69 2.51  83 2.51  59 2.66
  28  0.135  0.644  0.122-  74 2.39  70 2.51  84 2.51  60 2.66
  29  0.213  0.478  0.547-  50 2.00  45 2.02  41 2.04  53 2.20
  30  0.213  0.978  0.547-  49 2.00  46 2.02  42 2.04  54 2.20
  31  0.787  0.022  0.453-  52 2.00  47 2.02  43 2.04  55 2.20
  32  0.787  0.522  0.453-  51 2.00  48 2.02  44 2.04  56 2.20
  33  0.525  0.482  0.723-  61 2.03  66 2.05  57 2.05  53 2.16
  34  0.525  0.982  0.723-  62 2.03  65 2.05  58 2.05  54 2.16
  35  0.475  0.018  0.277-  63 2.03  68 2.05  59 2.05  55 2.16
  36  0.475  0.518  0.277-  64 2.03  67 2.05  60 2.05  56 2.16
  37  0.168  0.354  0.944-  69 2.06  74 2.06  77 2.06  81 2.06   5 2.95  11 3.01   1 3.13
  38  0.168  0.854  0.944-  70 2.06  73 2.06  78 2.06  82 2.06   6 2.95  12 3.01   2 3.13
  39  0.832  0.146  0.056-  71 2.06  76 2.06  79 2.06  83 2.06   7 2.95   9 3.01   3 3.13
  40  0.832  0.646  0.056-  72 2.06  75 2.06  80 2.06  84 2.06   8 2.95  10 3.01   4 3.13
  41  0.163  0.364  0.400-  29 2.04  15 2.51  19 2.52
  42  0.163  0.864  0.400-  30 2.04  16 2.51  20 2.52
  43  0.837  0.136  0.600-  31 2.04  13 2.51  17 2.52
  44  0.837  0.636  0.600-  32 2.04  14 2.51  18 2.52
  45  0.182  0.456  0.684-  29 2.02  14 2.47  11 2.52   1 2.57
  46  0.182  0.956  0.684-  30 2.02  13 2.47  12 2.52   2 2.57
  47  0.818  0.044  0.316-  31 2.02  16 2.47   9 2.52   3 2.57
  48  0.818  0.544  0.316-  32 2.02  15 2.47  10 2.52   4 2.57
  49  0.164  0.140  0.518-  30 2.00  21 2.39  11 2.45
  50  0.164  0.640  0.518-  29 2.00  22 2.39  12 2.45
  51  0.836  0.360  0.482-  32 2.00  23 2.39   9 2.45
  52  0.836  0.860  0.482-  31 2.00  24 2.39  10 2.45
  53  0.396  0.410  0.569-  33 2.16  29 2.20  19 2.92  22 3.00
  54  0.396  0.910  0.569-  34 2.16  30 2.20  20 2.92  21 3.00
  55  0.604  0.090  0.431-  35 2.16  31 2.20  17 2.92  24 3.00
  56  0.604  0.590  0.431-  36 2.16  32 2.20  18 2.92  23 3.00
  57  0.668  0.381  0.693-  33 2.05  23 2.43  25 2.66  17 2.79
  58  0.668  0.881  0.693-  34 2.05  24 2.43  26 2.66  18 2.79
  59  0.332  0.119  0.307-  35 2.05  21 2.43  27 2.66  19 2.79
  60  0.332  0.619  0.307-  36 2.05  22 2.43  28 2.66  20 2.79
  61  0.517  0.461  0.873-  33 2.03   7 2.45   1 2.51   4 2.88
  62  0.517  0.961  0.873-  34 2.03   8 2.45   2 2.51   3 2.88
  63  0.483  0.039  0.127-  35 2.03   5 2.45   3 2.51   2 2.88
  64  0.483  0.539  0.127-  36 2.03   6 2.45   4 2.51   1 2.88
  65  0.500  0.148  0.706-  34 2.05  21 2.49  17 2.51   7 2.55
  66  0.500  0.648  0.706-  33 2.05  22 2.49  18 2.51   8 2.55
  67  0.500  0.352  0.294-  36 2.05  23 2.49  19 2.51   5 2.55
  68  0.500  0.852  0.294-  35 2.05  24 2.49  20 2.51   6 2.55
  69  0.177  0.323  0.101-  37 2.06  27 2.51   5 2.54  19 2.58
  70  0.177  0.823  0.101-  38 2.06  28 2.51   6 2.54  20 2.58
  71  0.823  0.177  0.899-  39 2.06  25 2.51   7 2.54  17 2.58
  72  0.823  0.677  0.899-  40 2.06  26 2.51   8 2.54  18 2.58
  73  0.153  0.024  0.950-  38 2.06  27 2.39  13 2.49   2 2.50
  74  0.153  0.524  0.950-  37 2.06  28 2.39  14 2.49   1 2.50
  75  0.847  0.476  0.050-  40 2.06  25 2.39  15 2.49   4 2.50
  76  0.847  0.976  0.050-  39 2.06  26 2.39  16 2.49   3 2.50
  77  0.317  0.271  0.912-  37 2.06   5 2.40  11 2.52   1 2.55
  78  0.317  0.771  0.912-  38 2.06   6 2.40  12 2.52   2 2.55
  79  0.683  0.229  0.088-  39 2.06   7 2.40   9 2.52   3 2.55
  80  0.683  0.729  0.088-  40 2.06   8 2.40  10 2.52   4 2.55
  81  0.030  0.301  0.804-  37 2.06  25 2.51  11 2.53  13 2.57
  82  0.030  0.801  0.804-  38 2.06  26 2.51  12 2.53  14 2.57
  83  0.970  0.199  0.196-  39 2.06  27 2.51   9 2.53  15 2.57
  84  0.970  0.699  0.196-  40 2.06  28 2.51  10 2.53  16 2.57
 

IMPORTANT INFORMATION: All symmetrisations will be switched off!
NOSYMM: (Re-)initialisation of all symmetry stuff for point group C_1.

 
 
 KPOINTS: Automatic kpoint scheme                 

Automatic generation of k-mesh.
Space group operators:
 irot       det(A)        alpha          n_x          n_y          n_z        tau_x        tau_y        tau_z
    1     1.000000     0.000000     1.000000     0.000000     0.000000     0.000000     0.000000     0.000000
 
 Subroutine IBZKPT returns following result:
 ===========================================
 
 Found      1 irreducible k-points:
 
 Following reciprocal coordinates:
            Coordinates               Weight
  0.000000  0.000000  0.000000      1.000000
 
 Following cartesian coordinates:
            Coordinates               Weight
  0.000000  0.000000  0.000000      1.000000
 


--------------------------------------------------------------------------------------------------------




 Dimension of arrays:
   k-points           NKPTS =      1   k-points in BZ     NKDIM =      1   number of bands    NBANDS=    222
   number of dos      NEDOS =    301   number of ions     NIONS =     84
   non local maximal  LDIM  =      4   non local SUM 2l+1 LMDIM =      8
   total plane-waves  NPLWV = 262144
   max r-space proj   IRMAX =   7240   max aug-charges    IRDMAX=   4985
   dimension x,y,z NGX =    64 NGY =   64 NGZ =   64
   dimension x,y,z NGXF=   128 NGYF=  128 NGZF=  128
   support grid    NGXF=   128 NGYF=  128 NGZF=  128
   ions per type =              28  12  44
 NGX,Y,Z   is equivalent  to a cutoff of   8.29,  8.58,  8.42 a.u.
 NGXF,Y,Z  is equivalent  to a cutoff of  16.57, 17.17, 16.83 a.u.


 I would recommend the setting:
   dimension x,y,z NGX =    63 NGY =   61 NGZ =   62
 SYSTEM =  unknown system                          
 POSCAR =  Li28 P12 S44                            

 Startparameter for this run:
   NWRITE =      2    write-flag & timer
   PREC   = normal    normal or accurate (medium, high low for compatibility)
   ISTART =      0    job   : 0-new  1-cont  2-samecut
   ICHARG =      2    charge: 1-file 2-atom 10-const
   ISPIN  =      1    spin polarized calculation?
   LNONCOLLINEAR =      F non collinear calculations
   LSORBIT =      F    spin-orbit coupling
   INIWAV =      1    electr: 0-lowe 1-rand  2-diag
   LASPH  =      F    aspherical Exc in radial PAW
   METAGGA=      F    non-selfconsistent MetaGGA calc.

 Electronic Relaxation 1
   ENCUT  =  400.0 eV  29.40 Ry    5.42 a.u.  20.94 20.21 20.62*2*pi/ulx,y,z
   ENINI  =  400.0     initial cutoff
   ENAUG  =  342.9 eV  augmentation charge cutoff
   NELM   =    500;   NELMIN=  4; NELMDL=  0     # of ELM steps 
   EDIFF  = 0.8E-04   stopping-criterion for ELM
   LREAL  =      T    real-space projection
   NLSPLINE    = F    spline interpolate recip. space projectors
   LCOMPAT=      F    compatible to vasp.4.4
   GGA_COMPAT  = T    GGA compatible to vasp.4.4-vasp.4.6
   LMAXPAW     = -100 max onsite density
   LMAXMIX     =    2 max onsite mixed and CHGCAR
   VOSKOWN=      0    Vosko Wilk Nusair interpolation
   ROPT   =    0.00000   0.00000   0.00000
 Ionic relaxation
   EDIFFG = 0.8E-03   stopping-criterion for IOM
   NSW    =     10    number of steps for IOM
   NBLOCK =      1;   KBLOCK =      1    inner block; outer block 
   IBRION =      0    ionic relax: 0-MD 1-quasi-New 2-CG
   NFREE  =      0    steps in history (QN), initial steepest desc. (CG)
   ISIF   =      3    stress and relaxation
   IWAVPR =     12    prediction:  0-non 1-charg 2-wave 3-comb
   ISYM   =      0    0-nonsym 1-usesym 2-fastsym
   LCORR  =      T    Harris-Foulkes like correction to forces

   POTIM  = 2.0000    time-step for ionic-motion
   TEIN   =    1.0    initial temperature
   TEBEG  =    1.0;   TEEND  = 400.0 temperature during run
   SMASS  =   1.00    Nose mass-parameter (am)
   estimated Nose-frequenzy (Omega)   =  0.16E+13 period in steps =****** mass=   0.126E-26a.u.
   SCALEE = 1.0000    scale energy and forces
   NPACO  =    256;   APACO  = 16.0  distance and # of slots for P.C.
   PSTRESS=    0.0 pullay stress

  Mass of Ions in am
   POMASS =   7.01 30.97 32.07
  Ionic Valenz
   ZVAL   =   1.00  5.00  6.00
  Atomic Wigner-Seitz radii
   RWIGS  =  -1.00 -1.00 -1.00
  virtual crystal weights 
   VCA    =   1.00  1.00  1.00
   NELECT =     352.0000    total number of electrons
   NUPDOWN=      -1.0000    fix difference up-down

 DOS related values:
   EMIN   =  10.00;   EMAX   =-10.00  energy-range for DOS
   EFERMI =   0.00
   ISMEAR =     0;   SIGMA  =   0.05  broadening in eV -4-tet -1-fermi 0-gaus

 Electronic relaxation 2 (details)
   IALGO  =     68    algorithm
   LDIAG  =      T    sub-space diagonalisation (order eigenvalues)
   LSUBROT=      F    optimize rotation matrix (better conditioning)
   TURBO    =      0    0=normal 1=particle mesh
   IRESTART =      0    0=no restart 2=restart with 2 vectors
   NREBOOT  =      0    no. of reboots
   NMIN     =      0    reboot dimension
   EREF     =   0.00    reference energy to select bands
   IMIX   =      4    mixing-type and parameters
     AMIX     =   0.40;   BMIX     =  1.00
     AMIX_MAG =   1.60;   BMIX_MAG =  1.00
     AMIN     =   0.10
     WC   =   100.;   INIMIX=   1;  MIXPRE=   1;  MAXMIX=  20

 Intra band minimization:
   WEIMIN = 0.0010     energy-eigenvalue tresh-hold
   EBREAK =  0.95E-07  absolut break condition
   DEPER  =   0.30     relativ break condition  

   TIME   =   0.40     timestep for ELM

  volume/ion in A,a.u.               =      20.87       140.81
  Fermi-wavevector in a.u.,A,eV,Ry     =   0.958706  1.811692 12.505353  0.919118
  Thomas-Fermi vector in A             =   2.087837
 
 Write flags
   LWAVE  =      F    write WAVECAR
   LCHARG =      F    write CHGCAR
   LVTOT  =      F    write LOCPOT, total local potential
   LVHAR  =      F    write LOCPOT, Hartree potential only
   LELF   =      F    write electronic localiz. function (ELF)
   LORBIT =     11    0 simple, 1 ext, 2 COOP (PROOUT)


 Dipole corrections
   LMONO  =      F    monopole corrections only (constant potential shift)
   LDIPOL =      F    correct potential (dipole corrections)
   IDIPOL =      0    1-x, 2-y, 3-z, 4-all directions 
   EPSILON=  1.0000000 bulk dielectric constant

 Exchange correlation treatment:
   GGA     =    --    GGA type
   LEXCH   =     8    internal setting for exchange type
   VOSKOWN=      0    Vosko Wilk Nusair interpolation
   LHFCALC =     F    Hartree Fock is set to
   LHFONE  =     F    Hartree Fock one center treatment
   AEXX    =    0.0000 exact exchange contribution

 Linear response parameters
   LEPSILON=     F    determine dielectric tensor
   LRPA    =     F    only Hartree local field effects (RPA)
   LNABLA  =     F    use nabla operator in PAW spheres
   LVEL    =     F    velocity operator in full k-point grid
   LINTERFAST=   F  fast interpolation
   KINTER  =     0    interpolate to denser k-point grid
   CSHIFT  =0.1000    complex shift for real part using Kramers Kronig
   OMEGAMAX=  -1.0    maximum frequency
   DEG_THRESHOLD= 0.2000000E-02 threshold for treating states as degnerate
   RTIME   =    0.100 relaxation time in fs

 Orbital magnetization related:
   ORBITALMAG=     F  switch on orbital magnetization
   LCHIMAG   =     F  perturbation theory with respect to B field
   DQ        =  0.001000  dq finite difference perturbation B field



--------------------------------------------------------------------------------------------------------


 molecular dynamics for ions
   using nose mass (canonical ensemble)
 charge density and potential will be updated during run
 non-spin polarized calculation
 RMM-DIIS sequential band-by-band and
  variant of blocked Davidson during initial phase
 perform sub-space diagonalisation
    before iterative eigenvector-optimisation
 modified Broyden-mixing scheme, WC =      100.0
 initial mixing is a Kerker type mixing with AMIX =  0.4000 and BMIX =      1.0000
 Hartree-type preconditioning will be used
 using additional bands           46
 real space projection scheme for non local part
 use partial core corrections
 calculate Harris-corrections to forces 
   (improved forces if not selfconsistent)
 use gradient corrections 
 use of overlap-Matrix (Vanderbilt PP)
 Gauss-broadening in eV      SIGMA  =   0.05


--------------------------------------------------------------------------------------------------------


  energy-cutoff  :      400.00
  volume of cell :     1752.71
      direct lattice vectors                 reciprocal lattice vectors
    11.797205000  0.043027000 -5.073975000     0.085092123 -0.017426779  0.000610842
     2.441136000 11.820736000 -2.822486000    -0.000015140  0.084763451  0.000683589
    -0.111630000 -0.101968000 12.641328000     0.034150888  0.011930757  0.079503421

  length of vectors
    12.842161790 12.395780402 12.642232095     0.086860435  0.084766209  0.087346551


 
 k-points in units of 2pi/SCALE and weight: Automatic kpoint scheme                 
   0.00000000  0.00000000  0.00000000       1.000
 
 k-points in reciprocal lattice and weights: Automatic kpoint scheme                 
   0.00000000  0.00000000  0.00000000       1.000
 
 position of ions in fractional coordinates (direct lattice) 
   0.32939700  0.46805200  0.89513300
   0.32939700  0.96805200  0.89513300
   0.67060300  0.03194800  0.10486700
   0.67060300  0.53194800  0.10486700
   0.38346200  0.23684200  0.11009600
   0.38346200  0.73684200  0.11009600
   0.61653800  0.26315800  0.88990400
   0.61653800  0.76315800  0.88990400
   0.82545500  0.23953200  0.29594100
   0.82545500  0.73953200  0.29594100
   0.17454500  0.26046800  0.70405900
   0.17454500  0.76046800  0.70405900
   0.03315700  0.08666600  0.75502800
   0.03315700  0.58666600  0.75502800
   0.96684300  0.41333400  0.24497200
   0.96684300  0.91333400  0.24497200
   0.68573500  0.14933100  0.68438600
   0.68573500  0.64933100  0.68438600
   0.31426500  0.35066900  0.31561400
   0.31426500  0.85066900  0.31561400
   0.34504400  0.14317800  0.50805700
   0.34504400  0.64317800  0.50805700
   0.65495600  0.35682200  0.49194300
   0.65495600  0.85682200  0.49194300
   0.86453800  0.35623500  0.87767200
   0.86453800  0.85623500  0.87767200
   0.13546200  0.14376500  0.12232800
   0.13546200  0.64376500  0.12232800
   0.21283800  0.47818100  0.54663400
   0.21283800  0.97818100  0.54663400
   0.78716200  0.02181900  0.45336600
   0.78716200  0.52181900  0.45336600
   0.52455000  0.48202400  0.72255000
   0.52455000  0.98202400  0.72255000
   0.47545000  0.01797600  0.27745000
   0.47545000  0.51797600  0.27745000
   0.16757000  0.35350900  0.94409900
   0.16757000  0.85350900  0.94409900
   0.83243000  0.14649100  0.05590100
   0.83243000  0.64649100  0.05590100
   0.16300900  0.36369300  0.39977400
   0.16300900  0.86369300  0.39977400
   0.83699100  0.13630700  0.60022600
   0.83699100  0.63630700  0.60022600
   0.18201700  0.45571600  0.68398900
   0.18201700  0.95571600  0.68398900
   0.81798300  0.04428400  0.31601100
   0.81798300  0.54428400  0.31601100
   0.16378500  0.13989100  0.51782000
   0.16378500  0.63989100  0.51782000
   0.83621500  0.36010900  0.48218000
   0.83621500  0.86010900  0.48218000
   0.39628900  0.41022600  0.56944700
   0.39628900  0.91022600  0.56944700
   0.60371100  0.08977400  0.43055300
   0.60371100  0.58977400  0.43055300
   0.66833000  0.38056000  0.69332000
   0.66833000  0.88056000  0.69332000
   0.33167000  0.11944000  0.30668000
   0.33167000  0.61944000  0.30668000
   0.51711600  0.46100800  0.87333500
   0.51711600  0.96100800  0.87333500
   0.48288400  0.03899200  0.12666500
   0.48288400  0.53899200  0.12666500
   0.49973800  0.14819500  0.70564400
   0.49973800  0.64819500  0.70564400
   0.50026200  0.35180500  0.29435600
   0.50026200  0.85180500  0.29435600
   0.17660600  0.32255000  0.10080700
   0.17660700  0.82255000  0.10080700
   0.82339300  0.17745000  0.89919300
   0.82339300  0.67745000  0.89919300
   0.15282500  0.02428400  0.94962400
   0.15282500  0.52428400  0.94962400
   0.84717500  0.47571600  0.05037600
   0.84717500  0.97571600  0.05037600
   0.31695000  0.27091000  0.91158400
   0.31695000  0.77091000  0.91158400
   0.68305000  0.22909000  0.08841600
   0.68305000  0.72909000  0.08841600
   0.02953100  0.30066800  0.80395000
   0.02953100  0.80066800  0.80395000
   0.97046900  0.19933200  0.19605000
   0.97046900  0.69933200  0.19605000
 
 position of ions in cartesian coordinates  (Angst):
   4.92861883  5.45561717  8.32324750
   6.14918683 11.36598517  6.91200450
   7.97752417  0.39580983 -2.16713750
   9.19809217  6.30617783 -3.57838050
   5.08965334  2.80491971 -1.22240018
   6.31022134  8.71528771 -2.63364318
   7.81648966  3.04650729  7.37851018
   9.03705766  8.95687529  5.96726718
  10.28975615  2.83678488 -1.12332650
  11.51032415  8.74715288 -2.53456950
   2.61638685  3.01464212  7.27943650
   3.83695485  8.92501012  5.86819350
   0.51843964  0.94889386  9.13170524
   1.73900764  6.85926186  7.72046224
  12.38770336  4.90253314 -2.97559524
  13.60827136 10.81290114 -4.38683824
   8.37789564  1.72492198  4.75066100
   9.59846364  7.63528998  3.33941800
   4.52824736  4.12650502  1.40544900
   5.74881536 10.03687302 -0.00579400
   4.36335737  1.65550999  4.26765265
   5.58392537  7.56587799  2.85640965
   8.54278563  4.19591701  1.88845735
   9.76335363 10.10628501  0.47721435
  10.97077557  4.15866391  5.70282713
  12.19134357 10.06903191  4.29158413
   1.93536743  1.69276309  0.45328287
   3.15593543  7.60313109 -0.95796013
   3.61717762  5.60586997  4.48058582
   4.83774562 11.51623797  3.06934282
   9.28896538  0.24555703  1.67552418
  10.50953338  6.15592503  0.26428118
   7.28425177  5.64677128  5.11193197
   8.50481977 11.55713928  3.70068897
   5.62189123  0.20465572  1.04417803
   6.84245923  6.11502372 -0.36706497
   2.73443142  4.08967871 10.08664493
   3.95499942 10.00004671  8.67540193
  10.17171158  1.76174829 -3.93053493
  11.39227958  7.67211629 -5.34177793
   2.76624789  4.26536857  3.20005227
   3.98681589 10.17573657  1.78880927
  10.13989511  1.58605843  2.95605773
  11.36046311  7.49642643  1.54481473
   3.18340290  5.32498518  6.43672756
   4.40397090 11.23535318  5.02548456
   9.72274010  0.52644182 -0.28061756
  10.94330810  6.43680982 -1.69186056
   2.21589393  1.60786069  5.32005108
   3.43646193  7.51822869  3.90880808
  10.69024907  4.24356631  0.83605892
  11.91081707 10.15393431 -0.57518408
   5.61295266  4.80815900  4.02994869
   6.83352066 10.71852700  2.61870569
   7.29319034  1.04326800  2.12616131
   8.51375834  6.95363600  0.71491831
   8.73602942  4.45655907  4.29927055
   9.95659742 10.36692707  2.88802755
   4.17011358  1.39486793  1.85683945
   5.39068158  7.30523593  0.44559645
   7.12841630  5.38265159  7.11509191
   8.34898430 11.29301959  5.70384891
   5.77772670  0.46877541 -0.95898191
   6.99829470  6.37914341 -2.37022491
   6.17850474  1.70132309  5.96634082
   7.39907274  7.61169109  4.55509782
   6.72763826  4.15010391  0.18976918
   7.94820626 10.06047191 -1.22147382
   2.85959252  3.81009813 -0.53215294
   4.08017231  9.72046618 -1.94340101
  10.04653869  2.04132882  6.68826801
  11.26710669  7.95169682  5.27702501
   1.75618187  0.19679909 11.16053698
   2.97674987  6.10716709  9.74929398
  11.14996113  5.65462791 -5.00442698
  12.37052913 11.56499591 -6.41566998
   4.29869216  3.12304060  9.15079629
   5.51926016  9.03340860  7.73955329
   8.60745084  2.72838640 -2.99468629
   9.82801884  8.63875440 -4.40592929
   0.99260980  3.47341051  9.16452487
   2.21317780  9.38377851  7.75328187
  11.91353320  2.37801649 -3.00841487
  13.13410120  8.28838449 -4.41965787
 


--------------------------------------------------------------------------------------------------------


 use parallel FFT for wavefunctions z direction half grid
 k-point  1 :   0.0000 0.0000 0.0000  plane waves:   15926

 maximum and minimum number of plane-waves per node :      3985     3978

 maximum number of plane-waves:     15926
 maximum index in each direction: 
   IXMAX=   19   IYMAX=   19   IZMAX=   20
   IXMIN=  -20   IYMIN=  -20   IZMIN=    0

 WARNING: aliasing errors must be expected set NGX to  80 to avoid them
 WARNING: aliasing errors must be expected set NGY to  80 to avoid them
 WARNING: aliasing errors must be expected set NGZ to  82 to avoid them
 aliasing errors are usually negligible using standard VASP settings
 and one can safely disregard these warnings
 redistribution in real space done
 redistribution in real space done

 real space projection operators:
  total allocation   :      15097.44 KBytes
  max/ min on nodes  :       3774.38       3774.34


 total amount of memory used by VASP on root node    49766. kBytes
========================================================================

   base      :      30000. kBytes
   nonlr-proj:       4637. kBytes
   fftplans  :       4391. kBytes
   grid      :       8300. kBytes
   one-center:         32. kBytes
   wavefun   :       2406. kBytes
 
     INWAV:  cpu time    0.0010: real time    0.0001
 Broyden mixing: mesh for mixing (old mesh)
   NGX = 41   NGY = 41   NGZ = 41
  (NGX  =128   NGY  =128   NGZ  =128)
  gives a total of  68921 points

 initial charge density was supplied:
 charge density of overlapping atoms calculated
 number of electron     352.0000000 magnetization 
 keeping initial charge density in first step


--------------------------------------------------------------------------------------------------------


 Maximum index for non-local projection operator         2008
 Maximum index for augmentation-charges          211 (set IRDMAX)


--------------------------------------------------------------------------------------------------------


 First call to EWALD:  gamma=   0.147
 Maximum number of real-space cells 3x 3x 3
 Maximum number of reciprocal cells 3x 3x 3

 FEWALD executed in parallel
    FEWALD:  cpu time    0.0040: real time    0.0037


----------------------------------------- Iteration    1(   1)  ---------------------------------------


    POTLOK:  cpu time    0.0650: real time    0.0655
    SETDIJ:  cpu time    0.0060: real time    0.0056
     EDDAV:  cpu time    0.8259: real time    0.8362
       DOS:  cpu time    0.0010: real time    0.0003
    --------------------------------------------
      LOOP:  cpu time    0.9009: real time    0.9312

 eigenvalue-minimisations  :   444
 total energy-change (2. order) : 0.2650123E+04  (-0.1367271E+05)
 number of electron     352.0000000 magnetization 
 augmentation part      352.0000000 magnetization 

 Free energy of the ion-electron system (eV)
  ---------------------------------------------------
  alpha Z        PSCENC =       285.36422273
  Ewald energy   TEWEN  =    -11226.14841565
  -Hartree energ DENC   =     -3304.40604681
  -exchange      EXHF   =         0.00000000
  -V(xc)+E(xc)   XCENC  =       467.91671809
  PAW double counting   =      5100.40261384    -4706.48427697
  entropy T*S    EENTRO =        -0.05165795
  eigenvalues    EBANDS =      1592.62911949
  atomic energy  EATOM  =     14440.90085027
  Solvation  Ediel_sol  =         0.00000000
  ---------------------------------------------------
  free energy    TOTEN  =      2650.12312703 eV

  energy without entropy =     2650.17478498  energy(sigma->0) =     2650.14895600


--------------------------------------------------------------------------------------------------------




----------------------------------------- Iteration    1(   2)  ---------------------------------------


     EDDAV:  cpu time    1.2188: real time    1.2191
       DOS:  cpu time    0.0000: real time    0.0001
    --------------------------------------------
      LOOP:  cpu time    1.2198: real time    1.2294

 eigenvalue-minimisations  :   720
 total energy-change (2. order) :-0.2648490E+04  (-0.2541910E+04)
 number of electron     352.0000000 magnetization 
 augmentation part      352.0000000 magnetization 

 Free energy of the ion-electron system (eV)
  ---------------------------------------------------
  alpha Z        PSCENC =       285.36422273
  Ewald energy   TEWEN  =    -11226.14841565
  -Hartree energ DENC   =     -3304.40604681
  -exchange      EXHF   =         0.00000000
  -V(xc)+E(xc)   XCENC  =       467.91671809
  PAW double counting   =      5100.40261384    -4706.48427697
  entropy T*S    EENTRO =        -0.00000000
  eigenvalues    EBANDS =     -1055.91263600
  atomic energy  EATOM  =     14440.90085027
  Solvation  Ediel_sol  =         0.00000000
  ---------------------------------------------------
  free energy    TOTEN  =         1.63302948 eV

  energy without entropy =        1.63302948  energy(sigma->0) =        1.63302948


--------------------------------------------------------------------------------------------------------




----------------------------------------- Iteration    1(   3)  ---------------------------------------


     EDDAV:  cpu time    0.9569: real time    0.9571
       DOS:  cpu time    0.0000: real time    0.0001
    --------------------------------------------
      LOOP:  cpu time    0.9579: real time    0.9658

 eigenvalue-minimisations  :   528
 total energy-change (2. order) :-0.3698134E+03  (-0.3668735E+03)
 number of electron     352.0000000 magnetization 
 augmentation part      352.0000000 magnetization 

 Free energy of the ion-electron system (eV)
  ---------------------------------------------------
  alpha Z        PSCENC =       285.36422273
  Ewald energy   TEWEN  =    -11226.14841565
  -Hartree energ DENC   =     -3304.40604681
  -exchange      EXHF   =         0.00000000
  -V(xc)+E(xc)   XCENC  =       467.91671809
  PAW double counting   =      5100.40261384    -4706.48427697
  entropy T*S    EENTRO =        -0.00000000
  eigenvalues    EBANDS =     -1425.72600504
  atomic energy  EATOM  =     14440.90085027
  Solvation  Ediel_sol  =         0.00000000
  ---------------------------------------------------
  free energy    TOTEN  =      -368.18033955 eV

  energy without entropy =     -368.18033955  energy(sigma->0) =     -368.18033955


--------------------------------------------------------------------------------------------------------




----------------------------------------- Iteration    1(   4)  ---------------------------------------


     EDDAV:  cpu time    0.9729: real time    0.9744
       DOS:  cpu time    0.0010: real time    0.0001
    --------------------------------------------
      LOOP:  cpu time    0.9759: real time    0.9835

 eigenvalue-minimisations  :   540
 total energy-change (2. order) :-0.1287855E+02  (-0.1279896E+02)
 number of electron     352.0000000 magnetization 
 augmentation part      352.0000000 magnetization 

 Free energy of the ion-electron system (eV)
  ---------------------------------------------------
  alpha Z        PSCENC =       285.36422273
  Ewald energy   TEWEN  =    -11226.14841565
  -Hartree energ DENC   =     -3304.40604681
  -exchange      EXHF   =         0.00000000
  -V(xc)+E(xc)   XCENC  =       467.91671809
  PAW double counting   =      5100.40261384    -4706.48427697
  entropy T*S    EENTRO =        -0.00000000
  eigenvalues    EBANDS =     -1438.60455196
  atomic energy  EATOM  =     14440.90085027
  Solvation  Ediel_sol  =         0.00000000
  ---------------------------------------------------
  free energy    TOTEN  =      -381.05888647 eV

  energy without entropy =     -381.05888647  energy(sigma->0) =     -381.05888647


--------------------------------------------------------------------------------------------------------




----------------------------------------- Iteration    1(   5)  ---------------------------------------


     EDDAV:  cpu time    0.9739: real time    0.9741
       DOS:  cpu time    0.0000: real time    0.0001
    CHARGE:  cpu time    0.0470: real time    0.0463
    MIXING:  cpu time    0.0020: real time    0.0020
    --------------------------------------------
      LOOP:  cpu time    1.0238: real time    1.0317

 eigenvalue-minimisations  :   540
 total energy-change (2. order) :-0.3900369E+00  (-0.3892006E+00)
 number of electron     352.0000001 magnetization 
 augmentation part      -42.8261785 magnetization 

 Broyden mixing:
  rms(total) = 0.18160E+01    rms(broyden)= 0.18158E+01
  rms(prec ) = 0.24384E+01
  weight for this iteration     100.00

 Free energy of the ion-electron system (eV)
  ---------------------------------------------------
  alpha Z        PSCENC =       285.36422273
  Ewald energy   TEWEN  =    -11226.14841565
  -Hartree energ DENC   =     -3304.40604681
  -exchange      EXHF   =         0.00000000
  -V(xc)+E(xc)   XCENC  =       467.91671809
  PAW double counting   =      5100.40261384    -4706.48427697
  entropy T*S    EENTRO =        -0.00000000
  eigenvalues    EBANDS =     -1438.99458890
  atomic energy  EATOM  =     14440.90085027
  Solvation  Ediel_sol  =         0.00000000
  ---------------------------------------------------
  free energy    TOTEN  =      -381.44892342 eV

  energy without entropy =     -381.44892342  energy(sigma->0) =     -381.44892342


--------------------------------------------------------------------------------------------------------




----------------------------------------- Iteration    1(   6)  ---------------------------------------


    POTLOK:  cpu time    0.0630: real time    0.0633
    SETDIJ:  cpu time    0.0060: real time    0.0056
    EDDIAG:  cpu time    0.1390: real time    0.1388
  RMM-DIIS:  cpu time    0.5499: real time    0.5506
    ORTHCH:  cpu time    0.0140: real time    0.0135
       DOS:  cpu time    0.0000: real time    0.0002
    CHARGE:  cpu time    0.0470: real time    0.0472
    MIXING:  cpu time    0.0020: real time    0.0020
    --------------------------------------------
      LOOP:  cpu time    0.8219: real time    0.8448

 eigenvalue-minimisations  :   444
 total energy-change (2. order) : 0.1115640E+02  (-0.2488199E+01)
 number of electron     352.0000002 magnetization 
 augmentation part      -42.3556839 magnetization 

 Broyden mixing:
  rms(total) = 0.89929E+00    rms(broyden)= 0.89928E+00
  rms(prec ) = 0.11316E+01
  weight for this iteration     100.00

 eigenvalues of (default mixing * dielectric matrix)
  average eigenvalue GAMMA=   1.6106
  1.6106

 Free energy of the ion-electron system (eV)
  ---------------------------------------------------
  alpha Z        PSCENC =       285.36422273
  Ewald energy   TEWEN  =    -11226.14841565
  -Hartree energ DENC   =     -3397.11618194
  -exchange      EXHF   =         0.00000000
  -V(xc)+E(xc)   XCENC  =       478.76405513
  PAW double counting   =      5502.31671698    -5113.44409444
  entropy T*S    EENTRO =        -0.00000000
  eigenvalues    EBANDS =     -1340.92967292
  atomic energy  EATOM  =     14440.90085027
  Solvation  Ediel_sol  =         0.00000000
  ---------------------------------------------------
  free energy    TOTEN  =      -370.29251986 eV

  energy without entropy =     -370.29251986  energy(sigma->0) =     -370.29251986


--------------------------------------------------------------------------------------------------------




----------------------------------------- Iteration    1(   7)  ---------------------------------------


    POTLOK:  cpu time    0.0640: real time    0.0634
    SETDIJ:  cpu time    0.0060: real time    0.0056
    EDDIAG:  cpu time    0.1370: real time    0.1380
  RMM-DIIS:  cpu time    0.5479: real time    0.5472
    ORTHCH:  cpu time    0.0130: real time    0.0135
       DOS:  cpu time    0.0010: real time    0.0002
    CHARGE:  cpu time    0.0460: real time    0.0467
    MIXING:  cpu time    0.0020: real time    0.0020
    --------------------------------------------
      LOOP:  cpu time    0.8179: real time    0.8257

 eigenvalue-minimisations  :   444
 total energy-change (2. order) : 0.9721485E+00  (-0.8257642E+00)
 number of electron     352.0000003 magnetization 
 augmentation part      -42.0562254 magnetization 

 Broyden mixing:
  rms(total) = 0.36982E+00    rms(broyden)= 0.36982E+00
  rms(prec ) = 0.45338E+00
  weight for this iteration     100.00

 eigenvalues of (default mixing * dielectric matrix)
  average eigenvalue GAMMA=   1.8492
  1.4467  2.2516

 Free energy of the ion-electron system (eV)
  ---------------------------------------------------
  alpha Z        PSCENC =       285.36422273
  Ewald energy   TEWEN  =    -11226.14841565
  -Hartree energ DENC   =     -3470.01678157
  -exchange      EXHF   =         0.00000000
  -V(xc)+E(xc)   XCENC  =       487.09623496
  PAW double counting   =      5751.88238355    -5366.23382644
  entropy T*S    EENTRO =        -0.00000000
  eigenvalues    EBANDS =     -1272.16503921
  atomic energy  EATOM  =     14440.90085027
  Solvation  Ediel_sol  =         0.00000000
  ---------------------------------------------------
  free energy    TOTEN  =      -369.32037137 eV

  energy without entropy =     -369.32037137  energy(sigma->0) =     -369.32037137


--------------------------------------------------------------------------------------------------------




----------------------------------------- Iteration    1(   8)  ---------------------------------------


    POTLOK:  cpu time    0.0610: real time    0.0632
    SETDIJ:  cpu time    0.0060: real time    0.0056
    EDDIAG:  cpu time    0.1390: real time    0.1385
  RMM-DIIS:  cpu time    0.5669: real time    0.5690
    ORTHCH:  cpu time    0.0140: real time    0.0135
       DOS:  cpu time    0.0010: real time    0.0002
    CHARGE:  cpu time    0.0440: real time    0.0455
    MIXING:  cpu time    0.0030: real time    0.0021
    --------------------------------------------
      LOOP:  cpu time    0.8379: real time    0.8530

 eigenvalue-minimisations  :   444
 total energy-change (2. order) :-0.5330624E-01  (-0.1090023E+00)
 number of electron     352.0000003 magnetization 
 augmentation part      -42.0134747 magnetization 

 Broyden mixing:
  rms(total) = 0.88285E-01    rms(broyden)= 0.88284E-01
  rms(prec ) = 0.12311E+00
  weight for this iteration     100.00

 eigenvalues of (default mixing * dielectric matrix)
  average eigenvalue GAMMA=   1.8771
  2.6116  1.5099  1.5099

 Free energy of the ion-electron system (eV)
  ---------------------------------------------------
  alpha Z        PSCENC =       285.36422273
  Ewald energy   TEWEN  =    -11226.14841565
  -Hartree energ DENC   =     -3494.04530915
  -exchange      EXHF   =         0.00000000
  -V(xc)+E(xc)   XCENC  =       490.45085030
  PAW double counting   =      5799.35183954    -5414.42672711
  entropy T*S    EENTRO =        -0.00000000
  eigenvalues    EBANDS =     -1250.82098853
  atomic energy  EATOM  =     14440.90085027
  Solvation  Ediel_sol  =         0.00000000
  ---------------------------------------------------
  free energy    TOTEN  =      -369.37367761 eV

  energy without entropy =     -369.37367761  energy(sigma->0) =     -369.37367761


--------------------------------------------------------------------------------------------------------




----------------------------------------- Iteration    1(   9)  ---------------------------------------


    POTLOK:  cpu time    0.0640: real time    0.0635
    SETDIJ:  cpu time    0.0050: real time    0.0056
    EDDIAG:  cpu time    0.1390: real time    0.1383
  RMM-DIIS:  cpu time    0.5529: real time    0.5544
    ORTHCH:  cpu time    0.0140: real time    0.0135
       DOS:  cpu time    0.0010: real time    0.0001
    CHARGE:  cpu time    0.0460: real time    0.0465
    MIXING:  cpu time    0.0020: real time    0.0021
    --------------------------------------------
      LOOP:  cpu time    0.8249: real time    0.8334

 eigenvalue-minimisations  :   448
 total energy-change (2. order) :-0.2552332E-01  (-0.1748492E-01)
 number of electron     352.0000003 magnetization 
 augmentation part      -42.0394848 magnetization 

 Broyden mixing:
  rms(total) = 0.35425E-01    rms(broyden)= 0.35424E-01
  rms(prec ) = 0.48225E-01
  weight for this iteration     100.00

 eigenvalues of (default mixing * dielectric matrix)
  average eigenvalue GAMMA=   1.7069
  1.1697  1.1697  2.2440  2.2440

 Free energy of the ion-electron system (eV)
  ---------------------------------------------------
  alpha Z        PSCENC =       285.36422273
  Ewald energy   TEWEN  =    -11226.14841565
  -Hartree energ DENC   =     -3495.60912698
  -exchange      EXHF   =         0.00000000
  -V(xc)+E(xc)   XCENC  =       491.29906631
  PAW double counting   =      5804.60581867    -5419.75851160
  entropy T*S    EENTRO =        -0.00000000
  eigenvalues    EBANDS =     -1250.05310466
  atomic energy  EATOM  =     14440.90085027
  Solvation  Ediel_sol  =         0.00000000
  ---------------------------------------------------
  free energy    TOTEN  =      -369.39920093 eV

  energy without entropy =     -369.39920093  energy(sigma->0) =     -369.39920093


--------------------------------------------------------------------------------------------------------




----------------------------------------- Iteration    1(  10)  ---------------------------------------


    POTLOK:  cpu time    0.0640: real time    0.0636
    SETDIJ:  cpu time    0.0060: real time    0.0056
    EDDIAG:  cpu time    0.1370: real time    0.1381
  RMM-DIIS:  cpu time    0.5799: real time    0.5796
    ORTHCH:  cpu time    0.0130: real time    0.0132
       DOS:  cpu time    0.0010: real time    0.0001
    CHARGE:  cpu time    0.0460: real time    0.0468
    MIXING:  cpu time    0.0030: real time    0.0023
    --------------------------------------------
      LOOP:  cpu time    0.8509: real time    0.8595

 eigenvalue-minimisations  :   470
 total energy-change (2. order) :-0.6336614E-03  (-0.2529168E-02)
 number of electron     352.0000003 magnetization 
 augmentation part      -42.0506385 magnetization 

 Broyden mixing:
  rms(total) = 0.14332E-01    rms(broyden)= 0.14331E-01
  rms(prec ) = 0.19956E-01
  weight for this iteration     100.00

 eigenvalues of (default mixing * dielectric matrix)
  average eigenvalue GAMMA=   1.9037
  2.7779  2.7779  1.5482  1.4605  0.9540

 Free energy of the ion-electron system (eV)
  ---------------------------------------------------
  alpha Z        PSCENC =       285.36422273
  Ewald energy   TEWEN  =    -11226.14841565
  -Hartree energ DENC   =     -3494.51707602
  -exchange      EXHF   =         0.00000000
  -V(xc)+E(xc)   XCENC  =       491.12335240
  PAW double counting   =      5793.18932686    -5408.20806525
  entropy T*S    EENTRO =        -0.00000000
  eigenvalues    EBANDS =     -1251.10402992
  atomic energy  EATOM  =     14440.90085027
  Solvation  Ediel_sol  =         0.00000000
  ---------------------------------------------------
  free energy    TOTEN  =      -369.39983459 eV

  energy without entropy =     -369.39983459  energy(sigma->0) =     -369.39983459


--------------------------------------------------------------------------------------------------------




----------------------------------------- Iteration    1(  11)  ---------------------------------------


    POTLOK:  cpu time    0.0630: real time    0.0638
    SETDIJ:  cpu time    0.0060: real time    0.0054
    EDDIAG:  cpu time    0.1380: real time    0.1380
  RMM-DIIS:  cpu time    0.5519: real time    0.5529
    ORTHCH:  cpu time    0.0140: real time    0.0135
       DOS:  cpu time    0.0000: real time    0.0001
    CHARGE:  cpu time    0.0450: real time    0.0461
    MIXING:  cpu time    0.0030: real time    0.0024
    --------------------------------------------
      LOOP:  cpu time    0.8219: real time    0.8323

 eigenvalue-minimisations  :   444
 total energy-change (2. order) :-0.3248124E-02  (-0.1125786E-02)
 number of electron     352.0000003 magnetization 
 augmentation part      -42.0438295 magnetization 

 Broyden mixing:
  rms(total) = 0.90732E-02    rms(broyden)= 0.90731E-02
  rms(prec ) = 0.15313E-01
  weight for this iteration     100.00

 eigenvalues of (default mixing * dielectric matrix)
  average eigenvalue GAMMA=   1.7383
  3.0016  2.5082  1.6729  1.0930  1.0769  1.0769

 Free energy of the ion-electron system (eV)
  ---------------------------------------------------
  alpha Z        PSCENC =       285.36422273
  Ewald energy   TEWEN  =    -11226.14841565
  -Hartree energ DENC   =     -3496.77810781
  -exchange      EXHF   =         0.00000000
  -V(xc)+E(xc)   XCENC  =       491.20957982
  PAW double counting   =      5790.60713526    -5405.59708511
  entropy T*S    EENTRO =        -0.00000000
  eigenvalues    EBANDS =     -1248.96126222
  atomic energy  EATOM  =     14440.90085027
  Solvation  Ediel_sol  =         0.00000000
  ---------------------------------------------------
  free energy    TOTEN  =      -369.40308271 eV

  energy without entropy =     -369.40308271  energy(sigma->0) =     -369.40308271


--------------------------------------------------------------------------------------------------------




----------------------------------------- Iteration    1(  12)  ---------------------------------------


    POTLOK:  cpu time    0.0630: real time    0.0638
    SETDIJ:  cpu time    0.0060: real time    0.0054
    EDDIAG:  cpu time    0.1390: real time    0.1389
  RMM-DIIS:  cpu time    0.5399: real time    0.5411
    ORTHCH:  cpu time    0.0130: real time    0.0130
       DOS:  cpu time    0.0010: real time    0.0001
    CHARGE:  cpu time    0.0450: real time    0.0455
    MIXING:  cpu time    0.0030: real time    0.0027
    --------------------------------------------
      LOOP:  cpu time    0.8119: real time    0.8200

 eigenvalue-minimisations  :   434
 total energy-change (2. order) : 0.5527150E-03  (-0.1620800E-03)
 number of electron     352.0000003 magnetization 
 augmentation part      -42.0447921 magnetization 

 Broyden mixing:
  rms(total) = 0.21892E-02    rms(broyden)= 0.21891E-02
  rms(prec ) = 0.33243E-02
  weight for this iteration     100.00

 eigenvalues of (default mixing * dielectric matrix)
  average eigenvalue GAMMA=   1.9018
  3.3715  2.4960  2.4960  1.6656  1.0140  1.1347  1.1347

 Free energy of the ion-electron system (eV)
  ---------------------------------------------------
  alpha Z        PSCENC =       285.36422273
  Ewald energy   TEWEN  =    -11226.14841565
  -Hartree energ DENC   =     -3496.83509161
  -exchange      EXHF   =         0.00000000
  -V(xc)+E(xc)   XCENC  =       491.24996122
  PAW double counting   =      5791.13776004    -5406.13323010
  entropy T*S    EENTRO =        -0.00000000
  eigenvalues    EBANDS =     -1248.93858689
  atomic energy  EATOM  =     14440.90085027
  Solvation  Ediel_sol  =         0.00000000
  ---------------------------------------------------
  free energy    TOTEN  =      -369.40253000 eV

  energy without entropy =     -369.40253000  energy(sigma->0) =     -369.40253000


--------------------------------------------------------------------------------------------------------




----------------------------------------- Iteration    1(  13)  ---------------------------------------


    POTLOK:  cpu time    0.0630: real time    0.0640
    SETDIJ:  cpu time    0.0060: real time    0.0054
    EDDIAG:  cpu time    0.1370: real time    0.1381
  RMM-DIIS:  cpu time    0.4799: real time    0.4796
    ORTHCH:  cpu time    0.0130: real time    0.0131
       DOS:  cpu time    0.0010: real time    0.0001
    --------------------------------------------
      LOOP:  cpu time    0.7019: real time    0.7106

 eigenvalue-minimisations  :   380
 total energy-change (2. order) :-0.5132251E-04  (-0.5334041E-04)
 number of electron     352.0000003 magnetization 
 augmentation part      -42.0447921 magnetization 

 Free energy of the ion-electron system (eV)
  ---------------------------------------------------
  alpha Z        PSCENC =       285.36422273
  Ewald energy   TEWEN  =    -11226.14841565
  -Hartree energ DENC   =     -3496.85242715
  -exchange      EXHF   =         0.00000000
  -V(xc)+E(xc)   XCENC  =       491.25869314
  PAW double counting   =      5791.08806900    -5406.08376396
  entropy T*S    EENTRO =        -0.00000000
  eigenvalues    EBANDS =     -1248.92980970
  atomic energy  EATOM  =     14440.90085027
  Solvation  Ediel_sol  =         0.00000000
  ---------------------------------------------------
  free energy    TOTEN  =      -369.40258132 eV

  energy without entropy =     -369.40258132  energy(sigma->0) =     -369.40258132


--------------------------------------------------------------------------------------------------------




 average (electrostatic) potential at core
  the test charge radii are     0.9748  0.9587  0.9698
  (the norm of the test charge is              1.0000)
       1 -27.4146       2 -27.4146       3 -27.4146       4 -27.4146       5 -27.3278
       6 -27.3278       7 -27.3279       8 -27.3279       9 -27.3446      10 -27.3446
      11 -27.3446      12 -27.3446      13 -27.4081      14 -27.4082      15 -27.4082
      16 -27.4082      17 -27.8918      18 -27.8919      19 -27.8918      20 -27.8918
      21 -27.6302      22 -27.6302      23 -27.6302      24 -27.6301      25 -27.4104
      26 -27.4104      27 -27.4104      28 -27.4104      29 -88.1390      30 -88.1390
      31 -88.1390      32 -88.1391      33 -88.3519      34 -88.3519      35 -88.3519
      36 -88.3520      37 -87.9770      38 -87.9770      39 -87.9770      40 -87.9770
      41 -88.6246      42 -88.6244      43 -88.6243      44 -88.6246      45 -88.5765
      46 -88.5766      47 -88.5768      48 -88.5767      49 -88.5085      50 -88.5087
      51 -88.5084      52 -88.5085      53 -89.7496      54 -89.7493      55 -89.7494
      56 -89.7493      57 -88.8712      58 -88.8712      59 -88.8711      60 -88.8712
      61 -88.7171      62 -88.7170      63 -88.7170      64 -88.7169      65 -88.8460
      66 -88.8460      67 -88.8460      68 -88.8459      69 -88.4214      70 -88.4214
      71 -88.4215      72 -88.4216      73 -88.3399      74 -88.3399      75 -88.3399
      76 -88.3400      77 -88.4284      78 -88.4284      79 -88.4283      80 -88.4284
      81 -88.4510      82 -88.4509      83 -88.4510      84 -88.4508
 
 
 
 E-fermi :   2.0051     XC(G=0):  -8.1274     alpha+bet : -8.9960


 k-point     1 :       0.0000    0.0000    0.0000
  band No.  band energies     occupation 
      1     -13.6262      2.00000
      2     -13.5788      2.00000
      3     -13.5770      2.00000
      4     -13.5605      2.00000
      5     -12.9677      2.00000
      6     -12.9655      2.00000
      7     -12.9325      2.00000
      8     -12.9319      2.00000
      9     -12.9313      2.00000
     10     -12.9106      2.00000
     11     -12.9085      2.00000
     12     -12.8705      2.00000
     13     -10.8443      2.00000
     14     -10.8357      2.00000
     15     -10.8336      2.00000
     16     -10.8039      2.00000
     17     -10.5205      2.00000
     18     -10.4822      2.00000
     19     -10.4408      2.00000
     20     -10.4388      2.00000
     21     -10.4283      2.00000
     22     -10.3943      2.00000
     23     -10.3065      2.00000
     24     -10.2808      2.00000
     25     -10.2610      2.00000
     26     -10.2344      2.00000
     27     -10.2200      2.00000
     28     -10.2192      2.00000
     29     -10.2142      2.00000
     30     -10.1737      2.00000
     31     -10.0712      2.00000
     32     -10.0669      2.00000
     33     -10.0188      2.00000
     34     -10.0095      2.00000
     35     -10.0081      2.00000
     36     -10.0062      2.00000
     37      -9.9679      2.00000
     38      -9.9602      2.00000
     39      -9.9590      2.00000
     40      -9.9449      2.00000
     41      -9.9363      2.00000
     42      -9.9326      2.00000
     43      -9.8657      2.00000
     44      -9.8379      2.00000
     45      -6.7618      2.00000
     46      -6.7469      2.00000
     47      -6.7339      2.00000
     48      -6.5496      2.00000
     49      -6.1681      2.00000
     50      -5.8005      2.00000
     51      -5.7060      2.00000
     52      -5.6916      2.00000
     53      -5.6909      2.00000
     54      -5.6772      2.00000
     55      -5.6064      2.00000
     56      -5.5210      2.00000
     57      -3.8882      2.00000
     58      -3.8374      2.00000
     59      -3.8218      2.00000
     60      -3.7023      2.00000
     61      -3.4368      2.00000
     62      -3.2631      2.00000
     63      -3.2413      2.00000
     64      -3.1923      2.00000
     65      -3.1874      2.00000
     66      -3.0867      2.00000
     67      -3.0569      2.00000
     68      -3.0040      2.00000
     69      -2.9743      2.00000
     70      -2.8766      2.00000
     71      -2.8612      2.00000
     72      -2.7749      2.00000
     73      -2.7683      2.00000
     74      -2.7593      2.00000
     75      -2.6750      2.00000
     76      -2.6726      2.00000
     77      -2.6576      2.00000
     78      -2.5840      2.00000
     79      -2.5540      2.00000
     80      -2.5161      2.00000
     81      -2.4686      2.00000
     82      -2.4311      2.00000
     83      -2.4140      2.00000
     84      -2.3768      2.00000
     85      -2.3605      2.00000
     86      -2.2999      2.00000
     87      -2.2666      2.00000
     88      -2.2129      2.00000
     89      -2.2090      2.00000
     90      -2.0774      2.00000
     91      -2.0293      2.00000
     92      -2.0281      2.00000
     93      -1.1125      2.00000
     94      -1.0422      2.00000
     95      -0.8554      2.00000
     96      -0.8253      2.00000
     97      -0.7572      2.00000
     98      -0.7251      2.00000
     99      -0.7135      2.00000
    100      -0.6489      2.00000
    101      -0.6467      2.00000
    102      -0.6429      2.00000
    103      -0.5841      2.00000
    104      -0.4753      2.00000
    105      -0.4612      2.00000
    106      -0.4351      2.00000
    107      -0.3974      2.00000
    108      -0.3521      2.00000
    109      -0.3112      2.00000
    110      -0.2976      2.00000
    111      -0.2841      2.00000
    112      -0.1633      2.00000
    113      -0.1607      2.00000
    114      -0.1562      2.00000
    115      -0.1135      2.00000
    116      -0.0644      2.00000
    117      -0.0631      2.00000
    118      -0.0351      2.00000
    119      -0.0248      2.00000
    120      -0.0141      2.00000
    121       0.0592      2.00000
    122       0.0625      2.00000
    123       0.1542      2.00000
    124       0.1961      2.00000
    125       0.1996      2.00000
    126       0.2037      2.00000
    127       0.2721      2.00000
    128       0.2878      2.00000
    129       0.2941      2.00000
    130       0.3210      2.00000
    131       0.3451      2.00000
    132       0.3920      2.00000
    133       0.3954      2.00000
    134       0.4246      2.00000
    135       0.4678      2.00000
    136       0.4981      2.00000
    137       0.5125      2.00000
    138       0.5353      2.00000
    139       0.5355      2.00000
    140       0.5834      2.00000
    141       0.5962      2.00000
    142       0.6116      2.00000
    143       0.6625      2.00000
    144       0.6743      2.00000
    145       0.7089      2.00000
    146       0.7419      2.00000
    147       0.7699      2.00000
    148       0.7899      2.00000
    149       0.8005      2.00000
    150       0.8356      2.00000
    151       0.8923      2.00000
    152       0.9045      2.00000
    153       0.9565      2.00000
    154       1.0005      2.00000
    155       1.0217      2.00000
    156       1.0354      2.00000
    157       1.0358      2.00000
    158       1.0843      2.00000
    159       1.0978      2.00000
    160       1.0990      2.00000
    161       1.1248      2.00000
    162       1.1921      2.00000
    163       1.2062      2.00000
    164       1.2308      2.00000
    165       1.2845      2.00000
    166       1.3082      2.00000
    167       1.3343      2.00000
    168       1.3499      2.00000
    169       1.3846      2.00000
    170       1.4036      2.00000
    171       1.4482      2.00000
    172       1.5468      2.00000
    173       1.5573      2.00000
    174       1.5737      2.00000
    175       1.6827      2.00000
    176       1.7101      2.00000
    177       4.2264      0.00000
    178       4.2476      0.00000
    179       4.3808      0.00000
    180       4.5739      0.00000
    181       4.6028      0.00000
    182       4.6121      0.00000
    183       4.6401      0.00000
    184       4.9105      0.00000
    185       4.9430      0.00000
    186       5.0129      0.00000
    187       5.0336      0.00000
    188       5.1897      0.00000
    189       5.2138      0.00000
    190       5.2145      0.00000
    191       5.3449      0.00000
    192       5.3532      0.00000
    193       5.3543      0.00000
    194       5.5976      0.00000
    195       5.6055      0.00000
    196       5.6317      0.00000
    197       5.6917      0.00000
    198       5.8050      0.00000
    199       5.8282      0.00000
    200       5.8445      0.00000
    201       5.9500      0.00000
    202       5.9512      0.00000
    203       5.9691      0.00000
    204       5.9920      0.00000
    205       6.0035      0.00000
    206       6.1379      0.00000
    207       6.1644      0.00000
    208       6.2077      0.00000
    209       6.2437      0.00000
    210       6.2667      0.00000
    211       6.4369      0.00000
    212       6.4512      0.00000
    213       6.4909      0.00000
    214       6.5577      0.00000
    215       6.6017      0.00000
    216       6.6465      0.00000
    217       6.6649      0.00000
    218       6.8160      0.00000
    219       6.9059      0.00000
    220       6.9822      0.00000
    221       7.0361      0.00000
    222       7.4337      0.00000


--------------------------------------------------------------------------------------------------------


 soft charge-density along one line, spin component           1
         0         1         2         3         4         5         6         7         8         9
 total charge-density along one line
 
 pseudopotential strength for first ion, spin component:           1
  1.166  -0.036   0.002  -0.000   0.002
 -0.036  -0.055  -0.000   0.000  -0.001
  0.002  -0.000  -0.398  -0.000  -0.000
 -0.000   0.000  -0.000  -0.398  -0.000
  0.002  -0.001  -0.000  -0.000  -0.398
 total augmentation occupancy for first ion, spin component:           1
  0.568  -0.061  -0.029  -0.000  -0.030
 -0.061   0.007   0.004  -0.000   0.004
 -0.029   0.004   0.047   0.000  -0.003
 -0.000  -0.000   0.000   0.057  -0.016
 -0.030   0.004  -0.003  -0.016   0.072


------------------------ aborting loop because EDIFF is reached ----------------------------------------


 


 total charge     
 
# of ion     s       p       d       tot
----------------------------------------
  1        0.070   0.127   0.000   0.197
  2        0.070   0.127   0.000   0.197
  3        0.070   0.127   0.000   0.197
  4        0.070   0.127   0.000   0.197
  5        0.082   0.149   0.000   0.232
  6        0.082   0.149   0.000   0.232
  7        0.082   0.149   0.000   0.232
  8        0.082   0.149   0.000   0.232
  9        0.077   0.136   0.000   0.212
 10        0.077   0.136   0.000   0.212
 11        0.077   0.136   0.000   0.212
 12        0.077   0.136   0.000   0.212
 13        0.074   0.129   0.000   0.203
 14        0.074   0.129   0.000   0.203
 15        0.074   0.129   0.000   0.203
 16        0.074   0.129   0.000   0.203
 17        0.069   0.115   0.000   0.184
 18        0.069   0.115   0.000   0.184
 19        0.069   0.115   0.000   0.184
 20        0.069   0.115   0.000   0.184
 21        0.079   0.135   0.000   0.214
 22        0.079   0.135   0.000   0.214
 23        0.079   0.135   0.000   0.214
 24        0.079   0.135   0.000   0.214
 25        0.076   0.131   0.000   0.207
 26        0.076   0.131   0.000   0.207
 27        0.076   0.131   0.000   0.207
 28        0.076   0.131   0.000   0.207
 29        0.979   1.371   0.000   2.350
 30        0.979   1.371   0.000   2.350
 31        0.979   1.371   0.000   2.350
 32        0.979   1.371   0.000   2.350
 33        0.978   1.369   0.000   2.347
 34        0.978   1.369   0.000   2.347
 35        0.978   1.369   0.000   2.348
 36        0.978   1.369   0.000   2.347
 37        0.971   1.367   0.000   2.338
 38        0.971   1.367   0.000   2.338
 39        0.971   1.367   0.000   2.338
 40        0.971   1.367   0.000   2.338
 41        1.343   2.411   0.000   3.754
 42        1.343   2.411   0.000   3.754
 43        1.343   2.411   0.000   3.754
 44        1.343   2.411   0.000   3.754
 45        1.336   2.437   0.000   3.773
 46        1.336   2.437   0.000   3.773
 47        1.336   2.437   0.000   3.773
 48        1.336   2.437   0.000   3.773
 49        1.349   2.416   0.000   3.765
 50        1.349   2.416   0.000   3.765
 51        1.349   2.416   0.000   3.765
 52        1.349   2.416   0.000   3.765
 53        1.366   2.339   0.000   3.704
 54        1.366   2.339   0.000   3.704
 55        1.366   2.339   0.000   3.704
 56        1.366   2.339   0.000   3.704
 57        1.340   2.415   0.000   3.755
 58        1.340   2.415   0.000   3.755
 59        1.340   2.415   0.000   3.755
 60        1.340   2.415   0.000   3.755
 61        1.339   2.422   0.000   3.761
 62        1.339   2.422   0.000   3.761
 63        1.339   2.422   0.000   3.761
 64        1.339   2.422   0.000   3.761
 65        1.339   2.425   0.000   3.764
 66        1.339   2.425   0.000   3.764
 67        1.339   2.425   0.000   3.764
 68        1.339   2.425   0.000   3.764
 69        1.333   2.430   0.000   3.764
 70        1.333   2.430   0.000   3.764
 71        1.333   2.430   0.000   3.764
 72        1.333   2.430   0.000   3.764
 73        1.336   2.441   0.000   3.777
 74        1.336   2.441   0.000   3.777
 75        1.336   2.441   0.000   3.777
 76        1.336   2.441   0.000   3.777
 77        1.343   2.421   0.000   3.764
 78        1.343   2.421   0.000   3.764
 79        1.343   2.421   0.000   3.764
 80        1.343   2.421   0.000   3.764
 81        1.338   2.418   0.000   3.757
 82        1.338   2.418   0.000   3.757
 83        1.338   2.418   0.000   3.757
 84        1.338   2.418   0.000   3.757
------------------------------------------------
tot       72.863 126.421   0.000 199.285
 
    CHARGE:  cpu time    0.0430: real time    0.0429
    FORLOC:  cpu time    0.0360: real time    0.0348
    FORNL :  cpu time    0.2830: real time    0.2825
    STRESS:  cpu time    0.8419: real time    0.8429
    FORCOR:  cpu time    0.0970: real time    0.0972
    FORHAR:  cpu time    0.0480: real time    0.0477
    MIXING:  cpu time    0.0030: real time    0.0028
    OFIELD:  cpu time    0.0000: real time    0.0001

  FORCE on cell =-STRESS in cart. coord.  units (eV):
  Direction    XX          YY          ZZ          XY          YZ          ZX
  --------------------------------------------------------------------------------------
  Alpha Z   285.36422   285.36422   285.36422
  Ewald   -4108.98091 -3684.98066 -3432.26628    34.56983   -33.62756    32.14458
  Hartree  1060.02902  1210.49897  1226.49718    61.54872   -61.70361    35.85037
  E(xc)   -1200.70294 -1199.81292 -1199.26080    -0.11049     0.03771     0.32723
  Local   -3367.16528 -3906.33216 -4140.80579  -106.42707   110.72889   -68.74781
  n-local  3883.40004  3906.05131  3919.26458    -0.35167    -1.51710    -4.23850
  augment  -883.28507  -881.07502  -878.41915    -0.84479     1.32836    -0.13072
  Kinetic  4331.55095  4270.83448  4218.82995    10.43448   -14.19661     4.54366
  Fock        0.00000     0.00000     0.00000     0.00000     0.00000     0.00000
  -------------------------------------------------------------------------------------
  Total       0.21002     0.54823    -0.79607    -1.18100     1.05007    -0.25120
  in kB       0.19199     0.50115    -0.72770    -1.07956     0.95988    -0.22962
  external pressure =       -0.01 kB  Pullay stress =        0.00 kB

  kinetic pressure (ideal gas correction) =      0.01 kB
  total pressure  =     -0.00 kB
  Total+kin.     0.198       0.509      -0.722      -1.080       0.960      -0.230

 VOLUME and BASIS-vectors are now :
 -----------------------------------------------------------------------------
  energy-cutoff  :      400.00
  volume of cell :     1752.71
      direct lattice vectors                 reciprocal lattice vectors
    11.797205000  0.043027000 -5.073975000     0.085092123 -0.017426779  0.000610842
     2.441136000 11.820736000 -2.822486000    -0.000015140  0.084763451  0.000683589
    -0.111630000 -0.101968000 12.641328000     0.034150888  0.011930757  0.079503421

  length of vectors
    12.842161790 12.395780402 12.642232095     0.086860435  0.084766209  0.087346551


 FORCES acting on ions
    electron-ion (+dipol)            ewald-force                    non-local-force                 convergence-correction
 -----------------------------------------------------------------------------------------------
   -.561E+01 -.467E+01 0.995E+00   0.519E+01 0.429E+01 -.979E+00   0.396E+00 0.373E+00 0.706E-02   0.839E-04 0.740E-04 0.460E-04
   -.561E+01 -.467E+01 0.995E+00   0.519E+01 0.429E+01 -.979E+00   0.396E+00 0.373E+00 0.706E-02   0.829E-04 0.751E-04 0.705E-04
   0.561E+01 0.467E+01 -.995E+00   -.519E+01 -.429E+01 0.979E+00   -.396E+00 -.373E+00 -.705E-02   -.140E-03 -.456E-04 -.634E-04
   0.561E+01 0.467E+01 -.995E+00   -.519E+01 -.429E+01 0.979E+00   -.396E+00 -.373E+00 -.706E-02   -.114E-03 -.553E-04 -.351E-04
   -.479E+01 0.141E+01 0.817E+00   0.456E+01 -.153E+01 -.106E+01   0.226E+00 0.131E+00 0.276E+00   -.145E-03 -.283E-03 -.176E-03
   -.479E+01 0.141E+01 0.817E+00   0.456E+01 -.153E+01 -.106E+01   0.226E+00 0.131E+00 0.276E+00   -.131E-03 -.280E-03 -.159E-03
   0.479E+01 -.141E+01 -.817E+00   -.456E+01 0.153E+01 0.106E+01   -.226E+00 -.131E+00 -.276E+00   0.131E-03 0.267E-03 0.161E-03
   0.479E+01 -.141E+01 -.817E+00   -.456E+01 0.153E+01 0.106E+01   -.226E+00 -.131E+00 -.276E+00   0.113E-03 0.275E-03 0.183E-03
   -.380E+01 -.350E+01 -.447E+01   0.377E+01 0.336E+01 0.453E+01   0.288E-01 0.144E+00 -.978E-02   0.437E-03 -.643E-04 0.184E-03
   -.380E+01 -.350E+01 -.447E+01   0.377E+01 0.336E+01 0.453E+01   0.288E-01 0.144E+00 -.979E-02   0.446E-03 -.104E-03 0.157E-03
   0.380E+01 0.350E+01 0.447E+01   -.377E+01 -.336E+01 -.453E+01   -.288E-01 -.144E+00 0.978E-02   -.461E-03 0.106E-03 -.138E-03
   0.380E+01 0.350E+01 0.447E+01   -.377E+01 -.336E+01 -.453E+01   -.288E-01 -.144E+00 0.979E-02   -.451E-03 0.106E-03 -.112E-03
   0.534E+01 -.113E+00 -.516E+00   -.496E+01 0.196E+00 0.463E+00   -.387E+00 -.638E-01 0.108E+00   -.283E-03 0.382E-03 0.703E-05
   0.534E+01 -.113E+00 -.516E+00   -.496E+01 0.196E+00 0.463E+00   -.387E+00 -.639E-01 0.108E+00   -.203E-03 0.359E-03 0.250E-04
   -.534E+01 0.113E+00 0.516E+00   0.496E+01 -.196E+00 -.463E+00   0.387E+00 0.639E-01 -.108E+00   0.231E-03 -.362E-03 -.374E-04
   -.534E+01 0.113E+00 0.516E+00   0.496E+01 -.196E+00 -.463E+00   0.387E+00 0.638E-01 -.108E+00   0.279E-03 -.407E-03 -.204E-04
   -.244E+01 0.276E+01 -.139E+01   0.261E+01 -.258E+01 0.152E+01   -.151E+00 -.215E+00 -.997E-01   0.106E-02 0.502E-03 0.203E-03
   -.244E+01 0.276E+01 -.139E+01   0.261E+01 -.258E+01 0.152E+01   -.151E+00 -.215E+00 -.998E-01   0.100E-02 0.473E-03 0.213E-03
   0.244E+01 -.276E+01 0.139E+01   -.261E+01 0.258E+01 -.152E+01   0.151E+00 0.215E+00 0.998E-01   -.101E-02 -.503E-03 -.268E-03
   0.244E+01 -.276E+01 0.139E+01   -.261E+01 0.258E+01 -.152E+01   0.151E+00 0.215E+00 0.998E-01   -.102E-02 -.490E-03 -.242E-03
   -.103E+01 -.501E+01 0.342E+01   0.526E+00 0.483E+01 -.327E+01   0.540E+00 0.242E+00 -.132E+00   -.850E-03 0.694E-03 -.310E-03
   -.103E+01 -.501E+01 0.342E+01   0.526E+00 0.483E+01 -.327E+01   0.540E+00 0.242E+00 -.132E+00   -.833E-03 0.717E-03 -.313E-03
   0.103E+01 0.501E+01 -.342E+01   -.526E+00 -.483E+01 0.327E+01   -.540E+00 -.242E+00 0.132E+00   0.892E-03 -.741E-03 0.305E-03
   0.103E+01 0.501E+01 -.342E+01   -.526E+00 -.483E+01 0.327E+01   -.540E+00 -.242E+00 0.132E+00   0.852E-03 -.728E-03 0.299E-03
   -.284E+01 -.946E+00 0.457E+01   0.289E+01 0.961E+00 -.407E+01   -.543E-01 0.445E-01 -.512E+00   0.161E-04 -.594E-03 -.252E-03
   -.284E+01 -.946E+00 0.457E+01   0.289E+01 0.961E+00 -.407E+01   -.543E-01 0.446E-01 -.512E+00   0.505E-04 -.545E-03 -.249E-03
   0.284E+01 0.947E+00 -.457E+01   -.289E+01 -.961E+00 0.407E+01   0.543E-01 -.446E-01 0.512E+00   -.988E-05 0.550E-03 0.200E-03
   0.284E+01 0.946E+00 -.457E+01   -.289E+01 -.961E+00 0.407E+01   0.544E-01 -.446E-01 0.512E+00   -.116E-04 0.572E-03 0.217E-03
   0.275E+02 -.996E+01 -.481E+01   -.300E+02 0.118E+02 0.498E+01   0.256E+01 -.196E+01 -.152E+00   -.430E-02 0.180E-02 0.181E-02
   0.275E+02 -.996E+01 -.481E+01   -.300E+02 0.118E+02 0.498E+01   0.256E+01 -.196E+01 -.151E+00   -.419E-02 0.182E-02 0.133E-02
   -.275E+02 0.996E+01 0.481E+01   0.300E+02 -.118E+02 -.498E+01   -.256E+01 0.196E+01 0.151E+00   0.446E-02 -.139E-02 -.138E-02
   -.275E+02 0.996E+01 0.481E+01   0.300E+02 -.118E+02 -.498E+01   -.256E+01 0.196E+01 0.152E+00   0.392E-02 -.176E-02 -.140E-02
   -.122E+02 -.942E+01 -.127E+02   0.133E+02 0.956E+01 0.138E+02   -.111E+01 -.193E+00 -.103E+01   0.215E-02 -.267E-03 0.331E-02
   -.122E+02 -.942E+01 -.127E+02   0.133E+02 0.956E+01 0.138E+02   -.111E+01 -.192E+00 -.103E+01   0.229E-02 -.343E-03 0.328E-02
   0.122E+02 0.942E+01 0.127E+02   -.133E+02 -.956E+01 -.138E+02   0.111E+01 0.193E+00 0.103E+01   -.234E-02 0.339E-03 -.331E-02
   0.122E+02 0.942E+01 0.127E+02   -.133E+02 -.956E+01 -.138E+02   0.111E+01 0.193E+00 0.103E+01   -.222E-02 0.423E-03 -.322E-02
   0.159E+02 0.757E+00 -.104E+02   -.158E+02 -.594E+00 0.985E+01   -.196E+00 -.191E+00 0.648E+00   -.107E-02 -.132E-02 0.340E-03
   0.159E+02 0.757E+00 -.104E+02   -.158E+02 -.594E+00 0.985E+01   -.196E+00 -.191E+00 0.648E+00   -.136E-02 -.124E-02 0.339E-03
   -.159E+02 -.757E+00 0.104E+02   0.158E+02 0.594E+00 -.985E+01   0.196E+00 0.191E+00 -.648E+00   0.125E-02 0.130E-02 -.560E-03
   -.159E+02 -.757E+00 0.104E+02   0.158E+02 0.594E+00 -.985E+01   0.196E+00 0.191E+00 -.648E+00   0.150E-02 0.143E-02 -.147E-03
   0.720E+02 0.478E+02 0.637E+02   -.732E+02 -.502E+02 -.648E+02   0.120E+01 0.250E+01 0.108E+01   -.118E-01 -.138E-01 -.113E-01
[...]
   -.726E+02 -.483E+02 -.645E+02   0.738E+02 0.507E+02 0.655E+02   -.114E+01 -.244E+01 -.101E+01   -.323E-03 -.501E-03 -.485E-03
   0.423E+02 0.526E+01 -.758E+02   -.429E+02 -.522E+01 0.790E+02   0.670E+00 -.780E-01 -.314E+01   0.263E-03 -.416E-03 0.138E-03
   0.422E+02 0.503E+01 -.750E+02   -.429E+02 -.500E+01 0.782E+02   0.698E+00 -.677E-01 -.324E+01   0.255E-03 -.219E-03 -.429E-03
   -.423E+02 -.520E+01 0.760E+02   0.430E+02 0.516E+01 -.791E+02   -.697E+00 0.959E-01 0.313E+01   -.179E-03 0.347E-03 0.503E-03
   -.423E+02 -.490E+01 0.758E+02   0.430E+02 0.488E+01 -.789E+02   -.665E+00 -.324E-02 0.313E+01   -.168E-04 0.284E-03 -.820E-04
   0.478E+02 -.972E+02 0.268E+02   -.486E+02 0.991E+02 -.284E+02   0.807E+00 -.200E+01 0.159E+01   -.116E-03 0.388E-03 -.552E-04
   0.480E+02 -.977E+02 0.269E+02   -.488E+02 0.996E+02 -.285E+02   0.837E+00 -.190E+01 0.162E+01   0.309E-04 0.543E-03 -.251E-04
   -.478E+02 0.970E+02 -.266E+02   0.487E+02 -.989E+02 0.283E+02   -.833E+00 0.202E+01 -.162E+01   0.258E-03 -.883E-03 -.833E-04
   -.478E+02 0.980E+02 -.269E+02   0.486E+02 -.999E+02 0.285E+02   -.832E+00 0.188E+01 -.158E+01   0.174E-03 -.801E-05 -.177E-03
   -.653E+01 0.598E+02 0.529E+02   0.658E+01 -.640E+02 -.565E+02   -.299E-01 0.427E+01 0.367E+01   -.246E-03 -.365E-03 0.953E-04
   -.611E+01 0.595E+02 0.531E+02   0.616E+01 -.637E+02 -.567E+02   -.416E-01 0.425E+01 0.364E+01   -.278E-03 -.367E-03 0.205E-03
   0.571E+01 -.596E+02 -.530E+02   -.573E+01 0.638E+02 0.566E+02   0.314E-01 -.425E+01 -.362E+01   0.472E-03 0.401E-03 -.194E-03
   0.594E+01 -.597E+02 -.533E+02   -.599E+01 0.640E+02 0.569E+02   0.492E-01 -.427E+01 -.362E+01   -.410E-04 0.144E-03 -.529E-05
   -.911E+02 0.453E+02 0.325E+02   0.933E+02 -.469E+02 -.339E+02   -.215E+01 0.166E+01 0.140E+01   -.189E-03 -.178E-03 0.132E-03
   -.914E+02 0.455E+02 0.322E+02   0.935E+02 -.471E+02 -.336E+02   -.213E+01 0.166E+01 0.138E+01   -.376E-03 0.478E-04 0.334E-03
   0.920E+02 -.457E+02 -.328E+02   -.942E+02 0.473E+02 0.342E+02   0.206E+01 -.158E+01 -.135E+01   -.185E-03 0.292E-03 -.114E-03
   0.913E+02 -.453E+02 -.322E+02   -.935E+02 0.469E+02 0.336E+02   0.215E+01 -.163E+01 -.141E+01   -.456E-04 -.203E-04 0.857E-04
   0.509E+01 0.588E+01 -.103E+03   -.480E+01 -.622E+01 0.106E+03   -.272E+00 0.373E+00 -.312E+01   -.551E-06 -.381E-03 -.582E-03
   0.457E+01 0.553E+01 -.103E+03   -.427E+01 -.585E+01 0.106E+03   -.253E+00 0.312E+00 -.313E+01   0.136E-03 -.140E-03 -.762E-03
   -.517E+01 -.502E+01 0.103E+03   0.488E+01 0.533E+01 -.106E+03   0.268E+00 -.323E+00 0.317E+01   -.129E-04 -.110E-03 0.846E-03
   -.483E+01 -.575E+01 0.103E+03   0.454E+01 0.605E+01 -.106E+03   0.259E+00 -.290E+00 0.307E+01   -.859E-04 -.611E-04 0.393E-03
   -.791E+01 -.912E+02 0.100E+02   0.725E+01 0.941E+02 -.107E+02   0.671E+00 -.288E+01 0.635E+00   0.739E-04 0.678E-03 -.128E-03
   -.742E+01 -.908E+02 0.101E+02   0.678E+01 0.936E+02 -.108E+02   0.653E+00 -.290E+01 0.682E+00   -.257E-03 0.963E-03 -.286E-03
   0.778E+01 0.908E+02 -.101E+02   -.713E+01 -.937E+02 0.107E+02   -.672E+00 0.288E+01 -.668E+00   -.880E-04 -.666E-03 0.248E-03
   0.766E+01 0.906E+02 -.978E+01   -.700E+01 -.935E+02 0.105E+02   -.666E+00 0.295E+01 -.697E+00   0.992E-04 -.129E-03 -.625E-04
   0.211E+02 0.997E+00 -.938E+02   -.217E+02 -.131E+01 0.969E+02   0.655E+00 0.289E+00 -.296E+01   0.277E-03 0.107E-03 -.119E-03
   0.210E+02 0.124E+01 -.936E+02   -.216E+02 -.154E+01 0.966E+02   0.660E+00 0.279E+00 -.302E+01   0.370E-03 0.512E-04 -.302E-03
   -.207E+02 -.107E+01 0.942E+02   0.213E+02 0.141E+01 -.972E+02   -.587E+00 -.321E+00 0.293E+01   -.641E-03 0.197E-03 0.170E-03
   -.211E+02 -.174E+01 0.938E+02   0.218E+02 0.207E+01 -.968E+02   -.655E+00 -.297E+00 0.299E+01   -.390E-03 0.180E-03 0.300E-03
   0.789E+01 -.929E+02 0.549E+01   -.728E+01 0.957E+02 -.594E+01   -.643E+00 -.284E+01 0.458E+00   0.405E-03 0.573E-03 -.101E-03
   0.770E+01 -.928E+02 0.536E+01   -.710E+01 0.956E+02 -.581E+01   -.649E+00 -.288E+01 0.515E+00   0.279E-03 -.513E-04 -.345E-03
   -.778E+01 0.934E+02 -.569E+01   0.717E+01 -.962E+02 0.613E+01   0.641E+00 0.277E+01 -.454E+00   -.207E-03 -.771E-03 0.251E-03
   -.735E+01 0.933E+02 -.539E+01   0.674E+01 -.962E+02 0.585E+01   0.646E+00 0.281E+01 -.505E+00   -.555E-03 -.300E-03 0.160E-03
   -.799E+02 0.571E+02 0.434E+02   0.813E+02 -.582E+02 -.445E+02   -.150E+01 0.108E+01 0.110E+01   0.216E-03 -.449E-04 -.307E-03
   -.790E+02 0.570E+02 0.428E+02   0.805E+02 -.581E+02 -.439E+02   -.155E+01 0.113E+01 0.115E+01   0.260E-03 -.358E-03 -.348E-03
   0.796E+02 -.568E+02 -.429E+02   -.810E+02 0.579E+02 0.440E+02   0.155E+01 -.110E+01 -.111E+01   -.367E-05 -.880E-04 -.175E-03
   0.795E+02 -.574E+02 -.429E+02   -.809E+02 0.586E+02 0.440E+02   0.151E+01 -.112E+01 -.114E+01   -.156E-03 0.437E-03 0.555E-04
   0.916E+02 0.194E+02 0.442E+02   -.935E+02 -.193E+02 -.462E+02   0.190E+01 -.718E-01 0.204E+01   0.169E-03 -.495E-04 -.311E-03
   0.907E+02 0.190E+02 0.439E+02   -.927E+02 -.190E+02 -.459E+02   0.201E+01 -.310E-01 0.205E+01   0.289E-03 -.619E-04 -.145E-03
   -.914E+02 -.195E+02 -.443E+02   0.934E+02 0.194E+02 0.464E+02   -.187E+01 0.700E-01 -.202E+01   0.290E-03 0.467E-03 0.428E-03
   -.911E+02 -.195E+02 -.438E+02   0.931E+02 0.195E+02 0.458E+02   -.194E+01 0.344E-01 -.207E+01   -.281E-03 0.173E-03 0.287E-03
 -----------------------------------------------------------------------------------------------
   0.198E-01 0.913E-01 -.101E+00   0.426E-13 -.117E-12 -.384E-12   -.196E-01 -.940E-01 0.102E+00   -.553E-03 -.234E-03 -.806E-03
 
 
 POSITION                                       TOTAL-FORCE (eV/Angst)
 -----------------------------------------------------------------------------------
      4.92488      5.45911      8.32338        -0.011338     -0.016668      0.025253
      6.15254     11.35882      6.91686        -0.032877     -0.006973      0.023748
      7.97594      0.40805     -2.16965         0.031693      0.000509     -0.025485
      9.20268      6.31376     -3.58140         0.014354      0.005046     -0.017223
      5.09427      2.80215     -1.21904        -0.003072      0.016763      0.010715
      6.31916      8.72281     -2.63163        -0.001156     -0.009827      0.009982
      7.81964      3.04743      7.37097        -0.004387     -0.021642     -0.005893
      9.02799      8.95052      5.96323         0.009377      0.005641     -0.002832
     10.28241      2.83443     -1.11376         0.000327      0.002259      0.027274
     11.50541      8.73009     -2.52227         0.009240      0.031232      0.031290
      2.61623      3.01213      7.27090         0.006826      0.016604     -0.019291
      3.84544      8.92989      5.85351        -0.013781     -0.005823     -0.027908
      0.52181      0.94851      9.13832        -0.012793      0.028212      0.044051
      1.74302      6.86133      7.73095        -0.012408      0.016499      0.027064
     12.39494      4.89515     -2.99142        -0.018780      0.011625     -0.028888
     13.60501     10.81963     -4.39254         0.015856     -0.039986     -0.033658
      8.38362      1.71141      4.74166        -0.003906     -0.033807      0.057006
      9.60491      7.61434      3.35294         0.021824     -0.037969      0.010322
      4.51341      4.12981      1.39837         0.002733      0.044165     -0.027812
      5.75226     10.03261     -0.00639        -0.027714      0.032113     -0.020414
      4.36276      1.66834      4.27218         0.030403      0.067982      0.007824
      5.58716      7.58865      2.85817         0.018627      0.061657      0.006331
      8.53651      4.17133      1.88258        -0.013192     -0.060820     -0.004517
      9.75170     10.09741      0.46677         0.000028     -0.067502      0.012651
     10.95722      4.18106      5.69128         0.006918      0.031281     -0.022093
     12.19392     10.08913      4.27767        -0.017732      0.040652      0.003653
      1.93977      1.68109      0.45929        -0.000129     -0.044380      0.018779
      3.15916      7.59189     -0.95598         0.000338     -0.041484      0.025438
      3.62056      5.60232      4.48207         0.047451      0.004529     -0.018175
      4.83747     11.51343      3.07155         0.013881      0.014633      0.018932
      9.28824      0.24827      1.67537        -0.045036     -0.010779     -0.026600
     10.50981      6.15959      0.26241        -0.050060     -0.069784     -0.000362
      7.28440      5.64896      5.11811        -0.003294     -0.067971     -0.049956
      8.50289     11.55436      3.70399         0.037596     -0.024321      0.000604
      5.62179      0.21068      1.04199         0.008601     -0.063644     -0.044862
      6.84432      6.11323     -0.37125        -0.024625      0.043370      0.036854
      2.73196      4.08789     10.09177        -0.003800      0.019524     -0.091094
      3.95286      9.99952      8.68089        -0.026019     -0.063995     -0.066421
     10.17956      1.76229     -3.93443        -0.092494      0.026948      0.063497
     11.39443      7.67060     -5.34746         0.021065      0.096792      0.071990
      2.76735      4.27139      3.19762         0.008347      0.007326      0.000822
      3.99047     10.17683      1.78578         0.008295      0.067881      0.022475
     10.13318      1.58111      2.96042         0.024835     -0.011379      0.018031
     11.36035      7.49160      1.54290         0.000142     -0.020277      0.040681
      3.19090      5.32261      6.43651        -0.005430     -0.043923      0.016762
      4.40542     11.23453      5.03000         0.021494     -0.036539     -0.052173
      9.72332      0.53014     -0.27730        -0.018470      0.054538     -0.025243
     10.93940      6.44545     -1.69155         0.015991     -0.018689     -0.025936
      2.21386      1.60982      5.32255        -0.007630     -0.061843     -0.012861
      3.43447      7.51433      3.90423         0.005145      0.010083      0.005949
     10.69087      4.24107      0.83478        -0.003930      0.072152     -0.010509
     11.91180     10.15633     -0.57666        -0.012301     -0.018282      0.024638
      5.61144      4.80495      4.02887         0.021759      0.003804      0.080882
      6.82850     10.71798      2.62046         0.003422     -0.033369      0.045316
      7.29432      1.04662      2.12454         0.014652      0.024879     -0.051751
      8.51712      6.95284      0.71120        -0.003944      0.032650     -0.027779
      8.74194      4.46361      4.29691        -0.009438      0.049705     -0.005729
      9.95808     10.36519      2.88676        -0.016912      0.045256     -0.010811
      4.16854      1.39469      1.85496        -0.054858      0.007090      0.041786
      5.38984      7.30298      0.44757        -0.000998     -0.040858     -0.006160
      7.13316      5.38000      7.11342         0.014324      0.027496      0.013492
      8.34689     11.29383      5.70089         0.041178     -0.008232      0.011943
      5.77414      0.46618     -0.95758        -0.018444     -0.009044      0.017483
      6.99789      6.37472     -2.36546        -0.026569      0.011218     -0.056674
      6.18099      1.70017      5.96689         0.010536      0.000292     -0.019309
      7.39849      7.61609      4.55574         0.007881     -0.021867      0.005477
      6.72319      4.14749      0.19091        -0.015737     -0.003145      0.007995
      7.94452     10.06065     -1.21811        -0.001390      0.051529     -0.018948
      2.85666      3.81366     -0.53622         0.035272     -0.024878      0.059801
      4.08139      9.72341     -1.94493         0.041325     -0.018694      0.010007
     10.04311      2.04225      6.69445        -0.010592      0.019311     -0.068593
     11.26746      7.94858      5.27923        -0.031457      0.032083     -0.027063
      1.75493      0.19765     11.16227        -0.036525     -0.007527      0.011566
      2.97514      6.10935      9.74415        -0.039595     -0.031535      0.056268
     11.15247      5.65466     -5.00607         0.035603     -0.044593     -0.014389
     12.37653     11.56477     -6.41109         0.036403     -0.005647     -0.049533
      4.29787      3.11936      9.15020        -0.048815     -0.045754      0.019131
      5.51824      9.02597      7.73360        -0.086291     -0.018867      0.056674
      8.60701      2.72991     -2.99289         0.089773      0.041563     -0.031705
      9.82842      8.64204     -4.40180         0.062716      0.031221     -0.050129
      0.99437      3.47440      9.16571        -0.066437     -0.025125      0.015064
      2.21062      9.38311      7.75519         0.014682     -0.000684      0.022812
     11.91355      2.37971     -3.01015         0.088386      0.025216      0.006341
     13.13172      8.29020     -4.41799         0.034710      0.001932     -0.045236
 -----------------------------------------------------------------------------------
    total drift:                               -0.000343     -0.002862      0.000638


--------------------------------------------------------------------------------------------------------



  FREE ENERGIE OF THE ION-ELECTRON SYSTEM (eV)
  ---------------------------------------------------
  free  energy   TOTEN  =      -369.42161257 eV

  energy  without entropy=     -369.42161257  energy(sigma->0) =     -369.42161257
 
 d Force = 0.2895075E-02[ 0.259E-02, 0.320E-02]  d Energy = 0.2876729E-02 0.183E-04
 d Force =-0.1518066E+00[-0.154E+00,-0.149E+00]  d Ewald  =-0.1518058E+00-0.791E-06


--------------------------------------------------------------------------------------------------------


    POTLOK:  cpu time    0.0730: real time    0.0730


--------------------------------------------------------------------------------------------------------


 stress matrix after NEB project (eV)
     -0.15083     -0.72001      0.22466
     -0.72001     -0.38591      1.01286
      0.22466      1.01286      0.61692
  FORCES: max atom, RMS     0.122454    0.058573
  FORCE total and by dimension    0.536831    0.096792
  Stress total and by dimension    1.934370    1.012857

  ENERGY OF THE ELECTRON-ION-THERMOSTAT SYSTEM (eV)
  ---------------------------------------------------
% ion-electron   TOTEN  =      -369.421613  see above
  kinetic energy EKIN   =         0.031362
  kin. lattice  EKIN_LAT=         0.000000  (temperature    2.92 K)
  nose potential ES     =        -0.283118
  nose kinetic   EPS    =         0.212722
  ---------------------------------------------------
  total energy   ETOTAL =      -369.460647 eV

  maximum distance moved by ions :      0.43E-03


 mean value of Nose-termostat <S>:     0.957 mean value of <T> :     2.923
 mean temperature <T/S>/<1/S>  :     2.923

    WAVPRE:  cpu time    0.0850: real time    0.0863
 FEWALD executed in parallel
    FEWALD:  cpu time    0.0040: real time    0.0024
    GENKIN:  cpu time    0.0000: real time    0.0009

 real space projection operators:
  total allocation   :      15094.69 KBytes
  max/ min on nodes  :       3775.05       3771.71

    ORTHCH:  cpu time    0.0900: real time    0.0899
 Prediction of Wavefunctions ALPHA= 2.035 BETA=-1.043
    POTLOK:  cpu time    0.0700: real time    0.0707
    EDDIAG:  cpu time    0.1410: real time    0.1404
     LOOP+:  cpu time    4.4073: real time    4.4597
    4ORBIT:  cpu time    0.0000: real time    0.0000
 


 total charge     
 
# of ion     s       p       d       tot
----------------------------------------
  1        0.070   0.126   0.000   0.196
  2        0.070   0.127   0.000   0.197
  3        0.070   0.126   0.000   0.196
  4        0.070   0.127   0.000   0.197
  5        0.082   0.149   0.000   0.231
  6        0.082   0.148   0.000   0.229
  7        0.082   0.150   0.000   0.232
  8        0.082   0.148   0.000   0.230
  9        0.077   0.136   0.000   0.213
 10        0.078   0.137   0.000   0.215
 11        0.077   0.136   0.000   0.213
 12        0.077   0.135   0.000   0.212
 13        0.074   0.129   0.000   0.203
 14        0.074   0.129   0.000   0.203
 15        0.073   0.128   0.000   0.201
 16        0.074   0.129   0.000   0.203
 17        0.069   0.115   0.000   0.184
 18        0.068   0.114   0.000   0.183
 19        0.069   0.116   0.000   0.185
 20        0.069   0.116   0.000   0.185
 21        0.079   0.133   0.000   0.212
 22        0.079   0.134   0.000   0.213
 23        0.079   0.133   0.000   0.212
 24        0.079   0.134   0.000   0.213
 25        0.076   0.131   0.000   0.207
 26        0.076   0.130   0.000   0.205
 27        0.076   0.131   0.000   0.207
 28        0.076   0.130   0.000   0.206
 29        0.978   1.373   0.000   2.351
 30        0.978   1.371   0.000   2.349
 31        0.978   1.374   0.000   2.352
 32        0.978   1.373   0.000   2.351
 33        0.978   1.368   0.000   2.346
 34        0.978   1.369   0.000   2.347
 35        0.978   1.369   0.000   2.348
 36        0.978   1.370   0.000   2.348
 37        0.971   1.368   0.000   2.338
 38        0.971   1.365   0.000   2.336
 39        0.971   1.368   0.000   2.338
 40        0.971   1.367   0.000   2.338
 41        1.342   2.414   0.000   3.757
 42        1.343   2.411   0.000   3.754
 43        1.343   2.414   0.000   3.757
 44        1.343   2.413   0.000   3.756
 45        1.336   2.438   0.000   3.774
 46        1.336   2.436   0.000   3.773
 47        1.336   2.439   0.000   3.775
 48        1.336   2.439   0.000   3.775
 49        1.348   2.415   0.000   3.763
 50        1.348   2.416   0.000   3.764
 51        1.348   2.414   0.000   3.762
 52        1.348   2.416   0.000   3.764
 53        1.366   2.337   0.000   3.703
 54        1.365   2.339   0.000   3.704
 55        1.365   2.339   0.000   3.705
 56        1.365   2.339   0.000   3.705
 57        1.340   2.413   0.000   3.753
 58        1.340   2.412   0.000   3.752
 59        1.340   2.416   0.000   3.756
 60        1.340   2.414   0.000   3.753
 61        1.339   2.426   0.000   3.765
 62        1.339   2.426   0.000   3.765
 63        1.339   2.425   0.000   3.764
 64        1.339   2.426   0.000   3.765
 65        1.339   2.424   0.000   3.763
 66        1.339   2.425   0.000   3.763
 67        1.338   2.425   0.000   3.764
 68        1.338   2.425   0.000   3.763
 69        1.333   2.435   0.000   3.768
 70        1.333   2.433   0.000   3.766
 71        1.333   2.434   0.000   3.767
 72        1.333   2.433   0.000   3.766
 73        1.336   2.440   0.000   3.776
 74        1.336   2.440   0.000   3.776
 75        1.336   2.442   0.000   3.778
 76        1.336   2.440   0.000   3.776
 77        1.343   2.418   0.000   3.761
 78        1.343   2.417   0.000   3.760
 79        1.343   2.418   0.000   3.761
 80        1.343   2.418   0.000   3.761
 81        1.338   2.419   0.000   3.757
 82        1.338   2.417   0.000   3.756
 83        1.338   2.420   0.000   3.759
 84        1.338   2.417   0.000   3.756
------------------------------------------------
tot       72.855 126.430   0.000 199.286
 

 total amount of memory used by VASP on root node    54578. kBytes
========================================================================

   base      :      30000. kBytes
   nonlr-proj:       4637. kBytes
   fftplans  :       4391. kBytes
   grid      :       8300. kBytes
   one-center:         32. kBytes
   wavefun   :       7218. kBytes
 
  
  
 General timing and accounting informations for this job:
 ========================================================
  
                  Total CPU time used (sec):       54.196
                            User time (sec):       50.536
                          System time (sec):        3.659
                         Elapsed time (sec):       55.356
  
                   Maximum memory used (kb):      112432.
                   Average memory used (kb):           0.
  
                          Minor page faults:        76830
                          Major page faults:           23
                 Voluntary context switches:         1309
