       N       E                     dE             d eps       ncg     rms          rms(c)
DAV:   1     0.703944930940E+01    0.70394E+01   -0.19464E+03  8192   0.343E+01
DAV:   2    -0.139346823929E+01   -0.84329E+01   -0.83568E+01 12288   0.403E+00
DAV:   3    -0.140089696347E+01   -0.74287E-02   -0.74302E-02  8192   0.204E-01
DAV:   4    -0.140090631749E+01   -0.93540E-05   -0.93686E-05 16384   0.693E-03
DAV:   5    -0.140090631776E+01   -0.26540E-09   -0.15989E-10  8192   0.104E-05    0.227E+00
RMM:   6    -0.173205760878E+01   -0.33115E+00   -0.72387E-02  8192   0.154E-01    0.128E+00
RMM:   7    -0.201443785221E+01   -0.28238E+00   -0.35841E-02  8192   0.122E-01    0.369E-01
RMM:   8    -0.214093866532E+01   -0.12650E+00   -0.17600E-02  8192   0.693E-02    0.127E-01
RMM:   9    -0.215082349171E+01   -0.98848E-02   -0.12921E-03  8192   0.226E-02    0.592E-02
RMM:  10    -0.215146727548E+01   -0.64378E-03   -0.26061E-04  8192   0.111E-02
   1 F= -.21514673E+01 E0= -.21514673E+01  d E =-.215147E+01  mag=     4.0068
       N       E                     dE             d eps       ncg     rms          rms(c)
DAV:   1    -0.228829248386E+01   -0.13747E+00   -0.18848E+00 10496   0.409E-01    0.980E-01
RMM:   2    -0.221735296379E+01    0.70940E-01   -0.10290E-02  8192   0.567E-02    0.511E-01
RMM:   3    -0.215060301952E+01    0.66750E-01   -0.14132E-02  8192   0.596E-02    0.138E-01
RMM:   4    -0.220312681258E+01   -0.52524E-01   -0.62735E-03  8192   0.401E-02    0.596E-02
RMM:   5    -0.221199904183E+01   -0.88722E-02   -0.47942E-04  8192   0.139E-02    0.276E-02
RMM:   6    -0.221747706815E+01   -0.54780E-02   -0.14386E-04  8192   0.880E-03    0.161E-02
RMM:   7    -0.221859674176E+01   -0.11197E-02   -0.78013E-05  8192   0.630E-03    0.921E-03
RMM:   8    -0.221878210095E+01   -0.18536E-03   -0.18785E-05  8192   0.349E-03    0.491E-03
RMM:   9    -0.221931909298E+01   -0.53699E-03   -0.72773E-06  8192   0.162E-03    0.268E-03
RMM:  10    -0.221955173113E+01   -0.23264E-03   -0.36802E-06  8191   0.111E-03
   2 F= -.22195517E+01 E0= -.22195517E+01  d E =-.680845E-01  mag=     4.0000
       N       E                     dE             d eps       ncg     rms          rms(c)
DAV:   1    -0.316959309399E+01   -0.95027E+00   -0.19290E+01  9344   0.136E+00    0.314E+00
RMM:   2    -0.172018293853E+01    0.14494E+01   -0.19613E-01  8192   0.236E-01    0.142E+00
RMM:   3    -0.204637227740E+01   -0.32619E+00   -0.22694E-01  8192   0.239E-01    0.532E-01
RMM:   4    -0.239495964246E+01   -0.34859E+00   -0.19537E-01  8192   0.170E-01    0.220E-01
RMM:   5    -0.243755282820E+01   -0.42593E-01   -0.76494E-03  8192   0.496E-02    0.106E-01
RMM:   6    -0.245384902743E+01   -0.16296E-01   -0.79556E-04  8192   0.205E-02    0.597E-02
RMM:   7    -0.246830766093E+01   -0.14459E-01   -0.10299E-03  8192   0.202E-02    0.340E-02
RMM:   8    -0.246689303109E+01    0.14146E-02   -0.15154E-04  8192   0.901E-03    0.155E-02
RMM:   9    -0.246889137035E+01   -0.19983E-02   -0.56301E-05  8192   0.570E-03    0.144E-02
RMM:  10    -0.246914398112E+01   -0.25261E-03   -0.30098E-05  8192   0.347E-03
   3 F= -.24691440E+01 E0= -.24691440E+01  d E =-.317677E+00  mag=     4.0000
       N       E                     dE             d eps       ncg     rms          rms(c)
DAV:   1    -0.690154619460E+01   -0.44327E+01   -0.10144E+02  9856   0.340E+00    0.772E+00
RMM:   2    -0.332844236562E+01    0.35731E+01   -0.61238E-01  8192   0.488E-01    0.375E+00
RMM:   3    -0.232620533798E+01    0.10022E+01   -0.67498E-01  8192   0.444E-01    0.130E+00
RMM:   4    -0.310893338163E+01   -0.78273E+00   -0.78965E-02  8192   0.195E-01    0.614E-01
RMM:   5    -0.321743055578E+01   -0.10850E+00   -0.11156E-02  8192   0.728E-02    0.796E-01
RMM:   6    -0.327976095815E+01   -0.62330E-01   -0.30354E-03  8192   0.386E-02    0.854E-01
RMM:   7    -0.340337072568E+01   -0.12361E+00   -0.72175E-03  8192   0.503E-02    0.589E-01
RMM:   8    -0.347695337351E+01   -0.73583E-01   -0.10548E-02  8192   0.603E-02    0.195E-01
RMM:   9    -0.350846830738E+01   -0.31515E-01   -0.15609E-02  8192   0.738E-02    0.199E-01
RMM:  10    -0.350789443403E+01    0.57387E-03   -0.21768E-03  8192   0.300E-02
   4 F= -.35078944E+01 E0= -.35078944E+01  d E =-.135643E+01  mag=    -0.4164
