ESCALE ; pCOHP file generated by LOBSTER. Energy is shifted such that the Fermi level lies at 0 eV.
       689          1         11  -5.33675e+00   3.55214e+00  -8.92304e-01 
Average
No.1:NaCl_1->NaCl_1(2.8473125412856759)
No.1:NaCl_1[1a1]->NaCl_1[1a1](2.8473125412856759)
No.1:NaCl_1[1a1]->NaCl_1[1e](2.8473125412856759)
No.1:NaCl_1[1a1]->NaCl_1[2e](2.8473125412856759)
No.1:NaCl_1[1a1]->NaCl_1[2a1](2.8473125412856759)
No.1:NaCl_1[1a1]->NaCl_1[3a1](2.8473125412856759)
No.1:NaCl_1[1a1]->NaCl_1[3e](2.8473125412856759)
No.1:NaCl_1[1a1]->NaCl_1[4e](2.8473125412856759)
No.1:NaCl_1[1a1]->NaCl_1[4a1](2.8473125412856759)
No.1:NaCl_1[1e]->NaCl_1[1a1](2.8473125412856759)
No.1:NaCl_1[1e]->NaCl_1[1e](2.8473125412856759)
No.1:NaCl_1[1e]->NaCl_1[2e](2.8473125412856759)
No.1:NaCl_1[1e]->NaCl_1[2a1](2.8473125412856759)
No.1:NaCl_1[1e]->NaCl_1[3a1](2.8473125412856759)
No.1:NaCl_1[1e]->NaCl_1[3e](2.8473125412856759)
No.1:NaCl_1[1e]->NaCl_1[4e](2.8473125412856759)
No.1:NaCl_1[1e]->NaCl_1[4a1](2.8473125412856759)
No.1:NaCl_1[2e]->NaCl_1[1a1](2.8473125412856759)
No.1:NaCl_1[2e]->NaCl_1[1e](2.8473125412856759)
No.1:NaCl_1[2e]->NaCl_1[2e](2.8473125412856759)
No.1:NaCl_1[2e]->NaCl_1[2a1](2.8473125412856759)
No.1:NaCl_1[2e]->NaCl_1[3a1](2.8473125412856759)
No.1:NaCl_1[2e]->NaCl_1[3e](2.8473125412856759)
No.1:NaCl_1[2e]->NaCl_1[4e](2.8473125412856759)
No.1:NaCl_1[2e]->NaCl_1[4a1](2.8473125412856759)
No.1:NaCl_1[2a1]->NaCl_1[1a1](2.8473125412856759)
No.1:NaCl_1[2a1]->NaCl_1[1e](2.8473125412856759)
No.1:NaCl_1[2a1]->NaCl_1[2e](2.8473125412856759)
No.1:NaCl_1[2a1]->NaCl_1[2a1](2.8473125412856759)
No.1:NaCl_1[2a1]->NaCl_1[3a1](2.8473125412856759)
No.1:NaCl_1[2a1]->NaCl_1[3e](2.8473125412856759)
No.1:NaCl_1[2a1]->NaCl_1[4e](2.8473125412856759)
No.1:NaCl_1[2a1]->NaCl_1[4a1](2.8473125412856759)
No.1:NaCl_1[3a1]->NaCl_1[1a1](2.8473125412856759)
No.1:NaCl_1[3a1]->NaCl_1[1e](2.8473125412856759)
No.1:NaCl_1[3a1]->NaCl_1[2e](2.8473125412856759)
No.1:NaCl_1[3a1]->NaCl_1[2a1](2.8473125412856759)
No.1:NaCl_1[3a1]->NaCl_1[3a1](2.8473125412856759)
No.1:NaCl_1[3a1]->NaCl_1[3e](2.8473125412856759)
No.1:NaCl_1[3a1]->NaCl_1[4e](2.8473125412856759)
No.1:NaCl_1[3a1]->NaCl_1[4a1](2.8473125412856759)
No.1:NaCl_1[3e]->NaCl_1[1a1](2.8473125412856759)
No.1:NaCl_1[3e]->NaCl_1[1e](2.8473125412856759)
No.1:NaCl_1[3e]->NaCl_1[2e](2.8473125412856759)
No.1:NaCl_1[3e]->NaCl_1[2a1](2.8473125412856759)
No.1:NaCl_1[3e]->NaCl_1[3a1](2.8473125412856759)
No.1:NaCl_1[3e]->NaCl_1[3e](2.8473125412856759)
No.1:NaCl_1[3e]->NaCl_1[4e](2.8473125412856759)
No.1:NaCl_1[3e]->NaCl_1[4a1](2.8473125412856759)
No.1:NaCl_1[4e]->NaCl_1[1a1](2.8473125412856759)
No.1:NaCl_1[4e]->NaCl_1[1e](2.8473125412856759)
No.1:NaCl_1[4e]->NaCl_1[2e](2.8473125412856759)
No.1:NaCl_1[4e]->NaCl_1[2a1](2.8473125412856759)
No.1:NaCl_1[4e]->NaCl_1[3a1](2.8473125412856759)
No.1:NaCl_1[4e]->NaCl_1[3e](2.8473125412856759)
No.1:NaCl_1[4e]->NaCl_1[4e](2.8473125412856759)
No.1:NaCl_1[4e]->NaCl_1[4a1](2.8473125412856759)
No.1:NaCl_1[4a1]->NaCl_1[1a1](2.8473125412856759)
No.1:NaCl_1[4a1]->NaCl_1[1e](2.8473125412856759)
No.1:NaCl_1[4a1]->NaCl_1[2e](2.8473125412856759)
No.1:NaCl_1[4a1]->NaCl_1[2a1](2.8473125412856759)
No.1:NaCl_1[4a1]->NaCl_1[3a1](2.8473125412856759)
No.1:NaCl_1[4a1]->NaCl_1[3e](2.8473125412856759)
No.1:NaCl_1[4a1]->NaCl_1[4e](2.8473125412856759)
No.1:NaCl_1[4a1]->NaCl_1[4a1](2.8473125412856759)
No.2:NaCl_1->NaCl_1(2.8473125412856759)
No.2:NaCl_1[1a1]->NaCl_1[1a1](2.8473125412856759)
No.2:NaCl_1[1a1]->NaCl_1[1e](2.8473125412856759)
No.2:NaCl_1[1a1]->NaCl_1[2e](2.8473125412856759)
No.2:NaCl_1[1a1]->NaCl_1[2a1](2.8473125412856759)
No.2:NaCl_1[1a1]->NaCl_1[3a1](2.8473125412856759)
No.2:NaCl_1[1a1]->NaCl_1[3e](2.8473125412856759)
No.2:NaCl_1[1a1]->NaCl_1[4e](2.8473125412856759)
No.2:NaCl_1[1a1]->NaCl_1[4a1](2.8473125412856759)
No.2:NaCl_1[1e]->NaCl_1[1a1](2.8473125412856759)
No.2:NaCl_1[1e]->NaCl_1[1e](2.8473125412856759)
No.2:NaCl_1[1e]->NaCl_1[2e](2.8473125412856759)
No.2:NaCl_1[1e]->NaCl_1[2a1](2.8473125412856759)
No.2:NaCl_1[1e]->NaCl_1[3a1](2.8473125412856759)
No.2:NaCl_1[1e]->NaCl_1[3e](2.8473125412856759)
No.2:NaCl_1[1e]->NaCl_1[4e](2.8473125412856759)
No.2:NaCl_1[1e]->NaCl_1[4a1](2.8473125412856759)
No.2:NaCl_1[2e]->NaCl_1[1a1](2.8473125412856759)
No.2:NaCl_1[2e]->NaCl_1[1e](2.8473125412856759)
No.2:NaCl_1[2e]->NaCl_1[2e](2.8473125412856759)
No.2:NaCl_1[2e]->NaCl_1[2a1](2.8473125412856759)
No.2:NaCl_1[2e]->NaCl_1[3a1](2.8473125412856759)
No.2:NaCl_1[2e]->NaCl_1[3e](2.8473125412856759)
No.2:NaCl_1[2e]->NaCl_1[4e](2.8473125412856759)
No.2:NaCl_1[2e]->NaCl_1[4a1](2.8473125412856759)
No.2:NaCl_1[2a1]->NaCl_1[1a1](2.8473125412856759)
No.2:NaCl_1[2a1]->NaCl_1[1e](2.8473125412856759)
No.2:NaCl_1[2a1]->NaCl_1[2e](2.8473125412856759)
No.2:NaCl_1[2a1]->NaCl_1[2a1](2.8473125412856759)
No.2:NaCl_1[2a1]->NaCl_1[3a1](2.8473125412856759)
No.2:NaCl_1[2a1]->NaCl_1[3e](2.8473125412856759)
No.2:NaCl_1[2a1]->NaCl_1[4e](2.8473125412856759)
No.2:NaCl_1[2a1]->NaCl_1[4a1](2.8473125412856759)
No.2:NaCl_1[3a1]->NaCl_1[1a1](2.8473125412856759)
No.2:NaCl_1[3a1]->NaCl_1[1e](2.8473125412856759)
No.2:NaCl_1[3a1]->NaCl_1[2e](2.8473125412856759)
No.2:NaCl_1[3a1]->NaCl_1[2a1](2.8473125412856759)
No.2:NaCl_1[3a1]->NaCl_1[3a1](2.8473125412856759)
No.2:NaCl_1[3a1]->NaCl_1[3e](2.8473125412856759)
No.2:NaCl_1[3a1]->NaCl_1[4e](2.8473125412856759)
No.2:NaCl_1[3a1]->NaCl_1[4a1](2.8473125412856759)
No.2:NaCl_1[3e]->NaCl_1[1a1](2.8473125412856759)
No.2:NaCl_1[3e]->NaCl_1[1e](2.8473125412856759)
No.2:NaCl_1[3e]->NaCl_1[2e](2.8473125412856759)
No.2:NaCl_1[3e]->NaCl_1[2a1](2.8473125412856759)
No.2:NaCl_1[3e]->NaCl_1[3a1](2.8473125412856759)
No.2:NaCl_1[3e]->NaCl_1[3e](2.8473125412856759)
No.2:NaCl_1[3e]->NaCl_1[4e](2.8473125412856759)
No.2:NaCl_1[3e]->NaCl_1[4a1](2.8473125412856759)
No.2:NaCl_1[4e]->NaCl_1[1a1](2.8473125412856759)
No.2:NaCl_1[4e]->NaCl_1[1e](2.8473125412856759)
No.2:NaCl_1[4e]->NaCl_1[2e](2.8473125412856759)
No.2:NaCl_1[4e]->NaCl_1[2a1](2.8473125412856759)
No.2:NaCl_1[4e]->NaCl_1[3a1](2.8473125412856759)
No.2:NaCl_1[4e]->NaCl_1[3e](2.8473125412856759)
No.2:NaCl_1[4e]->NaCl_1[4e](2.8473125412856759)
No.2:NaCl_1[4e]->NaCl_1[4a1](2.8473125412856759)
No.2:NaCl_1[4a1]->NaCl_1[1a1](2.8473125412856759)
No.2:NaCl_1[4a1]->NaCl_1[1e](2.8473125412856759)
No.2:NaCl_1[4a1]->NaCl_1[2e](2.8473125412856759)
No.2:NaCl_1[4a1]->NaCl_1[2a1](2.8473125412856759)
No.2:NaCl_1[4a1]->NaCl_1[3a1](2.8473125412856759)
No.2:NaCl_1[4a1]->NaCl_1[3e](2.8473125412856759)
No.2:NaCl_1[4a1]->NaCl_1[4e](2.8473125412856759)
No.2:NaCl_1[4a1]->NaCl_1[4a1](2.8473125412856759)
No.3:NaCl_1->Na2_2(2.8473125412856759)
No.3:NaCl_1[1a1]->Na2_2[1a1u](2.8473125412856759)
No.3:NaCl_1[1a1]->Na2_2[1e1g](2.8473125412856759)
No.3:NaCl_1[1a1]->Na2_2[2e1g](2.8473125412856759)
No.3:NaCl_1[1a1]->Na2_2[1e1u](2.8473125412856759)
No.3:NaCl_1[1a1]->Na2_2[2e1u](2.8473125412856759)
No.3:NaCl_1[1a1]->Na2_2[1a1g](2.8473125412856759)
No.3:NaCl_1[1a1]->Na2_2[2a1g](2.8473125412856759)
No.3:NaCl_1[1a1]->Na2_2[2a1u](2.8473125412856759)
No.3:NaCl_1[1e]->Na2_2[1a1u](2.8473125412856759)
No.3:NaCl_1[1e]->Na2_2[1e1g](2.8473125412856759)
No.3:NaCl_1[1e]->Na2_2[2e1g](2.8473125412856759)
No.3:NaCl_1[1e]->Na2_2[1e1u](2.8473125412856759)
No.3:NaCl_1[1e]->Na2_2[2e1u](2.8473125412856759)
No.3:NaCl_1[1e]->Na2_2[1a1g](2.8473125412856759)
No.3:NaCl_1[1e]->Na2_2[2a1g](2.8473125412856759)
No.3:NaCl_1[1e]->Na2_2[2a1u](2.8473125412856759)
No.3:NaCl_1[2e]->Na2_2[1a1u](2.8473125412856759)
No.3:NaCl_1[2e]->Na2_2[1e1g](2.8473125412856759)
No.3:NaCl_1[2e]->Na2_2[2e1g](2.8473125412856759)
No.3:NaCl_1[2e]->Na2_2[1e1u](2.8473125412856759)
No.3:NaCl_1[2e]->Na2_2[2e1u](2.8473125412856759)
No.3:NaCl_1[2e]->Na2_2[1a1g](2.8473125412856759)
No.3:NaCl_1[2e]->Na2_2[2a1g](2.8473125412856759)
No.3:NaCl_1[2e]->Na2_2[2a1u](2.8473125412856759)
No.3:NaCl_1[2a1]->Na2_2[1a1u](2.8473125412856759)
No.3:NaCl_1[2a1]->Na2_2[1e1g](2.8473125412856759)
No.3:NaCl_1[2a1]->Na2_2[2e1g](2.8473125412856759)
No.3:NaCl_1[2a1]->Na2_2[1e1u](2.8473125412856759)
No.3:NaCl_1[2a1]->Na2_2[2e1u](2.8473125412856759)
No.3:NaCl_1[2a1]->Na2_2[1a1g](2.8473125412856759)
No.3:NaCl_1[2a1]->Na2_2[2a1g](2.8473125412856759)
No.3:NaCl_1[2a1]->Na2_2[2a1u](2.8473125412856759)
No.3:NaCl_1[3a1]->Na2_2[1a1u](2.8473125412856759)
No.3:NaCl_1[3a1]->Na2_2[1e1g](2.8473125412856759)
No.3:NaCl_1[3a1]->Na2_2[2e1g](2.8473125412856759)
No.3:NaCl_1[3a1]->Na2_2[1e1u](2.8473125412856759)
No.3:NaCl_1[3a1]->Na2_2[2e1u](2.8473125412856759)
No.3:NaCl_1[3a1]->Na2_2[1a1g](2.8473125412856759)
No.3:NaCl_1[3a1]->Na2_2[2a1g](2.8473125412856759)
No.3:NaCl_1[3a1]->Na2_2[2a1u](2.8473125412856759)
No.3:NaCl_1[3e]->Na2_2[1a1u](2.8473125412856759)
No.3:NaCl_1[3e]->Na2_2[1e1g](2.8473125412856759)
No.3:NaCl_1[3e]->Na2_2[2e1g](2.8473125412856759)
No.3:NaCl_1[3e]->Na2_2[1e1u](2.8473125412856759)
No.3:NaCl_1[3e]->Na2_2[2e1u](2.8473125412856759)
No.3:NaCl_1[3e]->Na2_2[1a1g](2.8473125412856759)
No.3:NaCl_1[3e]->Na2_2[2a1g](2.8473125412856759)
No.3:NaCl_1[3e]->Na2_2[2a1u](2.8473125412856759)
No.3:NaCl_1[4e]->Na2_2[1a1u](2.8473125412856759)
No.3:NaCl_1[4e]->Na2_2[1e1g](2.8473125412856759)
No.3:NaCl_1[4e]->Na2_2[2e1g](2.8473125412856759)
No.3:NaCl_1[4e]->Na2_2[1e1u](2.8473125412856759)
No.3:NaCl_1[4e]->Na2_2[2e1u](2.8473125412856759)
No.3:NaCl_1[4e]->Na2_2[1a1g](2.8473125412856759)
No.3:NaCl_1[4e]->Na2_2[2a1g](2.8473125412856759)
No.3:NaCl_1[4e]->Na2_2[2a1u](2.8473125412856759)
No.3:NaCl_1[4a1]->Na2_2[1a1u](2.8473125412856759)
No.3:NaCl_1[4a1]->Na2_2[1e1g](2.8473125412856759)
No.3:NaCl_1[4a1]->Na2_2[2e1g](2.8473125412856759)
No.3:NaCl_1[4a1]->Na2_2[1e1u](2.8473125412856759)
No.3:NaCl_1[4a1]->Na2_2[2e1u](2.8473125412856759)
No.3:NaCl_1[4a1]->Na2_2[1a1g](2.8473125412856759)
No.3:NaCl_1[4a1]->Na2_2[2a1g](2.8473125412856759)
No.3:NaCl_1[4a1]->Na2_2[2a1u](2.8473125412856759)
No.4:NaCl_1->Na2_2(2.8473125412856759)
No.4:NaCl_1[1a1]->Na2_2[1a1u](2.8473125412856759)
No.4:NaCl_1[1a1]->Na2_2[1e1g](2.8473125412856759)
No.4:NaCl_1[1a1]->Na2_2[2e1g](2.8473125412856759)
No.4:NaCl_1[1a1]->Na2_2[1e1u](2.8473125412856759)
No.4:NaCl_1[1a1]->Na2_2[2e1u](2.8473125412856759)
No.4:NaCl_1[1a1]->Na2_2[1a1g](2.8473125412856759)
No.4:NaCl_1[1a1]->Na2_2[2a1g](2.8473125412856759)
No.4:NaCl_1[1a1]->Na2_2[2a1u](2.8473125412856759)
No.4:NaCl_1[1e]->Na2_2[1a1u](2.8473125412856759)
No.4:NaCl_1[1e]->Na2_2[1e1g](2.8473125412856759)
No.4:NaCl_1[1e]->Na2_2[2e1g](2.8473125412856759)
No.4:NaCl_1[1e]->Na2_2[1e1u](2.8473125412856759)
No.4:NaCl_1[1e]->Na2_2[2e1u](2.8473125412856759)
No.4:NaCl_1[1e]->Na2_2[1a1g](2.8473125412856759)
No.4:NaCl_1[1e]->Na2_2[2a1g](2.8473125412856759)
No.4:NaCl_1[1e]->Na2_2[2a1u](2.8473125412856759)
No.4:NaCl_1[2e]->Na2_2[1a1u](2.8473125412856759)
No.4:NaCl_1[2e]->Na2_2[1e1g](2.8473125412856759)
No.4:NaCl_1[2e]->Na2_2[2e1g](2.8473125412856759)
No.4:NaCl_1[2e]->Na2_2[1e1u](2.8473125412856759)
No.4:NaCl_1[2e]->Na2_2[2e1u](2.8473125412856759)
No.4:NaCl_1[2e]->Na2_2[1a1g](2.8473125412856759)
No.4:NaCl_1[2e]->Na2_2[2a1g](2.8473125412856759)
No.4:NaCl_1[2e]->Na2_2[2a1u](2.8473125412856759)
No.4:NaCl_1[2a1]->Na2_2[1a1u](2.8473125412856759)
No.4:NaCl_1[2a1]->Na2_2[1e1g](2.8473125412856759)
No.4:NaCl_1[2a1]->Na2_2[2e1g](2.8473125412856759)
No.4:NaCl_1[2a1]->Na2_2[1e1u](2.8473125412856759)
No.4:NaCl_1[2a1]->Na2_2[2e1u](2.8473125412856759)
No.4:NaCl_1[2a1]->Na2_2[1a1g](2.8473125412856759)
No.4:NaCl_1[2a1]->Na2_2[2a1g](2.8473125412856759)
No.4:NaCl_1[2a1]->Na2_2[2a1u](2.8473125412856759)
No.4:NaCl_1[3a1]->Na2_2[1a1u](2.8473125412856759)
No.4:NaCl_1[3a1]->Na2_2[1e1g](2.8473125412856759)
No.4:NaCl_1[3a1]->Na2_2[2e1g](2.8473125412856759)
No.4:NaCl_1[3a1]->Na2_2[1e1u](2.8473125412856759)
No.4:NaCl_1[3a1]->Na2_2[2e1u](2.8473125412856759)
No.4:NaCl_1[3a1]->Na2_2[1a1g](2.8473125412856759)
No.4:NaCl_1[3a1]->Na2_2[2a1g](2.8473125412856759)
No.4:NaCl_1[3a1]->Na2_2[2a1u](2.8473125412856759)
No.4:NaCl_1[3e]->Na2_2[1a1u](2.8473125412856759)
No.4:NaCl_1[3e]->Na2_2[1e1g](2.8473125412856759)
No.4:NaCl_1[3e]->Na2_2[2e1g](2.8473125412856759)
No.4:NaCl_1[3e]->Na2_2[1e1u](2.8473125412856759)
No.4:NaCl_1[3e]->Na2_2[2e1u](2.8473125412856759)
No.4:NaCl_1[3e]->Na2_2[1a1g](2.8473125412856759)
No.4:NaCl_1[3e]->Na2_2[2a1g](2.8473125412856759)
No.4:NaCl_1[3e]->Na2_2[2a1u](2.8473125412856759)
No.4:NaCl_1[4e]->Na2_2[1a1u](2.8473125412856759)
No.4:NaCl_1[4e]->Na2_2[1e1g](2.8473125412856759)
No.4:NaCl_1[4e]->Na2_2[2e1g](2.8473125412856759)
No.4:NaCl_1[4e]->Na2_2[1e1u](2.8473125412856759)
No.4:NaCl_1[4e]->Na2_2[2e1u](2.8473125412856759)
No.4:NaCl_1[4e]->Na2_2[1a1g](2.8473125412856759)
No.4:NaCl_1[4e]->Na2_2[2a1g](2.8473125412856759)
No.4:NaCl_1[4e]->Na2_2[2a1u](2.8473125412856759)
No.4:NaCl_1[4a1]->Na2_2[1a1u](2.8473125412856759)
No.4:NaCl_1[4a1]->Na2_2[1e1g](2.8473125412856759)
No.4:NaCl_1[4a1]->Na2_2[2e1g](2.8473125412856759)
No.4:NaCl_1[4a1]->Na2_2[1e1u](2.8473125412856759)
No.4:NaCl_1[4a1]->Na2_2[2e1u](2.8473125412856759)
No.4:NaCl_1[4a1]->Na2_2[1a1g](2.8473125412856759)
No.4:NaCl_1[4a1]->Na2_2[2a1g](2.8473125412856759)
No.4:NaCl_1[4a1]->Na2_2[2a1u](2.8473125412856759)
No.5:NaCl_1->Na2_2(2.8473125412856759)
No.5:NaCl_1[1a1]->Na2_2[1a1u](2.8473125412856759)
No.5:NaCl_1[1a1]->Na2_2[1e1g](2.8473125412856759)
No.5:NaCl_1[1a1]->Na2_2[2e1g](2.8473125412856759)
No.5:NaCl_1[1a1]->Na2_2[1e1u](2.8473125412856759)
No.5:NaCl_1[1a1]->Na2_2[2e1u](2.8473125412856759)
No.5:NaCl_1[1a1]->Na2_2[1a1g](2.8473125412856759)
No.5:NaCl_1[1a1]->Na2_2[2a1g](2.8473125412856759)
No.5:NaCl_1[1a1]->Na2_2[2a1u](2.8473125412856759)
No.5:NaCl_1[1e]->Na2_2[1a1u](2.8473125412856759)
No.5:NaCl_1[1e]->Na2_2[1e1g](2.8473125412856759)
No.5:NaCl_1[1e]->Na2_2[2e1g](2.8473125412856759)
No.5:NaCl_1[1e]->Na2_2[1e1u](2.8473125412856759)
No.5:NaCl_1[1e]->Na2_2[2e1u](2.8473125412856759)
No.5:NaCl_1[1e]->Na2_2[1a1g](2.8473125412856759)
No.5:NaCl_1[1e]->Na2_2[2a1g](2.8473125412856759)
No.5:NaCl_1[1e]->Na2_2[2a1u](2.8473125412856759)
No.5:NaCl_1[2e]->Na2_2[1a1u](2.8473125412856759)
No.5:NaCl_1[2e]->Na2_2[1e1g](2.8473125412856759)
No.5:NaCl_1[2e]->Na2_2[2e1g](2.8473125412856759)
No.5:NaCl_1[2e]->Na2_2[1e1u](2.8473125412856759)
No.5:NaCl_1[2e]->Na2_2[2e1u](2.8473125412856759)
No.5:NaCl_1[2e]->Na2_2[1a1g](2.8473125412856759)
No.5:NaCl_1[2e]->Na2_2[2a1g](2.8473125412856759)
No.5:NaCl_1[2e]->Na2_2[2a1u](2.8473125412856759)
No.5:NaCl_1[2a1]->Na2_2[1a1u](2.8473125412856759)
No.5:NaCl_1[2a1]->Na2_2[1e1g](2.8473125412856759)
No.5:NaCl_1[2a1]->Na2_2[2e1g](2.8473125412856759)
No.5:NaCl_1[2a1]->Na2_2[1e1u](2.8473125412856759)
No.5:NaCl_1[2a1]->Na2_2[2e1u](2.8473125412856759)
No.5:NaCl_1[2a1]->Na2_2[1a1g](2.8473125412856759)
No.5:NaCl_1[2a1]->Na2_2[2a1g](2.8473125412856759)
No.5:NaCl_1[2a1]->Na2_2[2a1u](2.8473125412856759)
No.5:NaCl_1[3a1]->Na2_2[1a1u](2.8473125412856759)
No.5:NaCl_1[3a1]->Na2_2[1e1g](2.8473125412856759)
No.5:NaCl_1[3a1]->Na2_2[2e1g](2.8473125412856759)
No.5:NaCl_1[3a1]->Na2_2[1e1u](2.8473125412856759)
No.5:NaCl_1[3a1]->Na2_2[2e1u](2.8473125412856759)
No.5:NaCl_1[3a1]->Na2_2[1a1g](2.8473125412856759)
No.5:NaCl_1[3a1]->Na2_2[2a1g](2.8473125412856759)
No.5:NaCl_1[3a1]->Na2_2[2a1u](2.8473125412856759)
No.5:NaCl_1[3e]->Na2_2[1a1u](2.8473125412856759)
No.5:NaCl_1[3e]->Na2_2[1e1g](2.8473125412856759)
No.5:NaCl_1[3e]->Na2_2[2e1g](2.8473125412856759)
No.5:NaCl_1[3e]->Na2_2[1e1u](2.8473125412856759)
No.5:NaCl_1[3e]->Na2_2[2e1u](2.8473125412856759)
No.5:NaCl_1[3e]->Na2_2[1a1g](2.8473125412856759)
No.5:NaCl_1[3e]->Na2_2[2a1g](2.8473125412856759)
No.5:NaCl_1[3e]->Na2_2[2a1u](2.8473125412856759)
No.5:NaCl_1[4e]->Na2_2[1a1u](2.8473125412856759)
No.5:NaCl_1[4e]->Na2_2[1e1g](2.8473125412856759)
No.5:NaCl_1[4e]->Na2_2[2e1g](2.8473125412856759)
No.5:NaCl_1[4e]->Na2_2[1e1u](2.8473125412856759)
No.5:NaCl_1[4e]->Na2_2[2e1u](2.8473125412856759)
No.5:NaCl_1[4e]->Na2_2[1a1g](2.8473125412856759)
No.5:NaCl_1[4e]->Na2_2[2a1g](2.8473125412856759)
No.5:NaCl_1[4e]->Na2_2[2a1u](2.8473125412856759)
No.5:NaCl_1[4a1]->Na2_2[1a1u](2.8473125412856759)
No.5:NaCl_1[4a1]->Na2_2[1e1g](2.8473125412856759)
No.5:NaCl_1[4a1]->Na2_2[2e1g](2.8473125412856759)
No.5:NaCl_1[4a1]->Na2_2[1e1u](2.8473125412856759)
No.5:NaCl_1[4a1]->Na2_2[2e1u](2.8473125412856759)
No.5:NaCl_1[4a1]->Na2_2[1a1g](2.8473125412856759)
No.5:NaCl_1[4a1]->Na2_2[2a1g](2.8473125412856759)
No.5:NaCl_1[4a1]->Na2_2[2a1u](2.8473125412856759)
No.6:NaCl_1->Cl_4(2.8473125412856759)
No.6:NaCl_1[1a1]->Cl_4[3s](2.8473125412856759)
No.6:NaCl_1[1a1]->Cl_4[3p_y](2.8473125412856759)
No.6:NaCl_1[1a1]->Cl_4[3p_z](2.8473125412856759)
No.6:NaCl_1[1a1]->Cl_4[3p_x](2.8473125412856759)
No.6:NaCl_1[1e]->Cl_4[3s](2.8473125412856759)
No.6:NaCl_1[1e]->Cl_4[3p_y](2.8473125412856759)
No.6:NaCl_1[1e]->Cl_4[3p_z](2.8473125412856759)
No.6:NaCl_1[1e]->Cl_4[3p_x](2.8473125412856759)
No.6:NaCl_1[2e]->Cl_4[3s](2.8473125412856759)
No.6:NaCl_1[2e]->Cl_4[3p_y](2.8473125412856759)
No.6:NaCl_1[2e]->Cl_4[3p_z](2.8473125412856759)
No.6:NaCl_1[2e]->Cl_4[3p_x](2.8473125412856759)
No.6:NaCl_1[2a1]->Cl_4[3s](2.8473125412856759)
No.6:NaCl_1[2a1]->Cl_4[3p_y](2.8473125412856759)
No.6:NaCl_1[2a1]->Cl_4[3p_z](2.8473125412856759)
No.6:NaCl_1[2a1]->Cl_4[3p_x](2.8473125412856759)
No.6:NaCl_1[3a1]->Cl_4[3s](2.8473125412856759)
No.6:NaCl_1[3a1]->Cl_4[3p_y](2.8473125412856759)
No.6:NaCl_1[3a1]->Cl_4[3p_z](2.8473125412856759)
No.6:NaCl_1[3a1]->Cl_4[3p_x](2.8473125412856759)
No.6:NaCl_1[3e]->Cl_4[3s](2.8473125412856759)
No.6:NaCl_1[3e]->Cl_4[3p_y](2.8473125412856759)
No.6:NaCl_1[3e]->Cl_4[3p_z](2.8473125412856759)
No.6:NaCl_1[3e]->Cl_4[3p_x](2.8473125412856759)
No.6:NaCl_1[4e]->Cl_4[3s](2.8473125412856759)
No.6:NaCl_1[4e]->Cl_4[3p_y](2.8473125412856759)
No.6:NaCl_1[4e]->Cl_4[3p_z](2.8473125412856759)
No.6:NaCl_1[4e]->Cl_4[3p_x](2.8473125412856759)
No.6:NaCl_1[4a1]->Cl_4[3s](2.8473125412856759)
No.6:NaCl_1[4a1]->Cl_4[3p_y](2.8473125412856759)
No.6:NaCl_1[4a1]->Cl_4[3p_z](2.8473125412856759)
No.6:NaCl_1[4a1]->Cl_4[3p_x](2.8473125412856759)
No.7:NaCl_1->Cl_4(2.8473125412856759)
No.7:NaCl_1[1a1]->Cl_4[3s](2.8473125412856759)
No.7:NaCl_1[1a1]->Cl_4[3p_y](2.8473125412856759)
No.7:NaCl_1[1a1]->Cl_4[3p_z](2.8473125412856759)
No.7:NaCl_1[1a1]->Cl_4[3p_x](2.8473125412856759)
No.7:NaCl_1[1e]->Cl_4[3s](2.8473125412856759)
No.7:NaCl_1[1e]->Cl_4[3p_y](2.8473125412856759)
No.7:NaCl_1[1e]->Cl_4[3p_z](2.8473125412856759)
No.7:NaCl_1[1e]->Cl_4[3p_x](2.8473125412856759)
No.7:NaCl_1[2e]->Cl_4[3s](2.8473125412856759)
No.7:NaCl_1[2e]->Cl_4[3p_y](2.8473125412856759)
No.7:NaCl_1[2e]->Cl_4[3p_z](2.8473125412856759)
No.7:NaCl_1[2e]->Cl_4[3p_x](2.8473125412856759)
No.7:NaCl_1[2a1]->Cl_4[3s](2.8473125412856759)
No.7:NaCl_1[2a1]->Cl_4[3p_y](2.8473125412856759)
No.7:NaCl_1[2a1]->Cl_4[3p_z](2.8473125412856759)
No.7:NaCl_1[2a1]->Cl_4[3p_x](2.8473125412856759)
No.7:NaCl_1[3a1]->Cl_4[3s](2.8473125412856759)
No.7:NaCl_1[3a1]->Cl_4[3p_y](2.8473125412856759)
No.7:NaCl_1[3a1]->Cl_4[3p_z](2.8473125412856759)
No.7:NaCl_1[3a1]->Cl_4[3p_x](2.8473125412856759)
No.7:NaCl_1[3e]->Cl_4[3s](2.8473125412856759)
No.7:NaCl_1[3e]->Cl_4[3p_y](2.8473125412856759)
No.7:NaCl_1[3e]->Cl_4[3p_z](2.8473125412856759)
No.7:NaCl_1[3e]->Cl_4[3p_x](2.8473125412856759)
No.7:NaCl_1[4e]->Cl_4[3s](2.8473125412856759)
No.7:NaCl_1[4e]->Cl_4[3p_y](2.8473125412856759)
No.7:NaCl_1[4e]->Cl_4[3p_z](2.8473125412856759)
No.7:NaCl_1[4e]->Cl_4[3p_x](2.8473125412856759)
No.7:NaCl_1[4a1]->Cl_4[3s](2.8473125412856759)
No.7:NaCl_1[4a1]->Cl_4[3p_y](2.8473125412856759)
No.7:NaCl_1[4a1]->Cl_4[3p_z](2.8473125412856759)
No.7:NaCl_1[4a1]->Cl_4[3p_x](2.8473125412856759)
No.8:NaCl_1->Cl_5(2.8473125412856759)
No.8:NaCl_1[1a1]->Cl_5[3s](2.8473125412856759)
No.8:NaCl_1[1a1]->Cl_5[3p_y](2.8473125412856759)
No.8:NaCl_1[1a1]->Cl_5[3p_z](2.8473125412856759)
No.8:NaCl_1[1a1]->Cl_5[3p_x](2.8473125412856759)
No.8:NaCl_1[1e]->Cl_5[3s](2.8473125412856759)
No.8:NaCl_1[1e]->Cl_5[3p_y](2.8473125412856759)
No.8:NaCl_1[1e]->Cl_5[3p_z](2.8473125412856759)
No.8:NaCl_1[1e]->Cl_5[3p_x](2.8473125412856759)
No.8:NaCl_1[2e]->Cl_5[3s](2.8473125412856759)
No.8:NaCl_1[2e]->Cl_5[3p_y](2.8473125412856759)
No.8:NaCl_1[2e]->Cl_5[3p_z](2.8473125412856759)
No.8:NaCl_1[2e]->Cl_5[3p_x](2.8473125412856759)
No.8:NaCl_1[2a1]->Cl_5[3s](2.8473125412856759)
No.8:NaCl_1[2a1]->Cl_5[3p_y](2.8473125412856759)
No.8:NaCl_1[2a1]->Cl_5[3p_z](2.8473125412856759)
No.8:NaCl_1[2a1]->Cl_5[3p_x](2.8473125412856759)
No.8:NaCl_1[3a1]->Cl_5[3s](2.8473125412856759)
No.8:NaCl_1[3a1]->Cl_5[3p_y](2.8473125412856759)
No.8:NaCl_1[3a1]->Cl_5[3p_z](2.8473125412856759)
No.8:NaCl_1[3a1]->Cl_5[3p_x](2.8473125412856759)
No.8:NaCl_1[3e]->Cl_5[3s](2.8473125412856759)
No.8:NaCl_1[3e]->Cl_5[3p_y](2.8473125412856759)
No.8:NaCl_1[3e]->Cl_5[3p_z](2.8473125412856759)
No.8:NaCl_1[3e]->Cl_5[3p_x](2.8473125412856759)
No.8:NaCl_1[4e]->Cl_5[3s](2.8473125412856759)
No.8:NaCl_1[4e]->Cl_5[3p_y](2.8473125412856759)
No.8:NaCl_1[4e]->Cl_5[3p_z](2.8473125412856759)
No.8:NaCl_1[4e]->Cl_5[3p_x](2.8473125412856759)
No.8:NaCl_1[4a1]->Cl_5[3s](2.8473125412856759)
No.8:NaCl_1[4a1]->Cl_5[3p_y](2.8473125412856759)
No.8:NaCl_1[4a1]->Cl_5[3p_z](2.8473125412856759)
No.8:NaCl_1[4a1]->Cl_5[3p_x](2.8473125412856759)
No.9:NaCl_1->Cl_5(2.8473125412856759)
No.9:NaCl_1[1a1]->Cl_5[3s](2.8473125412856759)
No.9:NaCl_1[1a1]->Cl_5[3p_y](2.8473125412856759)
No.9:NaCl_1[1a1]->Cl_5[3p_z](2.8473125412856759)
No.9:NaCl_1[1a1]->Cl_5[3p_x](2.8473125412856759)
No.9:NaCl_1[1e]->Cl_5[3s](2.8473125412856759)
No.9:NaCl_1[1e]->Cl_5[3p_y](2.8473125412856759)
No.9:NaCl_1[1e]->Cl_5[3p_z](2.8473125412856759)
No.9:NaCl_1[1e]->Cl_5[3p_x](2.8473125412856759)
No.9:NaCl_1[2e]->Cl_5[3s](2.8473125412856759)
No.9:NaCl_1[2e]->Cl_5[3p_y](2.8473125412856759)
No.9:NaCl_1[2e]->Cl_5[3p_z](2.8473125412856759)
No.9:NaCl_1[2e]->Cl_5[3p_x](2.8473125412856759)
No.9:NaCl_1[2a1]->Cl_5[3s](2.8473125412856759)
No.9:NaCl_1[2a1]->Cl_5[3p_y](2.8473125412856759)
No.9:NaCl_1[2a1]->Cl_5[3p_z](2.8473125412856759)
No.9:NaCl_1[2a1]->Cl_5[3p_x](2.8473125412856759)
No.9:NaCl_1[3a1]->Cl_5[3s](2.8473125412856759)
No.9:NaCl_1[3a1]->Cl_5[3p_y](2.8473125412856759)
No.9:NaCl_1[3a1]->Cl_5[3p_z](2.8473125412856759)
No.9:NaCl_1[3a1]->Cl_5[3p_x](2.8473125412856759)
No.9:NaCl_1[3e]->Cl_5[3s](2.8473125412856759)
No.9:NaCl_1[3e]->Cl_5[3p_y](2.8473125412856759)
No.9:NaCl_1[3e]->Cl_5[3p_z](2.8473125412856759)
No.9:NaCl_1[3e]->Cl_5[3p_x](2.8473125412856759)
No.9:NaCl_1[4e]->Cl_5[3s](2.8473125412856759)
No.9:NaCl_1[4e]->Cl_5[3p_y](2.8473125412856759)
No.9:NaCl_1[4e]->Cl_5[3p_z](2.8473125412856759)
No.9:NaCl_1[4e]->Cl_5[3p_x](2.8473125412856759)
No.9:NaCl_1[4a1]->Cl_5[3s](2.8473125412856759)
No.9:NaCl_1[4a1]->Cl_5[3p_y](2.8473125412856759)
No.9:NaCl_1[4a1]->Cl_5[3p_z](2.8473125412856759)
No.9:NaCl_1[4a1]->Cl_5[3p_x](2.8473125412856759)
No.10:Na2_2->Cl_4(2.8473125412856759)
No.10:Na2_2[1a1u]->Cl_4[3s](2.8473125412856759)
No.10:Na2_2[1a1u]->Cl_4[3p_y](2.8473125412856759)
No.10:Na2_2[1a1u]->Cl_4[3p_z](2.8473125412856759)
No.10:Na2_2[1a1u]->Cl_4[3p_x](2.8473125412856759)
No.10:Na2_2[1e1g]->Cl_4[3s](2.8473125412856759)
No.10:Na2_2[1e1g]->Cl_4[3p_y](2.8473125412856759)
No.10:Na2_2[1e1g]->Cl_4[3p_z](2.8473125412856759)
No.10:Na2_2[1e1g]->Cl_4[3p_x](2.8473125412856759)
No.10:Na2_2[2e1g]->Cl_4[3s](2.8473125412856759)
No.10:Na2_2[2e1g]->Cl_4[3p_y](2.8473125412856759)
No.10:Na2_2[2e1g]->Cl_4[3p_z](2.8473125412856759)
No.10:Na2_2[2e1g]->Cl_4[3p_x](2.8473125412856759)
No.10:Na2_2[1e1u]->Cl_4[3s](2.8473125412856759)
No.10:Na2_2[1e1u]->Cl_4[3p_y](2.8473125412856759)
No.10:Na2_2[1e1u]->Cl_4[3p_z](2.8473125412856759)
No.10:Na2_2[1e1u]->Cl_4[3p_x](2.8473125412856759)
No.10:Na2_2[2e1u]->Cl_4[3s](2.8473125412856759)
No.10:Na2_2[2e1u]->Cl_4[3p_y](2.8473125412856759)
No.10:Na2_2[2e1u]->Cl_4[3p_z](2.8473125412856759)
No.10:Na2_2[2e1u]->Cl_4[3p_x](2.8473125412856759)
No.10:Na2_2[1a1g]->Cl_4[3s](2.8473125412856759)
No.10:Na2_2[1a1g]->Cl_4[3p_y](2.8473125412856759)
No.10:Na2_2[1a1g]->Cl_4[3p_z](2.8473125412856759)
No.10:Na2_2[1a1g]->Cl_4[3p_x](2.8473125412856759)
No.10:Na2_2[2a1g]->Cl_4[3s](2.8473125412856759)
No.10:Na2_2[2a1g]->Cl_4[3p_y](2.8473125412856759)
No.10:Na2_2[2a1g]->Cl_4[3p_z](2.8473125412856759)
No.10:Na2_2[2a1g]->Cl_4[3p_x](2.8473125412856759)
No.10:Na2_2[2a1u]->Cl_4[3s](2.8473125412856759)
No.10:Na2_2[2a1u]->Cl_4[3p_y](2.8473125412856759)
No.10:Na2_2[2a1u]->Cl_4[3p_z](2.8473125412856759)
No.10:Na2_2[2a1u]->Cl_4[3p_x](2.8473125412856759)
No.11:Na2_2->Cl_4(2.8473125412856759)
No.11:Na2_2[1a1u]->Cl_4[3s](2.8473125412856759)
No.11:Na2_2[1a1u]->Cl_4[3p_y](2.8473125412856759)
No.11:Na2_2[1a1u]->Cl_4[3p_z](2.8473125412856759)
No.11:Na2_2[1a1u]->Cl_4[3p_x](2.8473125412856759)
No.11:Na2_2[1e1g]->Cl_4[3s](2.8473125412856759)
No.11:Na2_2[1e1g]->Cl_4[3p_y](2.8473125412856759)
No.11:Na2_2[1e1g]->Cl_4[3p_z](2.8473125412856759)
No.11:Na2_2[1e1g]->Cl_4[3p_x](2.8473125412856759)
No.11:Na2_2[2e1g]->Cl_4[3s](2.8473125412856759)
No.11:Na2_2[2e1g]->Cl_4[3p_y](2.8473125412856759)
No.11:Na2_2[2e1g]->Cl_4[3p_z](2.8473125412856759)
No.11:Na2_2[2e1g]->Cl_4[3p_x](2.8473125412856759)
No.11:Na2_2[1e1u]->Cl_4[3s](2.8473125412856759)
No.11:Na2_2[1e1u]->Cl_4[3p_y](2.8473125412856759)
No.11:Na2_2[1e1u]->Cl_4[3p_z](2.8473125412856759)
No.11:Na2_2[1e1u]->Cl_4[3p_x](2.8473125412856759)
No.11:Na2_2[2e1u]->Cl_4[3s](2.8473125412856759)
No.11:Na2_2[2e1u]->Cl_4[3p_y](2.8473125412856759)
No.11:Na2_2[2e1u]->Cl_4[3p_z](2.8473125412856759)
No.11:Na2_2[2e1u]->Cl_4[3p_x](2.8473125412856759)
No.11:Na2_2[1a1g]->Cl_4[3s](2.8473125412856759)
No.11:Na2_2[1a1g]->Cl_4[3p_y](2.8473125412856759)
No.11:Na2_2[1a1g]->Cl_4[3p_z](2.8473125412856759)
No.11:Na2_2[1a1g]->Cl_4[3p_x](2.8473125412856759)
No.11:Na2_2[2a1g]->Cl_4[3s](2.8473125412856759)
No.11:Na2_2[2a1g]->Cl_4[3p_y](2.8473125412856759)
No.11:Na2_2[2a1g]->Cl_4[3p_z](2.8473125412856759)
No.11:Na2_2[2a1g]->Cl_4[3p_x](2.8473125412856759)
No.11:Na2_2[2a1u]->Cl_4[3s](2.8473125412856759)
No.11:Na2_2[2a1u]->Cl_4[3p_y](2.8473125412856759)
No.11:Na2_2[2a1u]->Cl_4[3p_z](2.8473125412856759)
No.11:Na2_2[2a1u]->Cl_4[3p_x](2.8473125412856759)
No.12:Na2_2->Cl_5(2.8473125412856759)
No.12:Na2_2[1a1u]->Cl_5[3s](2.8473125412856759)
No.12:Na2_2[1a1u]->Cl_5[3p_y](2.8473125412856759)
No.12:Na2_2[1a1u]->Cl_5[3p_z](2.8473125412856759)
No.12:Na2_2[1a1u]->Cl_5[3p_x](2.8473125412856759)
No.12:Na2_2[1e1g]->Cl_5[3s](2.8473125412856759)
No.12:Na2_2[1e1g]->Cl_5[3p_y](2.8473125412856759)
No.12:Na2_2[1e1g]->Cl_5[3p_z](2.8473125412856759)
No.12:Na2_2[1e1g]->Cl_5[3p_x](2.8473125412856759)
No.12:Na2_2[2e1g]->Cl_5[3s](2.8473125412856759)
No.12:Na2_2[2e1g]->Cl_5[3p_y](2.8473125412856759)
No.12:Na2_2[2e1g]->Cl_5[3p_z](2.8473125412856759)
No.12:Na2_2[2e1g]->Cl_5[3p_x](2.8473125412856759)
No.12:Na2_2[1e1u]->Cl_5[3s](2.8473125412856759)
No.12:Na2_2[1e1u]->Cl_5[3p_y](2.8473125412856759)
No.12:Na2_2[1e1u]->Cl_5[3p_z](2.8473125412856759)
No.12:Na2_2[1e1u]->Cl_5[3p_x](2.8473125412856759)
No.12:Na2_2[2e1u]->Cl_5[3s](2.8473125412856759)
No.12:Na2_2[2e1u]->Cl_5[3p_y](2.8473125412856759)
No.12:Na2_2[2e1u]->Cl_5[3p_z](2.8473125412856759)
No.12:Na2_2[2e1u]->Cl_5[3p_x](2.8473125412856759)
No.12:Na2_2[1a1g]->Cl_5[3s](2.8473125412856759)
No.12:Na2_2[1a1g]->Cl_5[3p_y](2.8473125412856759)
No.12:Na2_2[1a1g]->Cl_5[3p_z](2.8473125412856759)
No.12:Na2_2[1a1g]->Cl_5[3p_x](2.8473125412856759)
No.12:Na2_2[2a1g]->Cl_5[3s](2.8473125412856759)
No.12:Na2_2[2a1g]->Cl_5[3p_y](2.8473125412856759)
No.12:Na2_2[2a1g]->Cl_5[3p_z](2.8473125412856759)
No.12:Na2_2[2a1g]->Cl_5[3p_x](2.8473125412856759)
No.12:Na2_2[2a1u]->Cl_5[3s](2.8473125412856759)
No.12:Na2_2[2a1u]->Cl_5[3p_y](2.8473125412856759)
No.12:Na2_2[2a1u]->Cl_5[3p_z](2.8473125412856759)
No.12:Na2_2[2a1u]->Cl_5[3p_x](2.8473125412856759)
No.13:Na2_2->Cl_5(2.8473125412856759)
No.13:Na2_2[1a1u]->Cl_5[3s](2.8473125412856759)
No.13:Na2_2[1a1u]->Cl_5[3p_y](2.8473125412856759)
No.13:Na2_2[1a1u]->Cl_5[3p_z](2.8473125412856759)
No.13:Na2_2[1a1u]->Cl_5[3p_x](2.8473125412856759)
No.13:Na2_2[1e1g]->Cl_5[3s](2.8473125412856759)
No.13:Na2_2[1e1g]->Cl_5[3p_y](2.8473125412856759)
No.13:Na2_2[1e1g]->Cl_5[3p_z](2.8473125412856759)
No.13:Na2_2[1e1g]->Cl_5[3p_x](2.8473125412856759)
No.13:Na2_2[2e1g]->Cl_5[3s](2.8473125412856759)
No.13:Na2_2[2e1g]->Cl_5[3p_y](2.8473125412856759)
No.13:Na2_2[2e1g]->Cl_5[3p_z](2.8473125412856759)
No.13:Na2_2[2e1g]->Cl_5[3p_x](2.8473125412856759)
No.13:Na2_2[1e1u]->Cl_5[3s](2.8473125412856759)
No.13:Na2_2[1e1u]->Cl_5[3p_y](2.8473125412856759)
No.13:Na2_2[1e1u]->Cl_5[3p_z](2.8473125412856759)
No.13:Na2_2[1e1u]->Cl_5[3p_x](2.8473125412856759)
No.13:Na2_2[2e1u]->Cl_5[3s](2.8473125412856759)
No.13:Na2_2[2e1u]->Cl_5[3p_y](2.8473125412856759)
No.13:Na2_2[2e1u]->Cl_5[3p_z](2.8473125412856759)
No.13:Na2_2[2e1u]->Cl_5[3p_x](2.8473125412856759)
No.13:Na2_2[1a1g]->Cl_5[3s](2.8473125412856759)
No.13:Na2_2[1a1g]->Cl_5[3p_y](2.8473125412856759)
No.13:Na2_2[1a1g]->Cl_5[3p_z](2.8473125412856759)
No.13:Na2_2[1a1g]->Cl_5[3p_x](2.8473125412856759)
No.13:Na2_2[2a1g]->Cl_5[3s](2.8473125412856759)
No.13:Na2_2[2a1g]->Cl_5[3p_y](2.8473125412856759)
No.13:Na2_2[2a1g]->Cl_5[3p_z](2.8473125412856759)
No.13:Na2_2[2a1g]->Cl_5[3p_x](2.8473125412856759)
No.13:Na2_2[2a1u]->Cl_5[3s](2.8473125412856759)
No.13:Na2_2[2a1u]->Cl_5[3p_y](2.8473125412856759)
No.13:Na2_2[2a1u]->Cl_5[3p_z](2.8473125412856759)
No.13:Na2_2[2a1u]->Cl_5[3p_x](2.8473125412856759)
No.14:Na2_2->Cl_6(2.8473125412856759)
No.14:Na2_2[1a1u]->Cl_6[3s](2.8473125412856759)
No.14:Na2_2[1a1u]->Cl_6[3p_y](2.8473125412856759)
No.14:Na2_2[1a1u]->Cl_6[3p_z](2.8473125412856759)
No.14:Na2_2[1a1u]->Cl_6[3p_x](2.8473125412856759)
No.14:Na2_2[1e1g]->Cl_6[3s](2.8473125412856759)
No.14:Na2_2[1e1g]->Cl_6[3p_y](2.8473125412856759)
No.14:Na2_2[1e1g]->Cl_6[3p_z](2.8473125412856759)
No.14:Na2_2[1e1g]->Cl_6[3p_x](2.8473125412856759)
No.14:Na2_2[2e1g]->Cl_6[3s](2.8473125412856759)
No.14:Na2_2[2e1g]->Cl_6[3p_y](2.8473125412856759)
No.14:Na2_2[2e1g]->Cl_6[3p_z](2.8473125412856759)
No.14:Na2_2[2e1g]->Cl_6[3p_x](2.8473125412856759)
No.14:Na2_2[1e1u]->Cl_6[3s](2.8473125412856759)
No.14:Na2_2[1e1u]->Cl_6[3p_y](2.8473125412856759)
No.14:Na2_2[1e1u]->Cl_6[3p_z](2.8473125412856759)
No.14:Na2_2[1e1u]->Cl_6[3p_x](2.8473125412856759)
No.14:Na2_2[2e1u]->Cl_6[3s](2.8473125412856759)
No.14:Na2_2[2e1u]->Cl_6[3p_y](2.8473125412856759)
No.14:Na2_2[2e1u]->Cl_6[3p_z](2.8473125412856759)
No.14:Na2_2[2e1u]->Cl_6[3p_x](2.8473125412856759)