ESCALE ; pCOHP file generated by LOBSTER. Energy is shifted such that the Fermi level lies at 0 eV.
       409          1         11  -5.33675e+00   3.55214e+00  -8.92304e-01 
Average
No.1:Na1->Cl5(2.8473125412856759)
No.1:Na1[3s]->Cl5[3s](2.8473125412856759)
No.1:Na1[3s]->Cl5[3p_y](2.8473125412856759)
No.1:Na1[3s]->Cl5[3p_z](2.8473125412856759)
No.1:Na1[3s]->Cl5[3p_x](2.8473125412856759)
No.1:Na1[2p_y]->Cl5[3s](2.8473125412856759)
No.1:Na1[2p_y]->Cl5[3p_y](2.8473125412856759)
No.1:Na1[2p_y]->Cl5[3p_z](2.8473125412856759)
No.1:Na1[2p_y]->Cl5[3p_x](2.8473125412856759)
No.1:Na1[2p_z]->Cl5[3s](2.8473125412856759)
No.1:Na1[2p_z]->Cl5[3p_y](2.8473125412856759)
No.1:Na1[2p_z]->Cl5[3p_z](2.8473125412856759)
No.1:Na1[2p_z]->Cl5[3p_x](2.8473125412856759)
No.1:Na1[2p_x]->Cl5[3s](2.8473125412856759)
No.1:Na1[2p_x]->Cl5[3p_y](2.8473125412856759)
No.1:Na1[2p_x]->Cl5[3p_z](2.8473125412856759)
No.1:Na1[2p_x]->Cl5[3p_x](2.8473125412856759)
No.2:Na1->Cl5(2.8473125412856759)
No.2:Na1[3s]->Cl5[3s](2.8473125412856759)
No.2:Na1[3s]->Cl5[3p_y](2.8473125412856759)
No.2:Na1[3s]->Cl5[3p_z](2.8473125412856759)
No.2:Na1[3s]->Cl5[3p_x](2.8473125412856759)
No.2:Na1[2p_y]->Cl5[3s](2.8473125412856759)
No.2:Na1[2p_y]->Cl5[3p_y](2.8473125412856759)
No.2:Na1[2p_y]->Cl5[3p_z](2.8473125412856759)
No.2:Na1[2p_y]->Cl5[3p_x](2.8473125412856759)
No.2:Na1[2p_z]->Cl5[3s](2.8473125412856759)
No.2:Na1[2p_z]->Cl5[3p_y](2.8473125412856759)
No.2:Na1[2p_z]->Cl5[3p_z](2.8473125412856759)
No.2:Na1[2p_z]->Cl5[3p_x](2.8473125412856759)
No.2:Na1[2p_x]->Cl5[3s](2.8473125412856759)
No.2:Na1[2p_x]->Cl5[3p_y](2.8473125412856759)
No.2:Na1[2p_x]->Cl5[3p_z](2.8473125412856759)
No.2:Na1[2p_x]->Cl5[3p_x](2.8473125412856759)
No.3:Na1->Cl6(2.8473125412856759)
No.3:Na1[3s]->Cl6[3s](2.8473125412856759)
No.3:Na1[3s]->Cl6[3p_y](2.8473125412856759)
No.3:Na1[3s]->Cl6[3p_z](2.8473125412856759)
No.3:Na1[3s]->Cl6[3p_x](2.8473125412856759)
No.3:Na1[2p_y]->Cl6[3s](2.8473125412856759)
No.3:Na1[2p_y]->Cl6[3p_y](2.8473125412856759)
No.3:Na1[2p_y]->Cl6[3p_z](2.8473125412856759)
No.3:Na1[2p_y]->Cl6[3p_x](2.8473125412856759)
No.3:Na1[2p_z]->Cl6[3s](2.8473125412856759)
No.3:Na1[2p_z]->Cl6[3p_y](2.8473125412856759)
No.3:Na1[2p_z]->Cl6[3p_z](2.8473125412856759)
No.3:Na1[2p_z]->Cl6[3p_x](2.8473125412856759)
No.3:Na1[2p_x]->Cl6[3s](2.8473125412856759)
No.3:Na1[2p_x]->Cl6[3p_y](2.8473125412856759)
No.3:Na1[2p_x]->Cl6[3p_z](2.8473125412856759)
No.3:Na1[2p_x]->Cl6[3p_x](2.8473125412856759)
No.4:Na1->Cl6(2.8473125412856759)
No.4:Na1[3s]->Cl6[3s](2.8473125412856759)
No.4:Na1[3s]->Cl6[3p_y](2.8473125412856759)
No.4:Na1[3s]->Cl6[3p_z](2.8473125412856759)
No.4:Na1[3s]->Cl6[3p_x](2.8473125412856759)
No.4:Na1[2p_y]->Cl6[3s](2.8473125412856759)
No.4:Na1[2p_y]->Cl6[3p_y](2.8473125412856759)
No.4:Na1[2p_y]->Cl6[3p_z](2.8473125412856759)
No.4:Na1[2p_y]->Cl6[3p_x](2.8473125412856759)
No.4:Na1[2p_z]->Cl6[3s](2.8473125412856759)
No.4:Na1[2p_z]->Cl6[3p_y](2.8473125412856759)
No.4:Na1[2p_z]->Cl6[3p_z](2.8473125412856759)
No.4:Na1[2p_z]->Cl6[3p_x](2.8473125412856759)
No.4:Na1[2p_x]->Cl6[3s](2.8473125412856759)
No.4:Na1[2p_x]->Cl6[3p_y](2.8473125412856759)
No.4:Na1[2p_x]->Cl6[3p_z](2.8473125412856759)
No.4:Na1[2p_x]->Cl6[3p_x](2.8473125412856759)
No.5:Na1->Cl7(2.8473125412856759)
No.5:Na1[3s]->Cl7[3s](2.8473125412856759)
No.5:Na1[3s]->Cl7[3p_y](2.8473125412856759)
No.5:Na1[3s]->Cl7[3p_z](2.8473125412856759)
No.5:Na1[3s]->Cl7[3p_x](2.8473125412856759)
No.5:Na1[2p_y]->Cl7[3s](2.8473125412856759)
No.5:Na1[2p_y]->Cl7[3p_y](2.8473125412856759)
No.5:Na1[2p_y]->Cl7[3p_z](2.8473125412856759)
No.5:Na1[2p_y]->Cl7[3p_x](2.8473125412856759)
No.5:Na1[2p_z]->Cl7[3s](2.8473125412856759)
No.5:Na1[2p_z]->Cl7[3p_y](2.8473125412856759)
No.5:Na1[2p_z]->Cl7[3p_z](2.8473125412856759)
No.5:Na1[2p_z]->Cl7[3p_x](2.8473125412856759)
No.5:Na1[2p_x]->Cl7[3s](2.8473125412856759)
No.5:Na1[2p_x]->Cl7[3p_y](2.8473125412856759)
No.5:Na1[2p_x]->Cl7[3p_z](2.8473125412856759)
No.5:Na1[2p_x]->Cl7[3p_x](2.8473125412856759)
No.6:Na1->Cl7(2.8473125412856759)
No.6:Na1[3s]->Cl7[3s](2.8473125412856759)
No.6:Na1[3s]->Cl7[3p_y](2.8473125412856759)
No.6:Na1[3s]->Cl7[3p_z](2.8473125412856759)
No.6:Na1[3s]->Cl7[3p_x](2.8473125412856759)
No.6:Na1[2p_y]->Cl7[3s](2.8473125412856759)
No.6:Na1[2p_y]->Cl7[3p_y](2.8473125412856759)
No.6:Na1[2p_y]->Cl7[3p_z](2.8473125412856759)
No.6:Na1[2p_y]->Cl7[3p_x](2.8473125412856759)
No.6:Na1[2p_z]->Cl7[3s](2.8473125412856759)
No.6:Na1[2p_z]->Cl7[3p_y](2.8473125412856759)
No.6:Na1[2p_z]->Cl7[3p_z](2.8473125412856759)
No.6:Na1[2p_z]->Cl7[3p_x](2.8473125412856759)
No.6:Na1[2p_x]->Cl7[3s](2.8473125412856759)
No.6:Na1[2p_x]->Cl7[3p_y](2.8473125412856759)
No.6:Na1[2p_x]->Cl7[3p_z](2.8473125412856759)
No.6:Na1[2p_x]->Cl7[3p_x](2.8473125412856759)
No.7:Na2->Cl5(2.8473125412856759)
No.7:Na2[3s]->Cl5[3s](2.8473125412856759)
No.7:Na2[3s]->Cl5[3p_y](2.8473125412856759)
No.7:Na2[3s]->Cl5[3p_z](2.8473125412856759)
No.7:Na2[3s]->Cl5[3p_x](2.8473125412856759)
No.7:Na2[2p_y]->Cl5[3s](2.8473125412856759)
No.7:Na2[2p_y]->Cl5[3p_y](2.8473125412856759)
No.7:Na2[2p_y]->Cl5[3p_z](2.8473125412856759)
No.7:Na2[2p_y]->Cl5[3p_x](2.8473125412856759)
No.7:Na2[2p_z]->Cl5[3s](2.8473125412856759)
No.7:Na2[2p_z]->Cl5[3p_y](2.8473125412856759)
No.7:Na2[2p_z]->Cl5[3p_z](2.8473125412856759)
No.7:Na2[2p_z]->Cl5[3p_x](2.8473125412856759)
No.7:Na2[2p_x]->Cl5[3s](2.8473125412856759)
No.7:Na2[2p_x]->Cl5[3p_y](2.8473125412856759)
No.7:Na2[2p_x]->Cl5[3p_z](2.8473125412856759)
No.7:Na2[2p_x]->Cl5[3p_x](2.8473125412856759)
No.8:Na2->Cl5(2.8473125412856759)
No.8:Na2[3s]->Cl5[3s](2.8473125412856759)
No.8:Na2[3s]->Cl5[3p_y](2.8473125412856759)
No.8:Na2[3s]->Cl5[3p_z](2.8473125412856759)
No.8:Na2[3s]->Cl5[3p_x](2.8473125412856759)
No.8:Na2[2p_y]->Cl5[3s](2.8473125412856759)
No.8:Na2[2p_y]->Cl5[3p_y](2.8473125412856759)
No.8:Na2[2p_y]->Cl5[3p_z](2.8473125412856759)
No.8:Na2[2p_y]->Cl5[3p_x](2.8473125412856759)
No.8:Na2[2p_z]->Cl5[3s](2.8473125412856759)
No.8:Na2[2p_z]->Cl5[3p_y](2.8473125412856759)
No.8:Na2[2p_z]->Cl5[3p_z](2.8473125412856759)
No.8:Na2[2p_z]->Cl5[3p_x](2.8473125412856759)
No.8:Na2[2p_x]->Cl5[3s](2.8473125412856759)
No.8:Na2[2p_x]->Cl5[3p_y](2.8473125412856759)
No.8:Na2[2p_x]->Cl5[3p_z](2.8473125412856759)
No.8:Na2[2p_x]->Cl5[3p_x](2.8473125412856759)
No.9:Na2->Cl6(2.8473125412856759)
No.9:Na2[3s]->Cl6[3s](2.8473125412856759)
No.9:Na2[3s]->Cl6[3p_y](2.8473125412856759)
No.9:Na2[3s]->Cl6[3p_z](2.8473125412856759)
No.9:Na2[3s]->Cl6[3p_x](2.8473125412856759)
No.9:Na2[2p_y]->Cl6[3s](2.8473125412856759)
No.9:Na2[2p_y]->Cl6[3p_y](2.8473125412856759)
No.9:Na2[2p_y]->Cl6[3p_z](2.8473125412856759)
No.9:Na2[2p_y]->Cl6[3p_x](2.8473125412856759)
No.9:Na2[2p_z]->Cl6[3s](2.8473125412856759)
No.9:Na2[2p_z]->Cl6[3p_y](2.8473125412856759)
No.9:Na2[2p_z]->Cl6[3p_z](2.8473125412856759)
No.9:Na2[2p_z]->Cl6[3p_x](2.8473125412856759)
No.9:Na2[2p_x]->Cl6[3s](2.8473125412856759)
No.9:Na2[2p_x]->Cl6[3p_y](2.8473125412856759)
No.9:Na2[2p_x]->Cl6[3p_z](2.8473125412856759)
No.9:Na2[2p_x]->Cl6[3p_x](2.8473125412856759)
No.10:Na2->Cl6(2.8473125412856759)
No.10:Na2[3s]->Cl6[3s](2.8473125412856759)
No.10:Na2[3s]->Cl6[3p_y](2.8473125412856759)
No.10:Na2[3s]->Cl6[3p_z](2.8473125412856759)
No.10:Na2[3s]->Cl6[3p_x](2.8473125412856759)
No.10:Na2[2p_y]->Cl6[3s](2.8473125412856759)
No.10:Na2[2p_y]->Cl6[3p_y](2.8473125412856759)
No.10:Na2[2p_y]->Cl6[3p_z](2.8473125412856759)
No.10:Na2[2p_y]->Cl6[3p_x](2.8473125412856759)
No.10:Na2[2p_z]->Cl6[3s](2.8473125412856759)
No.10:Na2[2p_z]->Cl6[3p_y](2.8473125412856759)
No.10:Na2[2p_z]->Cl6[3p_z](2.8473125412856759)
No.10:Na2[2p_z]->Cl6[3p_x](2.8473125412856759)
No.10:Na2[2p_x]->Cl6[3s](2.8473125412856759)
No.10:Na2[2p_x]->Cl6[3p_y](2.8473125412856759)
No.10:Na2[2p_x]->Cl6[3p_z](2.8473125412856759)
No.10:Na2[2p_x]->Cl6[3p_x](2.8473125412856759)
No.11:Na2->Cl8(2.8473125412856759)
No.11:Na2[3s]->Cl8[3s](2.8473125412856759)
No.11:Na2[3s]->Cl8[3p_y](2.8473125412856759)
No.11:Na2[3s]->Cl8[3p_z](2.8473125412856759)
No.11:Na2[3s]->Cl8[3p_x](2.8473125412856759)
No.11:Na2[2p_y]->Cl8[3s](2.8473125412856759)
No.11:Na2[2p_y]->Cl8[3p_y](2.8473125412856759)
No.11:Na2[2p_y]->Cl8[3p_z](2.8473125412856759)
No.11:Na2[2p_y]->Cl8[3p_x](2.8473125412856759)
No.11:Na2[2p_z]->Cl8[3s](2.8473125412856759)
No.11:Na2[2p_z]->Cl8[3p_y](2.8473125412856759)
No.11:Na2[2p_z]->Cl8[3p_z](2.8473125412856759)
No.11:Na2[2p_z]->Cl8[3p_x](2.8473125412856759)
No.11:Na2[2p_x]->Cl8[3s](2.8473125412856759)
No.11:Na2[2p_x]->Cl8[3p_y](2.8473125412856759)
No.11:Na2[2p_x]->Cl8[3p_z](2.8473125412856759)
No.11:Na2[2p_x]->Cl8[3p_x](2.8473125412856759)
No.12:Na2->Cl8(2.8473125412856759)
No.12:Na2[3s]->Cl8[3s](2.8473125412856759)
No.12:Na2[3s]->Cl8[3p_y](2.8473125412856759)
No.12:Na2[3s]->Cl8[3p_z](2.8473125412856759)
No.12:Na2[3s]->Cl8[3p_x](2.8473125412856759)
No.12:Na2[2p_y]->Cl8[3s](2.8473125412856759)
No.12:Na2[2p_y]->Cl8[3p_y](2.8473125412856759)
No.12:Na2[2p_y]->Cl8[3p_z](2.8473125412856759)
No.12:Na2[2p_y]->Cl8[3p_x](2.8473125412856759)
No.12:Na2[2p_z]->Cl8[3s](2.8473125412856759)
No.12:Na2[2p_z]->Cl8[3p_y](2.8473125412856759)
No.12:Na2[2p_z]->Cl8[3p_z](2.8473125412856759)
No.12:Na2[2p_z]->Cl8[3p_x](2.8473125412856759)
No.12:Na2[2p_x]->Cl8[3s](2.8473125412856759)
No.12:Na2[2p_x]->Cl8[3p_y](2.8473125412856759)
No.12:Na2[2p_x]->Cl8[3p_z](2.8473125412856759)
No.12:Na2[2p_x]->Cl8[3p_x](2.8473125412856759)
No.13:Na3->Cl5(2.8473125412856759)
No.13:Na3[3s]->Cl5[3s](2.8473125412856759)
No.13:Na3[3s]->Cl5[3p_y](2.8473125412856759)
No.13:Na3[3s]->Cl5[3p_z](2.8473125412856759)
No.13:Na3[3s]->Cl5[3p_x](2.8473125412856759)
No.13:Na3[2p_y]->Cl5[3s](2.8473125412856759)
No.13:Na3[2p_y]->Cl5[3p_y](2.8473125412856759)
No.13:Na3[2p_y]->Cl5[3p_z](2.8473125412856759)
No.13:Na3[2p_y]->Cl5[3p_x](2.8473125412856759)
No.13:Na3[2p_z]->Cl5[3s](2.8473125412856759)
No.13:Na3[2p_z]->Cl5[3p_y](2.8473125412856759)
No.13:Na3[2p_z]->Cl5[3p_z](2.8473125412856759)
No.13:Na3[2p_z]->Cl5[3p_x](2.8473125412856759)
No.13:Na3[2p_x]->Cl5[3s](2.8473125412856759)
No.13:Na3[2p_x]->Cl5[3p_y](2.8473125412856759)
No.13:Na3[2p_x]->Cl5[3p_z](2.8473125412856759)
No.13:Na3[2p_x]->Cl5[3p_x](2.8473125412856759)
No.14:Na3->Cl5(2.8473125412856759)
No.14:Na3[3s]->Cl5[3s](2.8473125412856759)
No.14:Na3[3s]->Cl5[3p_y](2.8473125412856759)
No.14:Na3[3s]->Cl5[3p_z](2.8473125412856759)
No.14:Na3[3s]->Cl5[3p_x](2.8473125412856759)
No.14:Na3[2p_y]->Cl5[3s](2.8473125412856759)
No.14:Na3[2p_y]->Cl5[3p_y](2.8473125412856759)
No.14:Na3[2p_y]->Cl5[3p_z](2.8473125412856759)
No.14:Na3[2p_y]->Cl5[3p_x](2.8473125412856759)
No.14:Na3[2p_z]->Cl5[3s](2.8473125412856759)
No.14:Na3[2p_z]->Cl5[3p_y](2.8473125412856759)
No.14:Na3[2p_z]->Cl5[3p_z](2.8473125412856759)
No.14:Na3[2p_z]->Cl5[3p_x](2.8473125412856759)
No.14:Na3[2p_x]->Cl5[3s](2.8473125412856759)
No.14:Na3[2p_x]->Cl5[3p_y](2.8473125412856759)
No.14:Na3[2p_x]->Cl5[3p_z](2.8473125412856759)
No.14:Na3[2p_x]->Cl5[3p_x](2.8473125412856759)
No.15:Na3->Cl7(2.8473125412856759)
No.15:Na3[3s]->Cl7[3s](2.8473125412856759)
No.15:Na3[3s]->Cl7[3p_y](2.8473125412856759)
No.15:Na3[3s]->Cl7[3p_z](2.8473125412856759)
No.15:Na3[3s]->Cl7[3p_x](2.8473125412856759)
No.15:Na3[2p_y]->Cl7[3s](2.8473125412856759)
No.15:Na3[2p_y]->Cl7[3p_y](2.8473125412856759)
No.15:Na3[2p_y]->Cl7[3p_z](2.8473125412856759)
No.15:Na3[2p_y]->Cl7[3p_x](2.8473125412856759)
No.15:Na3[2p_z]->Cl7[3s](2.8473125412856759)
No.15:Na3[2p_z]->Cl7[3p_y](2.8473125412856759)
No.15:Na3[2p_z]->Cl7[3p_z](2.8473125412856759)
No.15:Na3[2p_z]->Cl7[3p_x](2.8473125412856759)
No.15:Na3[2p_x]->Cl7[3s](2.8473125412856759)
No.15:Na3[2p_x]->Cl7[3p_y](2.8473125412856759)
No.15:Na3[2p_x]->Cl7[3p_z](2.8473125412856759)
No.15:Na3[2p_x]->Cl7[3p_x](2.8473125412856759)
No.16:Na3->Cl7(2.8473125412856759)
No.16:Na3[3s]->Cl7[3s](2.8473125412856759)
No.16:Na3[3s]->Cl7[3p_y](2.8473125412856759)
No.16:Na3[3s]->Cl7[3p_z](2.8473125412856759)
No.16:Na3[3s]->Cl7[3p_x](2.8473125412856759)
No.16:Na3[2p_y]->Cl7[3s](2.8473125412856759)
No.16:Na3[2p_y]->Cl7[3p_y](2.8473125412856759)
No.16:Na3[2p_y]->Cl7[3p_z](2.8473125412856759)
No.16:Na3[2p_y]->Cl7[3p_x](2.8473125412856759)
No.16:Na3[2p_z]->Cl7[3s](2.8473125412856759)
No.16:Na3[2p_z]->Cl7[3p_y](2.8473125412856759)
No.16:Na3[2p_z]->Cl7[3p_z](2.8473125412856759)
No.16:Na3[2p_z]->Cl7[3p_x](2.8473125412856759)
No.16:Na3[2p_x]->Cl7[3s](2.8473125412856759)
No.16:Na3[2p_x]->Cl7[3p_y](2.8473125412856759)
No.16:Na3[2p_x]->Cl7[3p_z](2.8473125412856759)
No.16:Na3[2p_x]->Cl7[3p_x](2.8473125412856759)
No.17:Na3->Cl8(2.8473125412856759)
No.17:Na3[3s]->Cl8[3s](2.8473125412856759)
No.17:Na3[3s]->Cl8[3p_y](2.8473125412856759)
No.17:Na3[3s]->Cl8[3p_z](2.8473125412856759)
No.17:Na3[3s]->Cl8[3p_x](2.8473125412856759)
No.17:Na3[2p_y]->Cl8[3s](2.8473125412856759)
No.17:Na3[2p_y]->Cl8[3p_y](2.8473125412856759)
No.17:Na3[2p_y]->Cl8[3p_z](2.8473125412856759)
No.17:Na3[2p_y]->Cl8[3p_x](2.8473125412856759)
No.17:Na3[2p_z]->Cl8[3s](2.8473125412856759)
No.17:Na3[2p_z]->Cl8[3p_y](2.8473125412856759)
No.17:Na3[2p_z]->Cl8[3p_z](2.8473125412856759)
No.17:Na3[2p_z]->Cl8[3p_x](2.8473125412856759)
No.17:Na3[2p_x]->Cl8[3s](2.8473125412856759)
No.17:Na3[2p_x]->Cl8[3p_y](2.8473125412856759)
No.17:Na3[2p_x]->Cl8[3p_z](2.8473125412856759)
No.17:Na3[2p_x]->Cl8[3p_x](2.8473125412856759)
No.18:Na3->Cl8(2.8473125412856759)
No.18:Na3[3s]->Cl8[3s](2.8473125412856759)
No.18:Na3[3s]->Cl8[3p_y](2.8473125412856759)
No.18:Na3[3s]->Cl8[3p_z](2.8473125412856759)
No.18:Na3[3s]->Cl8[3p_x](2.8473125412856759)
No.18:Na3[2p_y]->Cl8[3s](2.8473125412856759)
No.18:Na3[2p_y]->Cl8[3p_y](2.8473125412856759)
No.18:Na3[2p_y]->Cl8[3p_z](2.8473125412856759)
No.18:Na3[2p_y]->Cl8[3p_x](2.8473125412856759)
No.18:Na3[2p_z]->Cl8[3s](2.8473125412856759)
No.18:Na3[2p_z]->Cl8[3p_y](2.8473125412856759)
No.18:Na3[2p_z]->Cl8[3p_z](2.8473125412856759)
No.18:Na3[2p_z]->Cl8[3p_x](2.8473125412856759)
No.18:Na3[2p_x]->Cl8[3s](2.8473125412856759)
No.18:Na3[2p_x]->Cl8[3p_y](2.8473125412856759)
No.18:Na3[2p_x]->Cl8[3p_z](2.8473125412856759)
No.18:Na3[2p_x]->Cl8[3p_x](2.8473125412856759)
No.19:Na4->Cl6(2.8473125412856759)
No.19:Na4[3s]->Cl6[3s](2.8473125412856759)
No.19:Na4[3s]->Cl6[3p_y](2.8473125412856759)
No.19:Na4[3s]->Cl6[3p_z](2.8473125412856759)
No.19:Na4[3s]->Cl6[3p_x](2.8473125412856759)
No.19:Na4[2p_y]->Cl6[3s](2.8473125412856759)
No.19:Na4[2p_y]->Cl6[3p_y](2.8473125412856759)
No.19:Na4[2p_y]->Cl6[3p_z](2.8473125412856759)
No.19:Na4[2p_y]->Cl6[3p_x](2.8473125412856759)
No.19:Na4[2p_z]->Cl6[3s](2.8473125412856759)
No.19:Na4[2p_z]->Cl6[3p_y](2.8473125412856759)
No.19:Na4[2p_z]->Cl6[3p_z](2.8473125412856759)
No.19:Na4[2p_z]->Cl6[3p_x](2.8473125412856759)
No.19:Na4[2p_x]->Cl6[3s](2.8473125412856759)
No.19:Na4[2p_x]->Cl6[3p_y](2.8473125412856759)
No.19:Na4[2p_x]->Cl6[3p_z](2.8473125412856759)
No.19:Na4[2p_x]->Cl6[3p_x](2.8473125412856759)
No.20:Na4->Cl6(2.8473125412856759)
No.20:Na4[3s]->Cl6[3s](2.8473125412856759)
No.20:Na4[3s]->Cl6[3p_y](2.8473125412856759)
No.20:Na4[3s]->Cl6[3p_z](2.8473125412856759)
No.20:Na4[3s]->Cl6[3p_x](2.8473125412856759)
No.20:Na4[2p_y]->Cl6[3s](2.8473125412856759)
No.20:Na4[2p_y]->Cl6[3p_y](2.8473125412856759)
No.20:Na4[2p_y]->Cl6[3p_z](2.8473125412856759)
No.20:Na4[2p_y]->Cl6[3p_x](2.8473125412856759)
No.20:Na4[2p_z]->Cl6[3s](2.8473125412856759)
No.20:Na4[2p_z]->Cl6[3p_y](2.8473125412856759)
No.20:Na4[2p_z]->Cl6[3p_z](2.8473125412856759)
No.20:Na4[2p_z]->Cl6[3p_x](2.8473125412856759)
No.20:Na4[2p_x]->Cl6[3s](2.8473125412856759)
No.20:Na4[2p_x]->Cl6[3p_y](2.8473125412856759)
No.20:Na4[2p_x]->Cl6[3p_z](2.8473125412856759)
No.20:Na4[2p_x]->Cl6[3p_x](2.8473125412856759)
No.21:Na4->Cl7(2.8473125412856759)
No.21:Na4[3s]->Cl7[3s](2.8473125412856759)
No.21:Na4[3s]->Cl7[3p_y](2.8473125412856759)
No.21:Na4[3s]->Cl7[3p_z](2.8473125412856759)
No.21:Na4[3s]->Cl7[3p_x](2.8473125412856759)
No.21:Na4[2p_y]->Cl7[3s](2.8473125412856759)
No.21:Na4[2p_y]->Cl7[3p_y](2.8473125412856759)
No.21:Na4[2p_y]->Cl7[3p_z](2.8473125412856759)
No.21:Na4[2p_y]->Cl7[3p_x](2.8473125412856759)
No.21:Na4[2p_z]->Cl7[3s](2.8473125412856759)
No.21:Na4[2p_z]->Cl7[3p_y](2.8473125412856759)
No.21:Na4[2p_z]->Cl7[3p_z](2.8473125412856759)
No.21:Na4[2p_z]->Cl7[3p_x](2.8473125412856759)
No.21:Na4[2p_x]->Cl7[3s](2.8473125412856759)
No.21:Na4[2p_x]->Cl7[3p_y](2.8473125412856759)
No.21:Na4[2p_x]->Cl7[3p_z](2.8473125412856759)
No.21:Na4[2p_x]->Cl7[3p_x](2.8473125412856759)
No.22:Na4->Cl7(2.8473125412856759)
No.22:Na4[3s]->Cl7[3s](2.8473125412856759)
No.22:Na4[3s]->Cl7[3p_y](2.8473125412856759)
No.22:Na4[3s]->Cl7[3p_z](2.8473125412856759)
No.22:Na4[3s]->Cl7[3p_x](2.8473125412856759)
No.22:Na4[2p_y]->Cl7[3s](2.8473125412856759)
No.22:Na4[2p_y]->Cl7[3p_y](2.8473125412856759)
No.22:Na4[2p_y]->Cl7[3p_z](2.8473125412856759)
No.22:Na4[2p_y]->Cl7[3p_x](2.8473125412856759)
No.22:Na4[2p_z]->Cl7[3s](2.8473125412856759)
No.22:Na4[2p_z]->Cl7[3p_y](2.8473125412856759)
No.22:Na4[2p_z]->Cl7[3p_z](2.8473125412856759)
No.22:Na4[2p_z]->Cl7[3p_x](2.8473125412856759)
No.22:Na4[2p_x]->Cl7[3s](2.8473125412856759)
No.22:Na4[2p_x]->Cl7[3p_y](2.8473125412856759)
No.22:Na4[2p_x]->Cl7[3p_z](2.8473125412856759)
No.22:Na4[2p_x]->Cl7[3p_x](2.8473125412856759)
No.23:Na4->Cl8(2.8473125412856759)
No.23:Na4[3s]->Cl8[3s](2.8473125412856759)
No.23:Na4[3s]->Cl8[3p_y](2.8473125412856759)
No.23:Na4[3s]->Cl8[3p_z](2.8473125412856759)
No.23:Na4[3s]->Cl8[3p_x](2.8473125412856759)
No.23:Na4[2p_y]->Cl8[3s](2.8473125412856759)
No.23:Na4[2p_y]->Cl8[3p_y](2.8473125412856759)
No.23:Na4[2p_y]->Cl8[3p_z](2.8473125412856759)
No.23:Na4[2p_y]->Cl8[3p_x](2.8473125412856759)
No.23:Na4[2p_z]->Cl8[3s](2.8473125412856759)
No.23:Na4[2p_z]->Cl8[3p_y](2.8473125412856759)
No.23:Na4[2p_z]->Cl8[3p_z](2.8473125412856759)
No.23:Na4[2p_z]->Cl8[3p_x](2.8473125412856759)
No.23:Na4[2p_x]->Cl8[3s](2.8473125412856759)
No.23:Na4[2p_x]->Cl8[3p_y](2.8473125412856759)
No.23:Na4[2p_x]->Cl8[3p_z](2.8473125412856759)
No.23:Na4[2p_x]->Cl8[3p_x](2.8473125412856759)
No.24:Na4->Cl8(2.8473125412856759)
No.24:Na4[3s]->Cl8[3s](2.8473125412856759)
No.24:Na4[3s]->Cl8[3p_y](2.8473125412856759)
No.24:Na4[3s]->Cl8[3p_z](2.8473125412856759)
No.24:Na4[3s]->Cl8[3p_x](2.8473125412856759)
No.24:Na4[2p_y]->Cl8[3s](2.8473125412856759)
No.24:Na4[2p_y]->Cl8[3p_y](2.8473125412856759)
No.24:Na4[2p_y]->Cl8[3p_z](2.8473125412856759)
No.24:Na4[2p_y]->Cl8[3p_x](2.8473125412856759)
No.24:Na4[2p_z]->Cl8[3s](2.8473125412856759)
No.24:Na4[2p_z]->Cl8[3p_y](2.8473125412856759)
No.24:Na4[2p_z]->Cl8[3p_z](2.8473125412856759)
No.24:Na4[2p_z]->Cl8[3p_x](2.8473125412856759)
No.24:Na4[2p_x]->Cl8[3s](2.8473125412856759)
No.24:Na4[2p_x]->Cl8[3p_y](2.8473125412856759)
No.24:Na4[2p_x]->Cl8[3p_z](2.8473125412856759)
No.24:Na4[2p_x]->Cl8[3p_x](2.8473125412856759)
-4.44444  0.00000 -0.38118  0.00000 -0.38118  0.00000 -0.36252  0.00000  0.00104  0.00000 -0.00000  0.00000 -0.00000  0.00000  0.00039  0.00000 -0.01935  0.00000 -0.00000  0.00000  0.00000  0.00000 -0.00000  0.00000 -0.00000  0.00000 -0.00037  0.00000 -0.00000  0.00000 -0.00000  0.00000 -0.00000  0.00000 -0.00000  0.00000 -0.00037  0.00000 -0.38118  0.00000 -0.36251  0.00000  0.00104  0.00000 -0.00000  0.00000 -0.00000  0.00000  0.00039  0.00000 -0.01935  0.00000 -0.00000  0.00000 -0.00000  0.00000 -0.00000  0.00000  0.00000  0.00000 -0.00037  0.00000 -0.00000  0.00000 -0.00000  0.00000 -0.00000  0.00000 -0.00000  0.00000 -0.00037  0.00000 -0.38118  0.00000 -0.36251  0.00000 -0.00000  0.00000 -0.00000  0.00000  0.00104  0.00000 -0.00000  0.00000 -0.00037  0.00000 -0.00000  0.00000  0.00000  0.00000 -0.00000  0.00000 -0.00000  0.00000 -0.00037  0.00000 -0.00000  0.00000  0.00039  0.00000 -0.00000  0.00000 -0.00000  0.00000 -0.01935  0.00000 -0.38118  0.00000 -0.36251  0.00000 -0.00000  0.00000  0.00000  0.00000  0.00104  0.00000 -0.00000  0.00000 -0.00037  0.00000 -0.00000  0.00000 -0.00000  0.00000 -0.00000  0.00000 -0.00000  0.00000 -0.00037  0.00000 -0.00000  0.00000  0.00039  0.00000 -0.00000  0.00000 -0.00000  0.00000 -0.01935  0.00000 -0.38118  0.00000 -0.36251  0.00000 -0.00000  0.00000  0.00104  0.00000  0.00000  0.00000 -0.00000  0.00000 -0.00037  0.00000 -0.00000  0.00000 -0.00000  0.00000  0.00039  0.00000 -0.00000  0.00000 -0.01935  0.00000 -0.00000  0.00000 -0.00000  0.00000 -0.00000  0.00000 -0.00000  0.00000 -0.00037  0.00000 -0.38118  0.00000 -0.36251  0.00000 -0.00000  0.00000  0.00104  0.00000 -0.00000  0.00000 -0.00000  0.00000 -0.00037  0.00000 -0.00000  0.00000 -0.00000  0.00000  0.00039  0.00000 -0.00000  0.00000 -0.01935  0.00000 -0.00000  0.00000 -0.00000  0.00000 -0.00000  0.00000 -0.00000  0.00000 -0.00037  0.00000 -0.38118  0.00000 -0.36252  0.00000 -0.00000  0.00000 -0.00000  0.00000  0.00104  0.00000 -0.00000  0.00000 -0.00037  0.00000 -0.00000  0.00000 -0.00000  0.00000 -0.00000  0.00000 -0.00000  0.00000 -0.00037  0.00000 -0.00000  0.00000  0.00039  0.00000 -0.00000  0.00000 -0.00000  0.00000 -0.01935  0.00000 -0.38118  0.00000 -0.36252  0.00000 -0.00000  0.00000  0.00000  0.00000  0.00104  0.00000 -0.00000  0.00000 -0.00037  0.00000 -0.00000  0.00000  0.00000  0.00000 -0.00000  0.00000 -0.00000  0.00000 -0.00037  0.00000 -0.00000  0.00000  0.00039  0.00000 -0.00000  0.00000 -0.00000  0.00000 -0.01935  0.00000 -0.38118  0.00000 -0.36251  0.00000  0.00104  0.00000 -0.00000  0.00000  0.00000  0.00000  0.00039  0.00000 -0.01935  0.00000 -0.00000  0.00000 -0.00000  0.00000 -0.00000  0.00000 -0.00000  0.00000 -0.00037  0.00000 -0.00000  0.00000 -0.00000  0.00000 -0.00000  0.00000 -0.00000  0.00000 -0.00037  0.00000 -0.38118  0.00000 -0.36251  0.00000  0.00104  0.00000  0.00000  0.00000 -0.00000  0.00000  0.00039  0.00000 -0.01935  0.00000 -0.00000  0.00000 -0.00000  0.00000 -0.00000  0.00000 -0.00000  0.00000 -0.00037  0.00000 -0.00000  0.00000 -0.00000  0.00000 -0.00000  0.00000 -0.00000  0.00000 -0.00037  0.00000 -0.38118  0.00000 -0.36251  0.00000 -0.00000  0.00000  0.00104  0.00000 -0.00000  0.00000 -0.00000  0.00000 -0.00037  0.00000 -0.00000  0.00000 -0.00000  0.00000  0.00039  0.00000 -0.00000  0.00000 -0.01935  0.00000 -0.00000  0.00000 -0.00000  0.00000 -0.00000  0.00000 -0.00000  0.00000 -0.00037  0.00000 -0.38118  0.00000 -0.36251  0.00000 -0.00000  0.00000  0.00104  0.00000 -0.00000  0.00000 -0.00000  0.00000 -0.00037  0.00000 -0.00000  0.00000 -0.00000  0.00000  0.00039  0.00000 -0.00000  0.00000 -0.01935  0.00000 -0.00000  0.00000 -0.00000  0.00000 -0.00000  0.00000 -0.00000  0.00000 -0.00037  0.00000 -0.38118  0.00000 -0.36251  0.00000 -0.00000  0.00000  0.00104  0.00000 -0.00000  0.00000 -0.00000  0.00000 -0.00037  0.00000 -0.00000  0.00000  0.00000  0.00000  0.00039  0.00000 -0.00000  0.00000 -0.01935  0.00000 -0.00000  0.00000 -0.00000  0.00000 -0.00000  0.00000 -0.00000  0.00000 -0.00037  0.00000 -0.38118  0.00000 -0.36251  0.00000 -0.00000  0.00000  0.00104  0.00000 -0.00000  0.00000 -0.00000  0.00000 -0.00037  0.00000 -0.00000  0.00000 -0.00000  0.00000  0.00039  0.00000 -0.00000  0.00000 -0.01935  0.00000 -0.00000  0.00000 -0.00000  0.00000 -0.00000  0.00000 -0.00000  0.00000 -0.00037  0.00000 -0.38118  0.00000 -0.36251  0.00000  0.00104  0.00000 -0.00000  0.00000 -0.00000  0.00000  0.00039  0.00000 -0.01935  0.00000 -0.00000  0.00000 -0.00000  0.00000 -0.00000  0.00000 -0.00000  0.00000 -0.00037  0.00000 -0.00000  0.00000 -0.00000  0.00000 -0.00000  0.00000 -0.00000  0.00000 -0.00037  0.00000 -0.38118  0.00000 -0.36251  0.00000  0.00104  0.00000 -0.00000  0.00000 -0.00000  0.00000  0.00039  0.00000 -0.01935  0.00000 -0.00000  0.00000 -0.00000  0.00000 -0.00000  0.00000 -0.00000  0.00000 -0.00037  0.00000 -0.00000  0.00000 -0.00000  0.00000 -0.00000  0.00000 -0.00000  0.00000 -0.00037  0.00000 -0.38118  0.00000 -0.36252  0.00000 -0.00000  0.00000 -0.00000  0.00000  0.00104  0.00000 -0.00000  0.00000 -0.00037  0.00000 -0.00000  0.00000 -0.00000  0.00000 -0.00000  0.00000 -0.00000  0.00000 -0.00037  0.00000 -0.00000  0.00000  0.00039  0.00000 -0.00000  0.00000 -0.00000  0.00000 -0.01935  0.00000 -0.38118  0.00000 -0.36252  0.00000 -0.00000  0.00000  0.00000  0.00000  0.00104  0.00000 -0.00000  0.00000 -0.00037  0.00000 -0.00000  0.00000 -0.00000  0.00000 -0.00000  0.00000 -0.00000  0.00000 -0.00037  0.00000 -0.00000  0.00000  0.00039  0.00000 -0.00000  0.00000 -0.00000  0.00000 -0.01935  0.00000 -0.38118  0.00000 -0.36252  0.00000 -0.00000  0.00000  0.00104  0.00000 -0.00000  0.00000 -0.00000  0.00000 -0.00037  0.00000 -0.00000  0.00000 -0.00000  0.00000  0.00039  0.00000 -0.00000  0.00000 -0.01935  0.00000 -0.00000  0.00000 -0.00000  0.00000 -0.00000  0.00000 -0.00000  0.00000 -0.00037  0.00000 -0.38118  0.00000 -0.36251  0.00000  0.00000  0.00000  0.00104  0.00000 -0.00000  0.00000 -0.00000  0.00000 -0.00037  0.00000 -0.00000  0.00000 -0.00000  0.00000  0.00039  0.00000 -0.00000  0.00000 -0.01935  0.00000 -0.00000  0.00000 -0.00000  0.00000 -0.00000  0.00000 -0.00000  0.00000 -0.00037  0.00000 -0.38118  0.00000 -0.36251  0.00000 -0.00000  0.00000 -0.00000  0.00000  0.00104  0.00000 -0.00000  0.00000 -0.00037  0.00000 -0.00000  0.00000 -0.00000  0.00000 -0.00000  0.00000 -0.00000  0.00000 -0.00037  0.00000 -0.00000  0.00000  0.00039  0.00000 -0.00000  0.00000 -0.00000  0.00000 -0.01935  0.00000 -0.38118  0.00000 -0.36251  0.00000 -0.00000  0.00000  0.00000  0.00000  0.00104  0.00000 -0.00000  0.00000 -0.00037  0.00000 -0.00000  0.00000 -0.00000  0.00000 -0.00000  0.00000 -0.00000  0.00000 -0.00037  0.00000 -0.00000  0.00000  0.00039  0.00000 -0.00000  0.00000 -0.00000  0.00000 -0.01935  0.00000 -0.38118  0.00000 -0.36251  0.00000  0.00104  0.00000 -0.00000  0.00000 -0.00000  0.00000  0.00039  0.00000 -0.01935  0.00000 -0.00000  0.00000 -0.00000  0.00000 -0.00000  0.00000 -0.00000  0.00000 -0.00037  0.00000 -0.00000  0.00000 -0.00000  0.00000 -0.00000  0.00000 -0.00000  0.00000 -0.00037  0.00000 -0.38118  0.00000 -0.36252  0.00000  0.00104  0.00000 -0.00000  0.00000 -0.00000  0.00000  0.00039  0.00000 -0.01935  0.00000 -0.00000  0.00000 -0.00000  0.00000 -0.00000  0.00000 -0.00000  0.00000 -0.00037  0.00000 -0.00000  0.00000  0.00000  0.00000 -0.00000  0.00000 -0.00000  0.00000 -0.00037