   8    8    1    1
  1.8466960e+02   5.6946251e-10   5.6946251e-10   5.6946251e-10   5.0000000e-16
            1.000000e-04
  CAR
 DOS and projected DOS file by LOBSTER. Energy is shifted such that the Fermi level lies at 0 eV. 
      3.55214088      -5.33674800    11      -0.89230356       1.00000000
-4.44444  0.00000 31.99992
-3.55556  0.00000 31.99992
-2.66667  0.00000 31.99992
-1.77778  0.00000 31.99992
-0.88889  9.45706 40.40619
 0.00000 17.54287 55.99986
 0.88889  0.00000 55.99986
 1.77778  0.00000 55.99986
 2.66667  0.00000 55.99986
 3.55556  0.00000 55.99986
 4.44444  0.00000 55.99986
      4.44444444      -4.44444444    11      -0.89230356       1.00000000; Z= 11; 3s 2p_y 2p_z 2p_x 
-4.44444  0.00000  0.00000  0.00000  0.00000
-3.55556  0.00000  0.00000  0.00000  0.00000
-2.66667  0.00000  0.00000  0.00000  0.00000
-1.77778  0.00000  0.00000  0.00000  0.00000
-0.88889  0.15212  0.00050  0.00052  0.00052
 0.00000  0.02396  0.00070  0.00068  0.00068
 0.88889  0.00000  0.00000  0.00000  0.00000
 1.77778  0.00000  0.00000  0.00000  0.00000
 2.66667  0.00000  0.00000  0.00000  0.00000
 3.55556  0.00000  0.00000  0.00000  0.00000
 4.44444  0.00000  0.00000  0.00000  0.00000
      4.44444444      -4.44444444    11      -0.89230356       1.00000000; Z= 11; 3s 2p_y 2p_z 2p_x 
-4.44444  0.00000  0.00000  0.00000  0.00000
-3.55556  0.00000  0.00000  0.00000  0.00000
-2.66667  0.00000  0.00000  0.00000  0.00000
-1.77778  0.00000  0.00000  0.00000  0.00000
-0.88889  0.15201  0.00051  0.00052  0.00050
 0.00000  0.02407  0.00069  0.00068  0.00070
 0.88889  0.00000  0.00000  0.00000  0.00000
 1.77778  0.00000  0.00000  0.00000  0.00000
 2.66667  0.00000  0.00000  0.00000  0.00000
 3.55556  0.00000  0.00000  0.00000  0.00000
 4.44444  0.00000  0.00000  0.00000  0.00000
      4.44444444      -4.44444444    11      -0.89230356       1.00000000; Z= 11; 3s 2p_y 2p_z 2p_x 
-4.44444  0.00000  0.00000  0.00000  0.00000
-3.55556  0.00000  0.00000  0.00000  0.00000
-2.66667  0.00000  0.00000  0.00000  0.00000
-1.77778  0.00000  0.00000  0.00000  0.00000
-0.88889  0.15191  0.00052  0.00049  0.00053
 0.00000  0.02417  0.00068  0.00071  0.00067
 0.88889  0.00000  0.00000  0.00000  0.00000
 1.77778  0.00000  0.00000  0.00000  0.00000
 2.66667  0.00000  0.00000  0.00000  0.00000
 3.55556  0.00000  0.00000  0.00000  0.00000
 4.44444  0.00000  0.00000  0.00000  0.00000
      4.44444444      -4.44444444    11      -0.89230356       1.00000000; Z= 11; 3s 2p_y 2p_z 2p_x 
-4.44444  0.00000  0.00000  0.00000  0.00000
-3.55556  0.00000  0.00000  0.00000  0.00000
-2.66667  0.00000  0.00000  0.00000  0.00000
-1.77778  0.00000  0.00000  0.00000  0.00000
-0.88889  0.15194  0.00053  0.00051  0.00053
 0.00000  0.02413  0.00067  0.00069  0.00067
 0.88889  0.00000  0.00000  0.00000  0.00000
 1.77778  0.00000  0.00000  0.00000  0.00000
 2.66667  0.00000  0.00000  0.00000  0.00000
 3.55556  0.00000  0.00000  0.00000  0.00000
 4.44444  0.00000  0.00000  0.00000  0.00000
      4.44444444      -4.44444444    11      -0.89230356       1.00000000; Z= 17; 3s 3p_y 3p_z 3p_x 
-4.44444  0.00000  0.00000  0.00000  0.00000
-3.55556  0.00000  0.00000  0.00000  0.00000
-2.66667  0.00000  0.00000  0.00000  0.00000
-1.77778  0.00000  0.00000  0.00000  0.00000
-0.88889  0.00363  0.71633  0.70943  0.71986
 0.00000  0.00124  1.47215  1.47905  1.46862
 0.88889  0.00000  0.00000  0.00000  0.00000
 1.77778  0.00000  0.00000  0.00000  0.00000
 2.66667  0.00000  0.00000  0.00000  0.00000
 3.55556  0.00000  0.00000  0.00000  0.00000
 4.44444  0.00000  0.00000  0.00000  0.00000
      4.44444444      -4.44444444    11      -0.89230356       1.00000000; Z= 17; 3s 3p_y 3p_z 3p_x 
-4.44444  0.00000  0.00000  0.00000  0.00000
-3.55556  0.00000  0.00000  0.00000  0.00000
-2.66667  0.00000  0.00000  0.00000  0.00000
-1.77778  0.00000  0.00000  0.00000  0.00000
-0.88889  0.00364  0.73135  0.72998  0.73967
 0.00000  0.00123  1.45713  1.45850  1.44881
 0.88889  0.00000  0.00000  0.00000  0.00000
 1.77778  0.00000  0.00000  0.00000  0.00000
 2.66667  0.00000  0.00000  0.00000  0.00000
 3.55556  0.00000  0.00000  0.00000  0.00000
 4.44444  0.00000  0.00000  0.00000  0.00000
      4.44444444      -4.44444444    11      -0.89230356       1.00000000; Z= 17; 3s 3p_y 3p_z 3p_x 
-4.44444  0.00000  0.00000  0.00000  0.00000
-3.55556  0.00000  0.00000  0.00000  0.00000
-2.66667  0.00000  0.00000  0.00000  0.00000
-1.77778  0.00000  0.00000  0.00000  0.00000
-0.88889  0.00364  0.73843  0.74065  0.74749
 0.00000  0.00123  1.45005  1.44783  1.44099
 0.88889  0.00000  0.00000  0.00000  0.00000
 1.77778  0.00000  0.00000  0.00000  0.00000
 2.66667  0.00000  0.00000  0.00000  0.00000
 3.55556  0.00000  0.00000  0.00000  0.00000
 4.44444  0.00000  0.00000  0.00000  0.00000
      4.44444444      -4.44444444    11      -0.89230356       1.00000000; Z= 17; 3s 3p_y 3p_z 3p_x 
-4.44444  0.00000  0.00000  0.00000  0.00000
-3.55556  0.00000  0.00000  0.00000  0.00000
-2.66667  0.00000  0.00000  0.00000  0.00000
-1.77778  0.00000  0.00000  0.00000  0.00000
-0.88889  0.00364  0.75189  0.74857  0.75468
 0.00000  0.00123  1.43659  1.43990  1.43380
 0.88889  0.00000  0.00000  0.00000  0.00000
 1.77778  0.00000  0.00000  0.00000  0.00000
 2.66667  0.00000  0.00000  0.00000  0.00000
 3.55556  0.00000  0.00000  0.00000  0.00000
 4.44444  0.00000  0.00000  0.00000  0.00000
