   8    8    1    1
  1.8466960e+02   5.6946251e-10   5.6946251e-10   5.6946251e-10   5.0000000e-16
            1.000000e-04
  CAR
 DOS and projected DOS file by LOBSTER. Energy is shifted such that the Fermi level lies at 0 eV. 
      3.55214088      -5.33674800    11      -0.89230356       1.00000000
-4.44444  0.00000 31.99992
-3.55556  0.00000 31.99992
-2.66667  0.00000 31.99992
-1.77778  0.00000 31.99992
-0.88889  9.45706 40.40619
 0.00000 17.54287 55.99986
 0.88889  0.00000 55.99986
 1.77778  0.00000 55.99986
 2.66667  0.00000 55.99986
 3.55556  0.00000 55.99986
 4.44444  0.00000 55.99986
      4.44444444      -4.44444444    11      -0.89230356       1.00000000; NaCl; X 1a1 1e 2e 2a1 3a1 3e 4e 4a1 
-4.44444  0.00000  0.00000  0.00000  0.00000  0.00000  0.00000  0.00000  0.00000
-3.55556  0.00000  0.00000  0.00000  0.00000  0.00000  0.00000  0.00000  0.00000
-2.66667  0.00000  0.00000  0.00000  0.00000  0.00000  0.00000  0.00000  0.00000
-1.77778  0.00000  0.00000  0.00000  0.00000  0.00000  0.00000  0.00000  0.00000
-0.88889  0.00064  0.00099  0.00100  0.01087  0.76147  0.70742  0.69427  0.12639
 0.00000  0.00066  0.00130  0.00129  0.00350  1.44204  1.46432  1.47746  0.05636
 0.88889  0.00000  0.00000  0.00000  0.00000  0.00000  0.00000  0.00000  0.00000
 1.77778  0.00000  0.00000  0.00000  0.00000  0.00000  0.00000  0.00000  0.00000
 2.66667  0.00000  0.00000  0.00000  0.00000  0.00000  0.00000  0.00000  0.00000
 3.55556  0.00000  0.00000  0.00000  0.00000  0.00000  0.00000  0.00000  0.00000
 4.44444  0.00000  0.00000  0.00000  0.00000  0.00000  0.00000  0.00000  0.00000
      4.44444444      -4.44444444    11      -0.89230356       1.00000000; Na2; X 1a1u 1e1g 2e1g 1e1u 2e1u 1a1g 2a1g 2a1u 
-4.44444  0.00000  0.00000  0.00000  0.00000  0.00000  0.00000  0.00000  0.00000
-3.55556  0.00000  0.00000  0.00000  0.00000  0.00000  0.00000  0.00000  0.00000
-2.66667  0.00000  0.00000  0.00000  0.00000  0.00000  0.00000  0.00000  0.00000
-1.77778  0.00000  0.00000  0.00000  0.00000  0.00000  0.00000  0.00000  0.00000
-0.88889  0.00057  0.00071  0.00160  0.00050  0.00141  0.00146  0.18275  0.18497
 0.00000  0.00129  0.00150  0.00116  0.00140  0.00105  0.00128  0.03398  0.02160
 0.88889  0.00000  0.00000  0.00000  0.00000  0.00000  0.00000  0.00000  0.00000
 1.77778  0.00000  0.00000  0.00000  0.00000  0.00000  0.00000  0.00000  0.00000
 2.66667  0.00000  0.00000  0.00000  0.00000  0.00000  0.00000  0.00000  0.00000
 3.55556  0.00000  0.00000  0.00000  0.00000  0.00000  0.00000  0.00000  0.00000
 4.44444  0.00000  0.00000  0.00000  0.00000  0.00000  0.00000  0.00000  0.00000
      4.44444444      -4.44444444    11      -0.89230356       1.00000000;  Na; X 3s 2p_y 2p_z 2p_x 
-4.44444  0.00000  0.00000  0.00000  0.00000
-3.55556  0.00000  0.00000  0.00000  0.00000
-2.66667  0.00000  0.00000  0.00000  0.00000
-1.77778  0.00000  0.00000  0.00000  0.00000
-0.88889  0.18368  0.00109  0.00105  0.00108
 0.00000  0.02793  0.00125  0.00128  0.00125
 0.88889  0.00000  0.00000  0.00000  0.00000
 1.77778  0.00000  0.00000  0.00000  0.00000
 2.66667  0.00000  0.00000  0.00000  0.00000
 3.55556  0.00000  0.00000  0.00000  0.00000
 4.44444  0.00000  0.00000  0.00000  0.00000
      4.44444444      -4.44444444    11      -0.89230356       1.00000000;  Cl; X 3s 3p_y 3p_z 3p_x 
-4.44444  0.00000  0.00000  0.00000  0.00000
-3.55556  0.00000  0.00000  0.00000  0.00000
-2.66667  0.00000  0.00000  0.00000  0.00000
-1.77778  0.00000  0.00000  0.00000  0.00000
-0.88889  0.01187  0.71744  0.71615  0.72570
 0.00000  0.00440  1.45426  1.45555  1.44599
 0.88889  0.00000  0.00000  0.00000  0.00000
 1.77778  0.00000  0.00000  0.00000  0.00000
 2.66667  0.00000  0.00000  0.00000  0.00000
 3.55556  0.00000  0.00000  0.00000  0.00000
 4.44444  0.00000  0.00000  0.00000  0.00000
      4.44444444      -4.44444444    11      -0.89230356       1.00000000;  Cl; X 3s 3p_y 3p_z 3p_x 
-4.44444  0.00000  0.00000  0.00000  0.00000
-3.55556  0.00000  0.00000  0.00000  0.00000
-2.66667  0.00000  0.00000  0.00000  0.00000
-1.77778  0.00000  0.00000  0.00000  0.00000
-0.88889  0.01187  0.72454  0.72665  0.73365
 0.00000  0.00440  1.44716  1.44504  1.43804
 0.88889  0.00000  0.00000  0.00000  0.00000
 1.77778  0.00000  0.00000  0.00000  0.00000
 2.66667  0.00000  0.00000  0.00000  0.00000
 3.55556  0.00000  0.00000  0.00000  0.00000
 4.44444  0.00000  0.00000  0.00000  0.00000
      4.44444444      -4.44444444    11      -0.89230356       1.00000000;  Cl; X 3s 3p_y 3p_z 3p_x 
-4.44444  0.00000  0.00000  0.00000  0.00000
-3.55556  0.00000  0.00000  0.00000  0.00000
-2.66667  0.00000  0.00000  0.00000  0.00000
-1.77778  0.00000  0.00000  0.00000  0.00000
-0.88889  0.01187  0.73805  0.73460  0.74075
 0.00000  0.00440  1.43365  1.43710  1.43095
 0.88889  0.00000  0.00000  0.00000  0.00000
 1.77778  0.00000  0.00000  0.00000  0.00000
 2.66667  0.00000  0.00000  0.00000  0.00000
 3.55556  0.00000  0.00000  0.00000  0.00000
 4.44444  0.00000  0.00000  0.00000  0.00000
