    8    8    1    1
  0.2308370E+02  0.5694625E-09  0.5694625E-09  0.5694625E-09  0.5000000E-15
  1.000000000000000E-004
  CAR 
 LOBSTER                                 
     56    125     32
 
  0.0000000E+00  0.0000000E+00  0.0000000E+00  0.8000000E-02
    1      -21.788669   1.000000
    2      -21.788669   1.000000
    3      -21.788669   1.000000
    4      -21.778150   1.000000
    5      -21.778150   1.000000
    6      -21.778150   1.000000
    7      -21.778150   1.000000
    8      -21.778149   1.000000
    9      -21.778149   1.000000
   10      -21.771035   1.000000
   11      -21.771035   1.000000
   12      -21.771035   1.000000
   13      -13.490953   1.000000
   14      -13.136687   1.000000
   15      -13.136686   1.000000
   16      -13.136684   1.000000
   17       -2.478087   1.000000
   18       -2.478087   1.000000
   19       -2.478087   1.000000
   20       -1.463073   1.000000
   21       -1.463073   1.000000
   22       -1.463072   1.000000
   23       -1.463072   1.000000
   24       -1.463072   1.000000
   25       -1.463071   1.000000
   26       -0.895289   1.000000
   27       -0.895289   1.000000
   28       -0.895289   1.000000
   29        4.102599   0.000000
   30        6.554157   0.000000
   31        6.554157   0.000000
   32        6.554157   0.000000
 
  0.2000000E+00  0.0000000E+00  0.0000000E+00  0.8000000E-02
    1      -21.787655   1.000000
    2      -21.787655   1.000000
    3      -21.787642   1.000000
    4      -21.779154   1.000000
    5      -21.779154   1.000000
    6      -21.778755   1.000000
    7      -21.778755   1.000000
    8      -21.777471   1.000000
    9      -21.777471   1.000000
   10      -21.773355   1.000000
   11      -21.771708   1.000000
   12      -21.771708   1.000000
   13      -13.453991   1.000000
   14      -13.166986   1.000000
   15      -13.131534   1.000000
   16      -13.131533   1.000000
   17       -2.397431   1.000000
   18       -2.397431   1.000000
   19       -2.392252   1.000000
   20       -1.581305   1.000000
   21       -1.581305   1.000000
   22       -1.515250   1.000000
   23       -1.515249   1.000000
   24       -1.414333   1.000000
   25       -1.414333   1.000000
   26       -1.148232   1.000000
   27       -0.955811   1.000000
   28       -0.955811   1.000000
   29        4.529384   0.000000
   30        6.648684   0.000000
   31        6.887425   0.000000
   32        6.887425   0.000000
 
  0.4000000E+00  0.0000000E+00  0.0000000E+00  0.8000000E-02
    1      -21.785027   1.000000
    2      -21.785027   1.000000
    3      -21.784264   1.000000
    4      -21.781776   1.000000
    5      -21.781776   1.000000
    6      -21.779748   1.000000
    7      -21.779748   1.000000
    8      -21.778796   1.000000
    9      -21.775678   1.000000
   10      -21.775678   1.000000
   11      -21.773466   1.000000
   12      -21.773466   1.000000
   13      -13.360040   1.000000
   14      -13.250172   1.000000
   15      -13.123166   1.000000
   16      -13.123165   1.000000
   17       -2.173241   1.000000
   18       -2.173241   1.000000
   19       -2.119425   1.000000
   20       -1.864495   1.000000
   21       -1.864495   1.000000
   22       -1.663035   1.000000
   23       -1.597111   1.000000
   24       -1.597110   1.000000
   25       -1.281853   1.000000
   26       -1.281853   1.000000
   27       -1.107191   1.000000
   28       -1.107191   1.000000
   29        5.512622   0.000000
   30        6.444671   0.000000
   31        7.626885   0.000000
   32        7.627045   0.000000
 
 -0.4000000E+00  0.0000000E+00  0.0000000E+00  0.8000000E-02
    1      -21.785027   1.000000
    2      -21.785027   1.000000
    3      -21.784264   1.000000
    4      -21.781776   1.000000
    5      -21.781776   1.000000
    6      -21.779748   1.000000
    7      -21.779748   1.000000
    8      -21.778796   1.000000
    9      -21.775678   1.000000
   10      -21.775678   1.000000
   11      -21.773466   1.000000
   12      -21.773466   1.000000
   13      -13.360040   1.000000
   14      -13.250172   1.000000
   15      -13.123166   1.000000
   16      -13.123165   1.000000
   17       -2.173241   1.000000
   18       -2.173241   1.000000
   19       -2.119425   1.000000
   20       -1.864495   1.000000
   21       -1.864495   1.000000
   22       -1.663035   1.000000
   23       -1.597111   1.000000
   24       -1.597110   1.000000
   25       -1.281853   1.000000
   26       -1.281853   1.000000
   27       -1.107191   1.000000
   28       -1.107191   1.000000
   29        5.512622   0.000000
   30        6.444671   0.000000
   31        7.626885   0.000000
   32        7.628156   0.000000
 
 -0.2000000E+00  0.0000000E+00  0.0000000E+00  0.8000000E-02
    1      -21.787655   1.000000
    2      -21.787655   1.000000
    3      -21.787642   1.000000
    4      -21.779154   1.000000
    5      -21.779154   1.000000
    6      -21.778755   1.000000
    7      -21.778755   1.000000
    8      -21.777471   1.000000
    9      -21.777471   1.000000
   10      -21.773355   1.000000
   11      -21.771708   1.000000
   12      -21.771708   1.000000
   13      -13.453991   1.000000
   14      -13.166986   1.000000
   15      -13.131534   1.000000
   16      -13.131533   1.000000
   17       -2.397431   1.000000
   18       -2.397431   1.000000
   19       -2.392252   1.000000
   20       -1.581305   1.000000
   21       -1.581305   1.000000
   22       -1.515250   1.000000
   23       -1.515249   1.000000
   24       -1.414333   1.000000
   25       -1.414333   1.000000
   26       -1.148232   1.000000
   27       -0.955811   1.000000
   28       -0.955811   1.000000
   29        4.529384   0.000000
   30        6.648684   0.000000
   31        6.887425   0.000000
   32        6.887425   0.000000
 
  0.0000000E+00  0.2000000E+00  0.0000000E+00  0.8000000E-02
    1      -21.787655   1.000000
    2      -21.787655   1.000000
    3      -21.787642   1.000000
    4      -21.779154   1.000000
    5      -21.779154   1.000000
    6      -21.778755   1.000000
    7      -21.778755   1.000000
    8      -21.777471   1.000000
    9      -21.777471   1.000000
   10      -21.773355   1.000000
   11      -21.771708   1.000000
   12      -21.771708   1.000000
   13      -13.453991   1.000000
   14      -13.166986   1.000000
   15      -13.131534   1.000000
   16      -13.131533   1.000000
   17       -2.397431   1.000000
   18       -2.397431   1.000000
   19       -2.392252   1.000000
   20       -1.581305   1.000000
   21       -1.581305   1.000000
   22       -1.515249   1.000000
   23       -1.515249   1.000000
   24       -1.414333   1.000000
   25       -1.414333   1.000000
   26       -1.148232   1.000000
   27       -0.955811   1.000000
   28       -0.955811   1.000000
   29        4.529384   0.000000
   30        6.648684   0.000000
   31        6.887425   0.000000
   32        6.887426   0.000000
 
  0.2000000E+00  0.2000000E+00  0.0000000E+00  0.8000000E-02
    1      -21.787561   1.000000
    2      -21.787560   1.000000
    3      -21.786678   1.000000
    4      -21.782290   1.000000
    5      -21.778435   1.000000
    6      -21.778435   1.000000
    7      -21.777452   1.000000
    8      -21.777451   1.000000
    9      -21.776894   1.000000
   10      -21.776580   1.000000
   11      -21.772395   1.000000
   12      -21.771135   1.000000
   13      -13.419677   1.000000
   14      -13.158422   1.000000
   15      -13.158420   1.000000
   16      -13.129664   1.000000
   17       -2.355386   1.000000
   18       -2.355386   1.000000
   19       -2.318802   1.000000
   20       -1.816386   1.000000
   21       -1.527954   1.000000
   22       -1.527953   1.000000
   23       -1.436909   1.000000
   24       -1.436908   1.000000
   25       -1.411526   1.000000
   26       -1.398534   1.000000
   27       -1.022963   1.000000
   28       -0.936173   1.000000
   29        4.887206   0.000000
   30        6.978177   0.000000
   31        6.978177   0.000000
   32        7.074367   0.000000
 
  0.4000000E+00  0.2000000E+00  0.0000000E+00  0.8000000E-02
    1      -21.787102   1.000000
    2      -21.785932   1.000000
    3      -21.785418   1.000000
    4      -21.784119   1.000000
    5      -21.781805   1.000000
    6      -21.780980   1.000000
    7      -21.777091   1.000000
    8      -21.776557   1.000000
    9      -21.776556   1.000000
   10      -21.774753   1.000000
   11      -21.774252   1.000000
   12      -21.772279   1.000000
   13      -13.333051   1.000000
   14      -13.233019   1.000000
   15      -13.141097   1.000000
   16      -13.130074   1.000000
   17       -2.251812   1.000000
   18       -2.183281   1.000000
   19       -2.100622   1.000000
   20       -2.074415   1.000000
   21       -1.841302   1.000000
   22       -1.801242   1.000000
   23       -1.446166   1.000000
   24       -1.401532   1.000000
   25       -1.382686   1.000000
   26       -1.251469   1.000000
   27       -1.190454   1.000000
   28       -1.052035   1.000000
   29        5.765472   0.000000
   30        6.701923   0.000000
   31        7.695910   0.000000
   32        7.763097   0.000000
 
 -0.4000000E+00  0.2000000E+00  0.0000000E+00  0.8000000E-02
    1      -21.787102   1.000000
    2      -21.785932   1.000000
    3      -21.785418   1.000000
    4      -21.784119   1.000000
    5      -21.781805   1.000000
    6      -21.780980   1.000000
    7      -21.777091   1.000000
    8      -21.776557   1.000000
    9      -21.776556   1.000000
   10      -21.774753   1.000000
   11      -21.774252   1.000000
   12      -21.772279   1.000000
   13      -13.333051   1.000000
   14      -13.233019   1.000000
   15      -13.141097   1.000000
   16      -13.130074   1.000000
   17       -2.251812   1.000000
   18       -2.183281   1.000000
   19       -2.100622   1.000000
   20       -2.074415   1.000000
   21       -1.841302   1.000000
   22       -1.801242   1.000000
   23       -1.446166   1.000000
   24       -1.401532   1.000000
   25       -1.382686   1.000000
   26       -1.251469   1.000000
   27       -1.190454   1.000000
   28       -1.052035   1.000000
   29        5.765472   0.000000
   30        6.701923   0.000000
   31        7.695910   0.000000
   32        7.763074   0.000000
 
 -0.2000000E+00  0.2000000E+00  0.0000000E+00  0.8000000E-02
    1      -21.787561   1.000000
    2      -21.787560   1.000000
    3      -21.786678   1.000000
    4      -21.782290   1.000000
    5      -21.778435   1.000000
    6      -21.778435   1.000000
    7      -21.777452   1.000000
    8      -21.777451   1.000000
    9      -21.776894   1.000000
   10      -21.776580   1.000000
   11      -21.772395   1.000000
   12      -21.771135   1.000000
   13      -13.419677   1.000000
   14      -13.158422   1.000000
   15      -13.158420   1.000000
   16      -13.129664   1.000000
   17       -2.355386   1.000000
   18       -2.355386   1.000000
   19       -2.318802   1.000000
   20       -1.816386   1.000000
   21       -1.527954   1.000000
   22       -1.527953   1.000000
   23       -1.436909   1.000000
   24       -1.436908   1.000000
   25       -1.411526   1.000000
   26       -1.398534   1.000000
   27       -1.022963   1.000000
   28       -0.936173   1.000000
   29        4.887206   0.000000
   30        6.978177   0.000000
   31        6.978177   0.000000
   32        7.074367   0.000000
 
  0.0000000E+00  0.4000000E+00  0.0000000E+00  0.8000000E-02
    1      -21.785027   1.000000
    2      -21.785027   1.000000
    3      -21.784264   1.000000
    4      -21.781776   1.000000
    5      -21.781776   1.000000
    6      -21.779748   1.000000
    7      -21.779748   1.000000
    8      -21.778796   1.000000
    9      -21.775678   1.000000
   10      -21.775678   1.000000
   11      -21.773466   1.000000
   12      -21.773466   1.000000
   13      -13.360040   1.000000
   14      -13.250172   1.000000
   15      -13.123166   1.000000
   16      -13.123165   1.000000
   17       -2.173241   1.000000
   18       -2.173241   1.000000
   19       -2.119425   1.000000
   20       -1.864495   1.000000
   21       -1.864495   1.000000
   22       -1.663035   1.000000
   23       -1.597111   1.000000
   24       -1.597111   1.000000
   25       -1.281853   1.000000
   26       -1.281853   1.000000
   27       -1.107191   1.000000
   28       -1.107191   1.000000
   29        5.512622   0.000000
   30        6.444671   0.000000
   31        7.626885   0.000000
   32        7.626910   0.000000
 
  0.2000000E+00  0.4000000E+00  0.0000000E+00  0.8000000E-02
    1      -21.787102   1.000000
    2      -21.785932   1.000000
    3      -21.785418   1.000000
    4      -21.784119   1.000000
    5      -21.781805   1.000000
    6      -21.780980   1.000000
    7      -21.777091   1.000000
    8      -21.776557   1.000000
    9      -21.776556   1.000000
   10      -21.774753   1.000000
   11      -21.774252   1.000000
   12      -21.772279   1.000000
   13      -13.333051   1.000000
   14      -13.233019   1.000000
   15      -13.141097   1.000000
   16      -13.130074   1.000000
   17       -2.251812   1.000000
   18       -2.183281   1.000000
   19       -2.100622   1.000000
   20       -2.074415   1.000000
   21       -1.841302   1.000000
   22       -1.801242   1.000000
   23       -1.446166   1.000000
   24       -1.401532   1.000000
   25       -1.382686   1.000000
   26       -1.251469   1.000000
   27       -1.190454   1.000000
   28       -1.052035   1.000000
   29        5.765472   0.000000
   30        6.701923   0.000000
   31        7.695910   0.000000
   32        7.763074   0.000000
 
  0.4000000E+00  0.4000000E+00  0.0000000E+00  0.8000000E-02
    1      -21.788334   1.000000
    2      -21.788294   1.000000
    3      -21.788294   1.000000
    4      -21.786189   1.000000
    5      -21.781773   1.000000
    6      -21.778896   1.000000
    7      -21.778895   1.000000
    8      -21.776314   1.000000
    9      -21.774216   1.000000
   10      -21.773771   1.000000
   11      -21.773771   1.000000
   12      -21.772009   1.000000
   13      -13.266478   1.000000
   14      -13.192943   1.000000
   15      -13.192941   1.000000
   16      -13.153519   1.000000
   17       -2.280392   1.000000
   18       -2.280391   1.000000
   19       -2.261869   1.000000
   20       -2.124531   1.000000
   21       -1.900147   1.000000
   22       -1.627869   1.000000
   23       -1.627868   1.000000
   24       -1.395693   1.000000
   25       -1.237525   1.000000
   26       -1.207855   1.000000
   27       -1.207854   1.000000
   28       -1.058995   1.000000
   29        6.424461   0.000000
   30        7.276917   0.000000
   31        7.276917   0.000000
   32        7.673619   0.000000
 
 -0.4000000E+00  0.4000000E+00  0.0000000E+00  0.8000000E-02
    1      -21.788334   1.000000
    2      -21.788294   1.000000
    3      -21.788294   1.000000
    4      -21.786189   1.000000
    5      -21.781773   1.000000
    6      -21.778896   1.000000
    7      -21.778895   1.000000
    8      -21.776314   1.000000
    9      -21.774216   1.000000
   10      -21.773771   1.000000
   11      -21.773771   1.000000
   12      -21.772009   1.000000
   13      -13.266478   1.000000
   14      -13.192943   1.000000
   15      -13.192941   1.000000
   16      -13.153519   1.000000
   17       -2.280392   1.000000
   18       -2.280391   1.000000
   19       -2.261869   1.000000
   20       -2.124531   1.000000
   21       -1.900147   1.000000
   22       -1.627869   1.000000
   23       -1.627868   1.000000
   24       -1.395693   1.000000
   25       -1.237525   1.000000
   26       -1.207855   1.000000
   27       -1.207854   1.000000
   28       -1.058995   1.000000
   29        6.424461   0.000000
   30        7.276917   0.000000
   31        7.276917   0.000000
   32        7.673619   0.000000
 
 -0.2000000E+00  0.4000000E+00  0.0000000E+00  0.8000000E-02
    1      -21.787102   1.000000
    2      -21.785932   1.000000
    3      -21.785418   1.000000
    4      -21.784119   1.000000
    5      -21.781805   1.000000
    6      -21.780980   1.000000
    7      -21.777091   1.000000
    8      -21.776557   1.000000
    9      -21.776556   1.000000
   10      -21.774753   1.000000
   11      -21.774252   1.000000
   12      -21.772279   1.000000
   13      -13.333051   1.000000
   14      -13.233019   1.000000
   15      -13.141097   1.000000
   16      -13.130074   1.000000
   17       -2.251812   1.000000
   18       -2.183281   1.000000
   19       -2.100622   1.000000
   20       -2.074415   1.000000
   21       -1.841302   1.000000
   22       -1.801242   1.000000
   23       -1.446166   1.000000
   24       -1.401532   1.000000
   25       -1.382686   1.000000
   26       -1.251469   1.000000
   27       -1.190454   1.000000
   28       -1.052035   1.000000
   29        5.765472   0.000000
   30        6.701923   0.000000
   31        7.695910   0.000000
   32        7.763092   0.000000
 
  0.0000000E+00 -0.4000000E+00  0.0000000E+00  0.8000000E-02
    1      -21.785027   1.000000
    2      -21.785027   1.000000
    3      -21.784264   1.000000
    4      -21.781776   1.000000
    5      -21.781776   1.000000
    6      -21.779748   1.000000
    7      -21.779748   1.000000
    8      -21.778796   1.000000
    9      -21.775678   1.000000
   10      -21.775678   1.000000
   11      -21.773466   1.000000
   12      -21.773466   1.000000
   13      -13.360040   1.000000
   14      -13.250172   1.000000
   15      -13.123166   1.000000
   16      -13.123165   1.000000
   17       -2.173241   1.000000
   18       -2.173241   1.000000
   19       -2.119425   1.000000
   20       -1.864495   1.000000
   21       -1.864495   1.000000
   22       -1.663035   1.000000
   23       -1.597111   1.000000
   24       -1.597111   1.000000
   25       -1.281853   1.000000
   26       -1.281853   1.000000
   27       -1.107191   1.000000
   28       -1.107191   1.000000
   29        5.512622   0.000000
   30        6.444671   0.000000
   31        7.626885   0.000000
   32        7.627081   0.000000
 
  0.2000000E+00 -0.4000000E+00  0.0000000E+00  0.8000000E-02
    1      -21.787102   1.000000
    2      -21.785932   1.000000
    3      -21.785418   1.000000
    4      -21.784119   1.000000
    5      -21.781805   1.000000
    6      -21.780980   1.000000
    7      -21.777091   1.000000
    8      -21.776557   1.000000
    9      -21.776556   1.000000
   10      -21.774753   1.000000
   11      -21.774252   1.000000
   12      -21.772279   1.000000
   13      -13.333051   1.000000
   14      -13.233019   1.000000
   15      -13.141097   1.000000
   16      -13.130074   1.000000
   17       -2.251812   1.000000
   18       -2.183281   1.000000
   19       -2.100622   1.000000
   20       -2.074415   1.000000
   21       -1.841302   1.000000
   22       -1.801242   1.000000
   23       -1.446166   1.000000
   24       -1.401532   1.000000
   25       -1.382686   1.000000
   26       -1.251469   1.000000
   27       -1.190454   1.000000
   28       -1.052035   1.000000
   29        5.765472   0.000000
   30        6.701923   0.000000
   31        7.695910   0.000000
   32        7.763074   0.000000
 
  0.4000000E+00 -0.4000000E+00  0.0000000E+00  0.8000000E-02
    1      -21.788334   1.000000
    2      -21.788294   1.000000
    3      -21.788294   1.000000
    4      -21.786189   1.000000
    5      -21.781773   1.000000
    6      -21.778896   1.000000
    7      -21.778895   1.000000
    8      -21.776314   1.000000
    9      -21.774216   1.000000
   10      -21.773771   1.000000
   11      -21.773771   1.000000
   12      -21.772009   1.000000
   13      -13.266478   1.000000
   14      -13.192943   1.000000
   15      -13.192941   1.000000
   16      -13.153519   1.000000
   17       -2.280392   1.000000
   18       -2.280391   1.000000
   19       -2.261869   1.000000
   20       -2.124531   1.000000
   21       -1.900147   1.000000
   22       -1.627869   1.000000
   23       -1.627868   1.000000
   24       -1.395693   1.000000
   25       -1.237525   1.000000
   26       -1.207855   1.000000
   27       -1.207854   1.000000
   28       -1.058995   1.000000
   29        6.424461   0.000000
   30        7.276917   0.000000
   31        7.276917   0.000000
   32        7.673619   0.000000
 
 -0.4000000E+00 -0.4000000E+00  0.0000000E+00  0.8000000E-02
    1      -21.788334   1.000000
    2      -21.788294   1.000000
    3      -21.788294   1.000000
    4      -21.786189   1.000000
    5      -21.781773   1.000000
    6      -21.778896   1.000000
    7      -21.778895   1.000000
    8      -21.776314   1.000000
    9      -21.774216   1.000000
   10      -21.773771   1.000000
   11      -21.773771   1.000000
   12      -21.772009   1.000000
   13      -13.266478   1.000000
   14      -13.192943   1.000000
   15      -13.192941   1.000000
   16      -13.153519   1.000000
   17       -2.280392   1.000000
   18       -2.280391   1.000000
   19       -2.261869   1.000000
   20       -2.124531   1.000000
   21       -1.900147   1.000000
   22       -1.627869   1.000000
   23       -1.627868   1.000000
   24       -1.395693   1.000000
   25       -1.237525   1.000000
   26       -1.207855   1.000000
   27       -1.207854   1.000000
   28       -1.058995   1.000000
   29        6.424461   0.000000
   30        7.276917   0.000000
   31        7.276917   0.000000
   32        7.673619   0.000000
 
 -0.2000000E+00 -0.4000000E+00  0.0000000E+00  0.8000000E-02
    1      -21.787102   1.000000
    2      -21.785932   1.000000
    3      -21.785418   1.000000
    4      -21.784119   1.000000
    5      -21.781805   1.000000
    6      -21.780980   1.000000
    7      -21.777091   1.000000
    8      -21.776557   1.000000
    9      -21.776556   1.000000
   10      -21.774753   1.000000
   11      -21.774252   1.000000
   12      -21.772279   1.000000
   13      -13.333051   1.000000
   14      -13.233019   1.000000
   15      -13.141097   1.000000
   16      -13.130074   1.000000
   17       -2.251812   1.000000
   18       -2.183281   1.000000
   19       -2.100622   1.000000
   20       -2.074415   1.000000
   21       -1.841302   1.000000
   22       -1.801242   1.000000
   23       -1.446166   1.000000
   24       -1.401532   1.000000
   25       -1.382686   1.000000
   26       -1.251469   1.000000
   27       -1.190454   1.000000
   28       -1.052035   1.000000
   29        5.765472   0.000000
   30        6.701923   0.000000
   31        7.695910   0.000000
   32        7.763074   0.000000
 
  0.0000000E+00 -0.2000000E+00  0.0000000E+00  0.8000000E-02
    1      -21.787655   1.000000
    2      -21.787655   1.000000
    3      -21.787642   1.000000
    4      -21.779154   1.000000
    5      -21.779154   1.000000
    6      -21.778755   1.000000
    7      -21.778755   1.000000
    8      -21.777471   1.000000
    9      -21.777471   1.000000
   10      -21.773355   1.000000
   11      -21.771708   1.000000
   12      -21.771708   1.000000
   13      -13.453991   1.000000
   14      -13.166986   1.000000
   15      -13.131534   1.000000
   16      -13.131533   1.000000
   17       -2.397431   1.000000
   18       -2.397431   1.000000
   19       -2.392252   1.000000
   20       -1.581305   1.000000
   21       -1.581305   1.000000
   22       -1.515249   1.000000
   23       -1.515249   1.000000
   24       -1.414333   1.000000
   25       -1.414333   1.000000
   26       -1.148232   1.000000
   27       -0.955811   1.000000
   28       -0.955811   1.000000
   29        4.529384   0.000000
   30        6.648684   0.000000
   31        6.887425   0.000000
   32        6.887425   0.000000
 
  0.2000000E+00 -0.2000000E+00  0.0000000E+00  0.8000000E-02
    1      -21.787561   1.000000
    2      -21.787560   1.000000
    3      -21.786678   1.000000
    4      -21.782290   1.000000
    5      -21.778435   1.000000
    6      -21.778435   1.000000
    7      -21.777452   1.000000
    8      -21.777451   1.000000
    9      -21.776894   1.000000
   10      -21.776580   1.000000
   11      -21.772395   1.000000
   12      -21.771135   1.000000
   13      -13.419677   1.000000
   14      -13.158422   1.000000
   15      -13.158420   1.000000
   16      -13.129664   1.000000
   17       -2.355386   1.000000
   18       -2.355386   1.000000
   19       -2.318802   1.000000
   20       -1.816386   1.000000
   21       -1.527954   1.000000
   22       -1.527953   1.000000
   23       -1.436909   1.000000
   24       -1.436908   1.000000
   25       -1.411526   1.000000
   26       -1.398534   1.000000
   27       -1.022963   1.000000
   28       -0.936173   1.000000
   29        4.887206   0.000000
   30        6.978177   0.000000
   31        6.978177   0.000000
   32        7.074367   0.000000
 
  0.4000000E+00 -0.2000000E+00  0.0000000E+00  0.8000000E-02
    1      -21.787102   1.000000
    2      -21.785932   1.000000
    3      -21.785418   1.000000
    4      -21.784119   1.000000
    5      -21.781805   1.000000
    6      -21.780980   1.000000
    7      -21.777091   1.000000
    8      -21.776557   1.000000
    9      -21.776556   1.000000
   10      -21.774753   1.000000
   11      -21.774252   1.000000
   12      -21.772279   1.000000
   13      -13.333051   1.000000
   14      -13.233019   1.000000
   15      -13.141097   1.000000
   16      -13.130074   1.000000
   17       -2.251812   1.000000
   18       -2.183281   1.000000
   19       -2.100622   1.000000
   20       -2.074415   1.000000
   21       -1.841302   1.000000
   22       -1.801242   1.000000
   23       -1.446166   1.000000
   24       -1.401532   1.000000
   25       -1.382686   1.000000
   26       -1.251469   1.000000
   27       -1.190454   1.000000
   28       -1.052035   1.000000
   29        5.765472   0.000000
   30        6.701923   0.000000
   31        7.695910   0.000000
   32        7.763076   0.000000
 
 -0.4000000E+00 -0.2000000E+00  0.0000000E+00  0.8000000E-02
    1      -21.787102   1.000000
    2      -21.785932   1.000000
    3      -21.785418   1.000000
    4      -21.784119   1.000000
    5      -21.781805   1.000000
    6      -21.780980   1.000000
    7      -21.777091   1.000000
    8      -21.776557   1.000000
    9      -21.776556   1.000000
   10      -21.774753   1.000000
   11      -21.774252   1.000000
   12      -21.772279   1.000000
   13      -13.333051   1.000000
   14      -13.233019   1.000000
   15      -13.141097   1.000000
   16      -13.130074   1.000000
   17       -2.251812   1.000000
   18       -2.183281   1.000000
   19       -2.100622   1.000000
   20       -2.074415   1.000000
   21       -1.841302   1.000000
   22       -1.801242   1.000000
   23       -1.446166   1.000000
   24       -1.401532   1.000000
   25       -1.382686   1.000000
   26       -1.251469   1.000000
   27       -1.190454   1.000000
   28       -1.052035   1.000000
   29        5.765472   0.000000
   30        6.701923   0.000000
   31        7.695911   0.000000
   32        7.763082   0.000000
 
 -0.2000000E+00 -0.2000000E+00  0.0000000E+00  0.8000000E-02
    1      -21.787561   1.000000
    2      -21.787560   1.000000
    3      -21.786678   1.000000
    4      -21.782290   1.000000
    5      -21.778435   1.000000
    6      -21.778435   1.000000
    7      -21.777452   1.000000
    8      -21.777451   1.000000
    9      -21.776894   1.000000
   10      -21.776580   1.000000
   11      -21.772395   1.000000
   12      -21.771135   1.000000
   13      -13.419677   1.000000
   14      -13.158422   1.000000
   15      -13.158420   1.000000
   16      -13.129664   1.000000
   17       -2.355386   1.000000
   18       -2.355386   1.000000
   19       -2.318802   1.000000
   20       -1.816386   1.000000
   21       -1.527954   1.000000
   22       -1.527953   1.000000
   23       -1.436909   1.000000
   24       -1.436908   1.000000
   25       -1.411526   1.000000
   26       -1.398534   1.000000
   27       -1.022963   1.000000
   28       -0.936173   1.000000
   29        4.887206   0.000000
   30        6.978177   0.000000
   31        6.978177   0.000000
   32        7.074367   0.000000
 
  0.0000000E+00  0.0000000E+00  0.2000000E+00  0.8000000E-02
    1      -21.787655   1.000000
    2      -21.787655   1.000000
    3      -21.787642   1.000000
    4      -21.779154   1.000000
    5      -21.779154   1.000000
    6      -21.778755   1.000000
    7      -21.778755   1.000000
    8      -21.777471   1.000000
    9      -21.777471   1.000000
   10      -21.773355   1.000000
   11      -21.771708   1.000000
   12      -21.771708   1.000000
   13      -13.453991   1.000000
   14      -13.166986   1.000000
   15      -13.131534   1.000000
   16      -13.131532   1.000000
   17       -2.397431   1.000000
   18       -2.397431   1.000000
   19       -2.392252   1.000000
   20       -1.581305   1.000000
   21       -1.581305   1.000000
   22       -1.515250   1.000000
   23       -1.515248   1.000000
   24       -1.414333   1.000000
   25       -1.414333   1.000000
   26       -1.148232   1.000000
   27       -0.955811   1.000000
   28       -0.955811   1.000000
   29        4.529384   0.000000
   30        6.648684   0.000000
   31        6.887425   0.000000
   32        6.887425   0.000000
 
  0.2000000E+00  0.0000000E+00  0.2000000E+00  0.8000000E-02
    1      -21.787561   1.000000
    2      -21.787560   1.000000
    3      -21.786678   1.000000
    4      -21.782290   1.000000
    5      -21.778435   1.000000
    6      -21.778435   1.000000
    7      -21.777452   1.000000
    8      -21.777451   1.000000
    9      -21.776894   1.000000
   10      -21.776580   1.000000
   11      -21.772395   1.000000
   12      -21.771135   1.000000
   13      -13.419677   1.000000
   14      -13.158422   1.000000
   15      -13.158421   1.000000
   16      -13.129664   1.000000
   17       -2.355386   1.000000
   18       -2.355386   1.000000
   19       -2.318802   1.000000