Automatically generated mesh
     125
Reciprocal lattice
    0.00000000000000    0.00000000000000    0.00000000000000             1
    0.20000000000000    0.00000000000000    0.00000000000000             1
    0.40000000000000    0.00000000000000    0.00000000000000             1
   -0.40000000000000    0.00000000000000    0.00000000000000             1
   -0.20000000000000    0.00000000000000    0.00000000000000             1
    0.00000000000000    0.20000000000000    0.00000000000000             1
    0.20000000000000    0.20000000000000    0.00000000000000             1
    0.40000000000000    0.20000000000000    0.00000000000000             1
   -0.40000000000000    0.20000000000000    0.00000000000000             1
   -0.20000000000000    0.20000000000000    0.00000000000000             1
    0.00000000000000    0.40000000000000    0.00000000000000             1
    0.20000000000000    0.40000000000000    0.00000000000000             1
    0.40000000000000    0.40000000000000    0.00000000000000             1
   -0.40000000000000    0.40000000000000    0.00000000000000             1
   -0.20000000000000    0.40000000000000    0.00000000000000             1
    0.00000000000000   -0.40000000000000    0.00000000000000             1
    0.20000000000000   -0.40000000000000    0.00000000000000             1
    0.40000000000000   -0.40000000000000    0.00000000000000             1
   -0.40000000000000   -0.40000000000000    0.00000000000000             1
   -0.20000000000000   -0.40000000000000    0.00000000000000             1
    0.00000000000000   -0.20000000000000    0.00000000000000             1
    0.20000000000000   -0.20000000000000    0.00000000000000             1
    0.40000000000000   -0.20000000000000    0.00000000000000             1
   -0.40000000000000   -0.20000000000000    0.00000000000000             1
   -0.20000000000000   -0.20000000000000    0.00000000000000             1
    0.00000000000000    0.00000000000000    0.20000000000000             1
    0.20000000000000    0.00000000000000    0.20000000000000             1
    0.40000000000000    0.00000000000000    0.20000000000000             1
   -0.40000000000000    0.00000000000000    0.20000000000000             1
   -0.20000000000000    0.00000000000000    0.20000000000000             1
    0.00000000000000    0.20000000000000    0.20000000000000             1
    0.20000000000000    0.20000000000000    0.20000000000000             1
    0.40000000000000    0.20000000000000    0.20000000000000             1
   -0.40000000000000    0.20000000000000    0.20000000000000             1
   -0.20000000000000    0.20000000000000    0.20000000000000             1
    0.00000000000000    0.40000000000000    0.20000000000000             1
    0.20000000000000    0.40000000000000    0.20000000000000             1
    0.40000000000000    0.40000000000000    0.20000000000000             1
   -0.40000000000000    0.40000000000000    0.20000000000000             1
   -0.20000000000000    0.40000000000000    0.20000000000000             1
    0.00000000000000   -0.40000000000000    0.20000000000000             1
    0.20000000000000   -0.40000000000000    0.20000000000000             1
    0.40000000000000   -0.40000000000000    0.20000000000000             1
   -0.40000000000000   -0.40000000000000    0.20000000000000             1
   -0.20000000000000   -0.40000000000000    0.20000000000000             1
    0.00000000000000   -0.20000000000000    0.20000000000000             1
    0.20000000000000   -0.20000000000000    0.20000000000000             1
    0.40000000000000   -0.20000000000000    0.20000000000000             1
   -0.40000000000000   -0.20000000000000    0.20000000000000             1
   -0.20000000000000   -0.20000000000000    0.20000000000000             1
    0.00000000000000    0.00000000000000    0.40000000000000             1
    0.20000000000000    0.00000000000000    0.40000000000000             1
    0.40000000000000    0.00000000000000    0.40000000000000             1
   -0.40000000000000    0.00000000000000    0.40000000000000             1
   -0.20000000000000    0.00000000000000    0.40000000000000             1
    0.00000000000000    0.20000000000000    0.40000000000000             1
    0.20000000000000    0.20000000000000    0.40000000000000             1
    0.40000000000000    0.20000000000000    0.40000000000000             1
   -0.40000000000000    0.20000000000000    0.40000000000000             1
   -0.20000000000000    0.20000000000000    0.40000000000000             1
    0.00000000000000    0.40000000000000    0.40000000000000             1
    0.20000000000000    0.40000000000000    0.40000000000000             1
    0.40000000000000    0.40000000000000    0.40000000000000             1
   -0.40000000000000    0.40000000000000    0.40000000000000             1
   -0.20000000000000    0.40000000000000    0.40000000000000             1
    0.00000000000000   -0.40000000000000    0.40000000000000             1
    0.20000000000000   -0.40000000000000    0.40000000000000             1
    0.40000000000000   -0.40000000000000    0.40000000000000             1
   -0.40000000000000   -0.40000000000000    0.40000000000000             1
   -0.20000000000000   -0.40000000000000    0.40000000000000             1
    0.00000000000000   -0.20000000000000    0.40000000000000             1
    0.20000000000000   -0.20000000000000    0.40000000000000             1
    0.40000000000000   -0.20000000000000    0.40000000000000             1
   -0.40000000000000   -0.20000000000000    0.40000000000000             1
   -0.20000000000000   -0.20000000000000    0.40000000000000             1
    0.00000000000000    0.00000000000000   -0.40000000000000             1
    0.20000000000000    0.00000000000000   -0.40000000000000             1
    0.40000000000000    0.00000000000000   -0.40000000000000             1
   -0.40000000000000    0.00000000000000   -0.40000000000000             1
   -0.20000000000000    0.00000000000000   -0.40000000000000             1
    0.00000000000000    0.20000000000000   -0.40000000000000             1
    0.20000000000000    0.20000000000000   -0.40000000000000             1
    0.40000000000000    0.20000000000000   -0.40000000000000             1
   -0.40000000000000    0.20000000000000   -0.40000000000000             1
   -0.20000000000000    0.20000000000000   -0.40000000000000             1
    0.00000000000000    0.40000000000000   -0.40000000000000             1
    0.20000000000000    0.40000000000000   -0.40000000000000             1
    0.40000000000000    0.40000000000000   -0.40000000000000             1
   -0.40000000000000    0.40000000000000   -0.40000000000000             1
   -0.20000000000000    0.40000000000000   -0.40000000000000             1
    0.00000000000000   -0.40000000000000   -0.40000000000000             1
    0.20000000000000   -0.40000000000000   -0.40000000000000             1
    0.40000000000000   -0.40000000000000   -0.40000000000000             1
   -0.40000000000000   -0.40000000000000   -0.40000000000000             1
   -0.20000000000000   -0.40000000000000   -0.40000000000000             1
    0.00000000000000   -0.20000000000000   -0.40000000000000             1
    0.20000000000000   -0.20000000000000   -0.40000000000000             1
    0.40000000000000   -0.20000000000000   -0.40000000000000             1
   -0.40000000000000   -0.20000000000000   -0.40000000000000             1
   -0.20000000000000   -0.20000000000000   -0.40000000000000             1
    0.00000000000000    0.00000000000000   -0.20000000000000             1
    0.20000000000000    0.00000000000000   -0.20000000000000             1
    0.40000000000000    0.00000000000000   -0.20000000000000             1
   -0.40000000000000    0.00000000000000   -0.20000000000000             1
   -0.20000000000000    0.00000000000000   -0.20000000000000             1
    0.00000000000000    0.20000000000000   -0.20000000000000             1
    0.20000000000000    0.20000000000000   -0.20000000000000             1
    0.40000000000000    0.20000000000000   -0.20000000000000             1
   -0.40000000000000    0.20000000000000   -0.20000000000000             1
   -0.20000000000000    0.20000000000000   -0.20000000000000             1
    0.00000000000000    0.40000000000000   -0.20000000000000             1
    0.20000000000000    0.40000000000000   -0.20000000000000             1
    0.40000000000000    0.40000000000000   -0.20000000000000             1
   -0.40000000000000    0.40000000000000   -0.20000000000000             1
   -0.20000000000000    0.40000000000000   -0.20000000000000             1
    0.00000000000000   -0.40000000000000   -0.20000000000000             1
    0.20000000000000   -0.40000000000000   -0.20000000000000             1
    0.40000000000000   -0.40000000000000   -0.20000000000000             1
   -0.40000000000000   -0.40000000000000   -0.20000000000000             1
   -0.20000000000000   -0.40000000000000   -0.20000000000000             1
    0.00000000000000   -0.20000000000000   -0.20000000000000             1
    0.20000000000000   -0.20000000000000   -0.20000000000000             1
    0.40000000000000   -0.20000000000000   -0.20000000000000             1
   -0.40000000000000   -0.20000000000000   -0.20000000000000             1
   -0.20000000000000   -0.20000000000000   -0.20000000000000             1
Tetrahedra
       750    0.00133333333333
         1         1         2         7        26
         1         1         6         7        26
         1         6         7        26        31
         1         2         7        26        27
         1         7        26        27        32
         1         7        26        31        32
         1         2         3         8        27
         1         2         7         8        27
         1         7         8        27        32
         1         3         8        27        28
         1         8        27        28        33
         1         8        27        32        33
         1         3         4         9        28
         1         3         8         9        28
         1         8         9        28        33
         1         4         9        28        29
         1         9        28        29        34
         1         9        28        33        34
         1         4         5        10        29
         1         4         9        10        29
         1         9        10        29        34
         1         5        10        29        30
         1        10        29        30        35
         1        10        29        34        35
         1         1         5         6        30
         1         5         6        10        30
         1         6        10        30        35
         1         1         6        26        30
         1         6        26        30        31
         1         6        30        31        35
         1         6         7        12        31
         1         6        11        12        31
         1        11        12        31        36
         1         7        12        31        32
         1        12        31        32        37
         1        12        31        36        37
         1         7         8        13        32
         1         7        12        13        32
         1        12        13        32        37
         1         8        13        32        33
         1        13        32        33        38
         1        13        32        37        38
         1         8         9        14        33
         1         8        13        14        33
         1        13        14        33        38
         1         9        14        33        34
         1        14        33        34        39
         1        14        33        38        39
         1         9        10        15        34
         1         9        14        15        34
         1        14        15        34        39
         1        10        15        34        35
         1        15        34        35        40
         1        15        34        39        40
         1         6        10        11        35
         1        10        11        15        35
         1        11        15        35        40
         1         6        11        31        35
         1        11        31        35        36
         1        11        35        36        40
         1        11        12        17        36
         1        11        16        17        36
         1        16        17        36        41
         1        12        17        36        37
         1        17        36        37        42
         1        17        36        41        42
         1        12        13        18        37
         1        12        17        18        37
         1        17        18        37        42
         1        13        18        37        38
         1        18        37        38        43
         1        18        37        42        43
         1        13        14        19        38
         1        13        18        19        38
         1        18        19        38        43
         1        14        19        38        39
         1        19        38        39        44
         1        19        38        43        44
         1        14        15        20        39
         1        14        19        20        39
         1        19        20        39        44
         1        15        20        39        40
         1        20        39        40        45
         1        20        39        44        45
         1        11        15        16        40
         1        15        16        20        40
         1        16        20        40        45
         1        11        16        36        40
         1        16        36        40        41
         1        16        40        41        45
         1        16        17        22        41
         1        16        21        22        41
         1        21        22        41        46
         1        17        22        41        42
         1        22        41        42        47
         1        22        41        46        47
         1        17        18        23        42
         1        17        22        23        42
         1        22        23        42        47
         1        18        23        42        43
         1        23        42        43        48
         1        23        42        47        48
         1        18        19        24        43
         1        18        23        24        43
         1        23        24        43        48
         1        19        24        43        44
         1        24        43        44        49
         1        24        43        48        49
         1        19        20        25        44
         1        19        24        25        44
         1        24        25        44        49
         1        20        25        44        45
         1        25        44        45        50
         1        25        44        49        50
         1        16        20        21        45
         1        20        21        25        45
         1        21        25        45        50
         1        16        21        41        45
         1        21        41        45        46
         1        21        45        46        50
         1         2        21        22        46
         1         1         2        21        46
         1         1         2        26        46
         1         2        22        46        47
         1         2        27        46        47
         1         2        26        27        46
         1         3        22        23        47
         1         2         3        22        47
         1         2         3        27        47
         1         3        23        47        48
         1         3        28        47        48
         1         3        27        28        47
         1         4        23        24        48
         1         3         4        23        48
         1         3         4        28        48
         1         4        24        48        49
         1         4        29        48        49
         1         4        28        29        48
         1         5        24        25        49
         1         4         5        24        49
         1         4         5        29        49
         1         5        25        49        50
         1         5        30        49        50
         1         5        29        30        49
         1         1        21        25        50
         1         1         5        25        50
         1         1         5        30        50
         1         1        21        46        50
         1         1        26        46        50
         1         1        26        30        50
         1        26        27        32        51
         1        26        31        32        51
         1        31        32        51        56
         1        27        32        51        52
         1        32        51        52        57
         1        32        51        56        57
         1        27        28        33        52
         1        27        32        33        52
         1        32        33        52        57
         1        28        33        52        53
         1        33        52        53        58
         1        33        52        57        58
         1        28        29        34        53
         1        28        33        34        53
         1        33        34        53        58
         1        29        34        53        54
         1        34        53        54        59
         1        34        53        58        59
         1        29        30        35        54
         1        29        34        35        54
         1        34        35        54        59
         1        30        35        54        55
         1        35        54        55        60
         1        35        54        59        60
         1        26        30        31        55
         1        30        31        35        55
         1        31        35        55        60
         1        26        31        51        55
         1        31        51        55        56
         1        31        55        56        60
         1        31        32        37        56
         1        31        36        37        56
         1        36        37        56        61
         1        32        37        56        57
         1        37        56        57        62
         1        37        56        61        62
         1        32        33        38        57
         1        32        37        38        57
         1        37        38        57        62
         1        33        38        57        58
         1        38        57        58        63
         1        38        57        62        63
         1        33        34        39        58
         1        33        38        39        58
         1        38        39        58        63
         1        34        39        58        59
         1        39        58        59        64
         1        39        58        63        64
         1        34        35        40        59
         1        34        39        40        59
         1        39        40        59        64
         1        35        40        59        60
         1        40        59        60        65
         1        40        59        64        65
         1        31        35        36        60
         1        35        36        40        60
         1        36        40        60        65
         1        31        36        56        60
         1        36        56        60        61
         1        36        60        61        65
         1        36        37        42        61
         1        36        41        42        61
         1        41        42        61        66
         1        37        42        61        62
         1        42        61        62        67
         1        42        61        66        67
         1        37        38        43        62
         1        37        42        43        62
         1        42        43        62        67
         1        38        43        62        63
         1        43        62        63        68
         1        43        62        67        68
         1        38        39        44        63
         1        38        43        44        63
         1        43        44        63        68
         1        39        44        63        64
         1        44        63        64        69
         1        44        63        68        69
         1        39        40        45        64
         1        39        44        45        64
         1        44        45        64        69
         1        40        45        64        65
         1        45        64        65        70
         1        45        64        69        70
         1        36        40        41        65
         1        40        41        45        65
         1        41        45        65        70
         1        36        41        61        65
         1        41        61        65        66
         1        41        65        66        70
         1        41        42        47        66
         1        41        46        47        66
         1        46        47        66        71
         1        42        47        66        67
         1        47        66        67        72
         1        47        66        71        72
         1        42        43        48        67
         1        42        47        48        67
         1        47        48        67        72
         1        43        48        67        68
         1        48        67        68        73
         1        48        67        72        73
         1        43        44        49        68
         1        43        48        49        68
         1        48        49        68        73
         1        44        49        68        69
         1        49        68        69        74
         1        49        68        73        74
         1        44        45        50        69
         1        44        49        50        69
         1        49        50        69        74
         1        45        50        69        70
         1        50        69        70        75
         1        50        69        74        75
         1        41        45        46        70
         1        45        46        50        70
         1        46        50        70        75
         1        41        46        66        70
         1        46        66        70        71
         1        46        70        71        75
         1        27        46        47        71
         1        26        27        46        71
         1        26        27        51        71
         1        27        47        71        72
         1        27        52        71        72
         1        27        51        52        71
         1        28        47        48        72
         1        27        28        47        72
         1        27        28        52        72
         1        28        48        72        73
         1        28        53        72        73
         1        28        52        53        72
         1        29        48        49        73
         1        28        29        48        73
         1        28        29        53        73
         1        29        49        73        74
         1        29        54        73        74
         1        29        53        54        73
         1        30        49        50        74
         1        29        30        49        74
         1        29        30        54        74
         1        30        50        74        75
         1        30        55        74        75
         1        30        54        55        74
         1        26        46        50        75
         1        26        30        50        75
         1        26        30        55        75
         1        26        46        71        75
         1        26        51        71        75
         1        26        51        55        75
         1        51        52        57        76
         1        51        56        57        76
         1        56        57        76        81
         1        52        57        76        77
         1        57        76        77        82
         1        57        76        81        82
         1        52        53        58        77
         1        52        57        58        77
         1        57        58        77        82
         1        53        58        77        78
         1        58        77        78        83
         1        58        77        82        83
         1        53        54        59        78
         1        53        58        59        78
         1        58        59        78        83
         1        54        59        78        79
         1        59        78        79        84
         1        59        78        83        84
         1        54        55        60        79
         1        54        59        60        79
         1        59        60        79        84
         1        55        60        79        80
         1        60        79        80        85
         1        60        79        84        85
         1        51        55        56        80
         1        55        56        60        80
         1        56        60        80        85
         1        51        56        76        80
         1        56        76        80        81
         1        56        80        81        85
         1        56        57        62        81
         1        56        61        62        81
         1        61        62        81        86
         1        57        62        81        82
         1        62        81        82        87
         1        62        81        86        87
         1        57        58        63        82
         1        57        62        63        82
         1        62        63        82        87
         1        58        63        82        83
         1        63        82        83        88
         1        63        82        87        88
         1        58        59        64        83
         1        58        63        64        83
         1        63        64        83        88
         1        59        64        83        84
         1        64        83        84        89
         1        64        83        88        89
         1        59        60        65        84
         1        59        64        65        84
         1        64        65        84        89
         1        60        65        84        85
         1        65        84        85        90
         1        65        84        89        90
         1        56        60        61        85
         1        60        61        65        85
         1        61        65        85        90
         1        56        61        81        85
         1        61        81        85        86
         1        61        85        86        90
         1        61        62        67        86
         1        61        66        67        86
         1        66        67        86        91
         1        62        67        86        87
         1        67        86        87        92
         1        67        86        91        92
         1        62        63        68        87
         1        62        67        68        87
         1        67        68        87        92
         1        63        68        87        88
         1        68        87        88        93
         1        68        87        92        93
         1        63        64        69        88
         1        63        68        69        88
         1        68        69        88        93
         1        64        69        88        89
         1        69        88        89        94
         1        69        88        93        94
         1        64        65        70        89
         1        64        69        70        89
         1        69        70        89        94
         1        65        70        89        90
         1        70        89        90        95
         1        70        89        94        95
         1        61        65        66        90
         1        65        66        70        90
         1        66        70        90        95
         1        61        66        86        90
         1        66        86        90        91
         1        66        90        91        95
         1        66        67        72        91
         1        66        71        72        91
         1        71        72        91        96
         1        67        72        91        92
         1        72        91        92        97
         1        72        91        96        97
         1        67        68        73        92
         1        67        72        73        92
         1        72        73        92        97
         1        68        73        92        93
         1        73        92        93        98
         1        73        92        97        98