  COHP#    atomMU    atomNU   distance   translation   ICOHP (at) eF 
                                                          for spin 1 
      1       Na1       Cl5    2.84731     0  -1   0        -0.56501 
      1    Na1_3s    Cl5_3s    2.84731     0  -1   0        -0.32461 
      1    Na1_3s  Cl5_3p_y    2.84731     0  -1   0        -0.24065 
      1    Na1_3s  Cl5_3p_z    2.84731     0  -1   0        -0.00000 
      1    Na1_3s  Cl5_3p_x    2.84731     0  -1   0        -0.00000 
      1  Na1_2p_y    Cl5_3s    2.84731     0  -1   0         0.00034 
      1  Na1_2p_y  Cl5_3p_y    2.84731     0  -1   0        -0.00038 
      1  Na1_2p_y  Cl5_3p_z    2.84731     0  -1   0        -0.00000 
      1  Na1_2p_y  Cl5_3p_x    2.84731     0  -1   0        -0.00000 
      1  Na1_2p_z    Cl5_3s    2.84731     0  -1   0        -0.00000 
      1  Na1_2p_z  Cl5_3p_y    2.84731     0  -1   0        -0.00000 
      1  Na1_2p_z  Cl5_3p_z    2.84731     0  -1   0         0.00014 
      1  Na1_2p_z  Cl5_3p_x    2.84731     0  -1   0        -0.00000 
      1  Na1_2p_x    Cl5_3s    2.84731     0  -1   0        -0.00000 
      1  Na1_2p_x  Cl5_3p_y    2.84731     0  -1   0        -0.00000 
      1  Na1_2p_x  Cl5_3p_z    2.84731     0  -1   0         0.00000 
      1  Na1_2p_x  Cl5_3p_x    2.84731     0  -1   0         0.00014 
      2       Na1       Cl5    2.84731     0   0   0        -0.56501 
      2    Na1_3s    Cl5_3s    2.84731     0   0   0        -0.32460 
      2    Na1_3s  Cl5_3p_y    2.84731     0   0   0        -0.24064 
      2    Na1_3s  Cl5_3p_z    2.84731     0   0   0        -0.00000 
      2    Na1_3s  Cl5_3p_x    2.84731     0   0   0        -0.00000 
      2  Na1_2p_y    Cl5_3s    2.84731     0   0   0         0.00034 
      2  Na1_2p_y  Cl5_3p_y    2.84731     0   0   0        -0.00038 
      2  Na1_2p_y  Cl5_3p_z    2.84731     0   0   0        -0.00000 
      2  Na1_2p_y  Cl5_3p_x    2.84731     0   0   0         0.00000 
      2  Na1_2p_z    Cl5_3s    2.84731     0   0   0        -0.00000 
      2  Na1_2p_z  Cl5_3p_y    2.84731     0   0   0        -0.00000 
      2  Na1_2p_z  Cl5_3p_z    2.84731     0   0   0         0.00014 
      2  Na1_2p_z  Cl5_3p_x    2.84731     0   0   0         0.00000 
      2  Na1_2p_x    Cl5_3s    2.84731     0   0   0        -0.00000 
      2  Na1_2p_x  Cl5_3p_y    2.84731     0   0   0        -0.00000 
      2  Na1_2p_x  Cl5_3p_z    2.84731     0   0   0        -0.00000 
      2  Na1_2p_x  Cl5_3p_x    2.84731     0   0   0         0.00014 
      3       Na1       Cl6    2.84731     0   0   0        -0.56500 
      3    Na1_3s    Cl6_3s    2.84731     0   0   0        -0.32460 
      3    Na1_3s  Cl6_3p_y    2.84731     0   0   0        -0.00000 
      3    Na1_3s  Cl6_3p_z    2.84731     0   0   0        -0.00000 
      3    Na1_3s  Cl6_3p_x    2.84731     0   0   0        -0.24064 
      3  Na1_2p_y    Cl6_3s    2.84731     0   0   0        -0.00000 
      3  Na1_2p_y  Cl6_3p_y    2.84731     0   0   0         0.00014 
      3  Na1_2p_y  Cl6_3p_z    2.84731     0   0   0        -0.00000 
      3  Na1_2p_y  Cl6_3p_x    2.84731     0   0   0        -0.00000 
      3  Na1_2p_z    Cl6_3s    2.84731     0   0   0        -0.00000 
      3  Na1_2p_z  Cl6_3p_y    2.84731     0   0   0        -0.00000 
      3  Na1_2p_z  Cl6_3p_z    2.84731     0   0   0         0.00014 
      3  Na1_2p_z  Cl6_3p_x    2.84731     0   0   0        -0.00000 
      3  Na1_2p_x    Cl6_3s    2.84731     0   0   0         0.00034 
      3  Na1_2p_x  Cl6_3p_y    2.84731     0   0   0        -0.00000 
      3  Na1_2p_x  Cl6_3p_z    2.84731     0   0   0        -0.00000 
      3  Na1_2p_x  Cl6_3p_x    2.84731     0   0   0        -0.00038 
      4       Na1       Cl6    2.84731     1   0   0        -0.56502 
      4    Na1_3s    Cl6_3s    2.84731     1   0   0        -0.32461 
      4    Na1_3s  Cl6_3p_y    2.84731     1   0   0        -0.00000 
      4    Na1_3s  Cl6_3p_z    2.84731     1   0   0        -0.00000 
      4    Na1_3s  Cl6_3p_x    2.84731     1   0   0        -0.24065 
      4  Na1_2p_y    Cl6_3s    2.84731     1   0   0        -0.00000 
      4  Na1_2p_y  Cl6_3p_y    2.84731     1   0   0         0.00014 
      4  Na1_2p_y  Cl6_3p_z    2.84731     1   0   0        -0.00000 
      4  Na1_2p_y  Cl6_3p_x    2.84731     1   0   0        -0.00000 
      4  Na1_2p_z    Cl6_3s    2.84731     1   0   0        -0.00000 
      4  Na1_2p_z  Cl6_3p_y    2.84731     1   0   0        -0.00000 
      4  Na1_2p_z  Cl6_3p_z    2.84731     1   0   0         0.00014 
      4  Na1_2p_z  Cl6_3p_x    2.84731     1   0   0        -0.00000 
      4  Na1_2p_x    Cl6_3s    2.84731     1   0   0         0.00034 
      4  Na1_2p_x  Cl6_3p_y    2.84731     1   0   0        -0.00000 
      4  Na1_2p_x  Cl6_3p_z    2.84731     1   0   0        -0.00000 
      4  Na1_2p_x  Cl6_3p_x    2.84731     1   0   0        -0.00038 
      5       Na1       Cl7    2.84731     0   0   0        -0.56501 
      5    Na1_3s    Cl7_3s    2.84731     0   0   0        -0.32460 
      5    Na1_3s  Cl7_3p_y    2.84731     0   0   0         0.00000 
      5    Na1_3s  Cl7_3p_z    2.84731     0   0   0        -0.24064 
      5    Na1_3s  Cl7_3p_x    2.84731     0   0   0        -0.00000 
      5  Na1_2p_y    Cl7_3s    2.84731     0   0   0        -0.00000 
      5  Na1_2p_y  Cl7_3p_y    2.84731     0   0   0         0.00014 
      5  Na1_2p_y  Cl7_3p_z    2.84731     0   0   0        -0.00000 
      5  Na1_2p_y  Cl7_3p_x    2.84731     0   0   0        -0.00000 
      5  Na1_2p_z    Cl7_3s    2.84731     0   0   0         0.00034 
      5  Na1_2p_z  Cl7_3p_y    2.84731     0   0   0        -0.00000 
      5  Na1_2p_z  Cl7_3p_z    2.84731     0   0   0        -0.00038 
      5  Na1_2p_z  Cl7_3p_x    2.84731     0   0   0         0.00000 
      5  Na1_2p_x    Cl7_3s    2.84731     0   0   0        -0.00000 
      5  Na1_2p_x  Cl7_3p_y    2.84731     0   0   0        -0.00000 
      5  Na1_2p_x  Cl7_3p_z    2.84731     0   0   0        -0.00000 
      5  Na1_2p_x  Cl7_3p_x    2.84731     0   0   0         0.00014 
      6       Na1       Cl7    2.84731     0   0   1        -0.56501 
      6    Na1_3s    Cl7_3s    2.84731     0   0   1        -0.32460 
      6    Na1_3s  Cl7_3p_y    2.84731     0   0   1        -0.00000 
      6    Na1_3s  Cl7_3p_z    2.84731     0   0   1        -0.24064 
      6    Na1_3s  Cl7_3p_x    2.84731     0   0   1        -0.00000 
      6  Na1_2p_y    Cl7_3s    2.84731     0   0   1        -0.00000 
      6  Na1_2p_y  Cl7_3p_y    2.84731     0   0   1         0.00014 
      6  Na1_2p_y  Cl7_3p_z    2.84731     0   0   1        -0.00000 
      6  Na1_2p_y  Cl7_3p_x    2.84731     0   0   1        -0.00000 
      6  Na1_2p_z    Cl7_3s    2.84731     0   0   1         0.00034 
      6  Na1_2p_z  Cl7_3p_y    2.84731     0   0   1        -0.00000 
      6  Na1_2p_z  Cl7_3p_z    2.84731     0   0   1        -0.00038 
      6  Na1_2p_z  Cl7_3p_x    2.84731     0   0   1        -0.00000 
      6  Na1_2p_x    Cl7_3s    2.84731     0   0   1        -0.00000 
      6  Na1_2p_x  Cl7_3p_y    2.84731     0   0   1        -0.00000 
      6  Na1_2p_x  Cl7_3p_z    2.84731     0   0   1        -0.00000 
      6  Na1_2p_x  Cl7_3p_x    2.84731     0   0   1         0.00014 
      7       Na2       Cl5    2.84731    -1   0   0        -0.56501 
      7    Na2_3s    Cl5_3s    2.84731    -1   0   0        -0.32461 
      7    Na2_3s  Cl5_3p_y    2.84731    -1   0   0        -0.00000 
      7    Na2_3s  Cl5_3p_z    2.84731    -1   0   0        -0.00000 
      7    Na2_3s  Cl5_3p_x    2.84731    -1   0   0        -0.24065 
      7  Na2_2p_y    Cl5_3s    2.84731    -1   0   0        -0.00000 
      7  Na2_2p_y  Cl5_3p_y    2.84731    -1   0   0         0.00014 
      7  Na2_2p_y  Cl5_3p_z    2.84731    -1   0   0        -0.00000 
      7  Na2_2p_y  Cl5_3p_x    2.84731    -1   0   0        -0.00000 
      7  Na2_2p_z    Cl5_3s    2.84731    -1   0   0        -0.00000 
      7  Na2_2p_z  Cl5_3p_y    2.84731    -1   0   0        -0.00000 
      7  Na2_2p_z  Cl5_3p_z    2.84731    -1   0   0         0.00014 
      7  Na2_2p_z  Cl5_3p_x    2.84731    -1   0   0         0.00000 
      7  Na2_2p_x    Cl5_3s    2.84731    -1   0   0         0.00034 
      7  Na2_2p_x  Cl5_3p_y    2.84731    -1   0   0        -0.00000 
      7  Na2_2p_x  Cl5_3p_z    2.84731    -1   0   0        -0.00000 
      7  Na2_2p_x  Cl5_3p_x    2.84731    -1   0   0        -0.00038 
      8       Na2       Cl5    2.84731     0   0   0        -0.56501 
      8    Na2_3s    Cl5_3s    2.84731     0   0   0        -0.32461 
      8    Na2_3s  Cl5_3p_y    2.84731     0   0   0        -0.00000 
      8    Na2_3s  Cl5_3p_z    2.84731     0   0   0        -0.00000 
      8    Na2_3s  Cl5_3p_x    2.84731     0   0   0        -0.24064 
      8  Na2_2p_y    Cl5_3s    2.84731     0   0   0        -0.00000 
      8  Na2_2p_y  Cl5_3p_y    2.84731     0   0   0         0.00014 
      8  Na2_2p_y  Cl5_3p_z    2.84731     0   0   0        -0.00000 
      8  Na2_2p_y  Cl5_3p_x    2.84731     0   0   0        -0.00000 
      8  Na2_2p_z    Cl5_3s    2.84731     0   0   0        -0.00000 
      8  Na2_2p_z  Cl5_3p_y    2.84731     0   0   0        -0.00000 
      8  Na2_2p_z  Cl5_3p_z    2.84731     0   0   0         0.00014 
      8  Na2_2p_z  Cl5_3p_x    2.84731     0   0   0         0.00000 
      8  Na2_2p_x    Cl5_3s    2.84731     0   0   0         0.00034 
      8  Na2_2p_x  Cl5_3p_y    2.84731     0   0   0        -0.00000 
      8  Na2_2p_x  Cl5_3p_z    2.84731     0   0   0        -0.00000 
      8  Na2_2p_x  Cl5_3p_x    2.84731     0   0   0        -0.00038 
      9       Na2       Cl6    2.84731     0   0   0        -0.56501 
      9    Na2_3s    Cl6_3s    2.84731     0   0   0        -0.32460 
      9    Na2_3s  Cl6_3p_y    2.84731     0   0   0        -0.24065 
      9    Na2_3s  Cl6_3p_z    2.84731     0   0   0        -0.00000 
      9    Na2_3s  Cl6_3p_x    2.84731     0   0   0        -0.00000 
      9  Na2_2p_y    Cl6_3s    2.84731     0   0   0         0.00034 
      9  Na2_2p_y  Cl6_3p_y    2.84731     0   0   0        -0.00038 
      9  Na2_2p_y  Cl6_3p_z    2.84731     0   0   0        -0.00000 
      9  Na2_2p_y  Cl6_3p_x    2.84731     0   0   0         0.00000 
      9  Na2_2p_z    Cl6_3s    2.84731     0   0   0        -0.00000 
      9  Na2_2p_z  Cl6_3p_y    2.84731     0   0   0        -0.00000 
      9  Na2_2p_z  Cl6_3p_z    2.84731     0   0   0         0.00014 
      9  Na2_2p_z  Cl6_3p_x    2.84731     0   0   0        -0.00000 
      9  Na2_2p_x    Cl6_3s    2.84731     0   0   0        -0.00000 
      9  Na2_2p_x  Cl6_3p_y    2.84731     0   0   0        -0.00000 
      9  Na2_2p_x  Cl6_3p_z    2.84731     0   0   0        -0.00000 
      9  Na2_2p_x  Cl6_3p_x    2.84731     0   0   0         0.00014 
     10       Na2       Cl6    2.84731     0   1   0        -0.56501 
     10    Na2_3s    Cl6_3s    2.84731     0   1   0        -0.32460 
     10    Na2_3s  Cl6_3p_y    2.84731     0   1   0        -0.24064 
     10    Na2_3s  Cl6_3p_z    2.84731     0   1   0        -0.00000 
     10    Na2_3s  Cl6_3p_x    2.84731     0   1   0        -0.00000 
     10  Na2_2p_y    Cl6_3s    2.84731     0   1   0         0.00034 
     10  Na2_2p_y  Cl6_3p_y    2.84731     0   1   0        -0.00038 
     10  Na2_2p_y  Cl6_3p_z    2.84731     0   1   0        -0.00000 
     10  Na2_2p_y  Cl6_3p_x    2.84731     0   1   0         0.00000 
     10  Na2_2p_z    Cl6_3s    2.84731     0   1   0        -0.00000 
     10  Na2_2p_z  Cl6_3p_y    2.84731     0   1   0        -0.00000 
     10  Na2_2p_z  Cl6_3p_z    2.84731     0   1   0         0.00014 
     10  Na2_2p_z  Cl6_3p_x    2.84731     0   1   0        -0.00000 
     10  Na2_2p_x    Cl6_3s    2.84731     0   1   0        -0.00000 
     10  Na2_2p_x  Cl6_3p_y    2.84731     0   1   0        -0.00000 
     10  Na2_2p_x  Cl6_3p_z    2.84731     0   1   0         0.00000 
     10  Na2_2p_x  Cl6_3p_x    2.84731     0   1   0         0.00014 
     11       Na2       Cl8    2.84731     0   0   0        -0.56501 
     11    Na2_3s    Cl8_3s    2.84731     0   0   0        -0.32460 
     11    Na2_3s  Cl8_3p_y    2.84731     0   0   0        -0.00000 
     11    Na2_3s  Cl8_3p_z    2.84731     0   0   0        -0.24065 
     11    Na2_3s  Cl8_3p_x    2.84731     0   0   0        -0.00000 
     11  Na2_2p_y    Cl8_3s    2.84731     0   0   0        -0.00000 
     11  Na2_2p_y  Cl8_3p_y    2.84731     0   0   0         0.00014 
     11  Na2_2p_y  Cl8_3p_z    2.84731     0   0   0        -0.00000 
     11  Na2_2p_y  Cl8_3p_x    2.84731     0   0   0        -0.00000 
     11  Na2_2p_z    Cl8_3s    2.84731     0   0   0         0.00034 
     11  Na2_2p_z  Cl8_3p_y    2.84731     0   0   0        -0.00000 
     11  Na2_2p_z  Cl8_3p_z    2.84731     0   0   0        -0.00038 
     11  Na2_2p_z  Cl8_3p_x    2.84731     0   0   0        -0.00000 
     11  Na2_2p_x    Cl8_3s    2.84731     0   0   0        -0.00000 
     11  Na2_2p_x  Cl8_3p_y    2.84731     0   0   0        -0.00000 
     11  Na2_2p_x  Cl8_3p_z    2.84731     0   0   0        -0.00000 
     11  Na2_2p_x  Cl8_3p_x    2.84731     0   0   0         0.00014 
     12       Na2       Cl8    2.84731     0   0   1        -0.56501 
     12    Na2_3s    Cl8_3s    2.84731     0   0   1        -0.32460 
     12    Na2_3s  Cl8_3p_y    2.84731     0   0   1        -0.00000 
     12    Na2_3s  Cl8_3p_z    2.84731     0   0   1        -0.24065 
     12    Na2_3s  Cl8_3p_x    2.84731     0   0   1        -0.00000 
     12  Na2_2p_y    Cl8_3s    2.84731     0   0   1        -0.00000 
     12  Na2_2p_y  Cl8_3p_y    2.84731     0   0   1         0.00014 
     12  Na2_2p_y  Cl8_3p_z    2.84731     0   0   1        -0.00000 
     12  Na2_2p_y  Cl8_3p_x    2.84731     0   0   1        -0.00000 
     12  Na2_2p_z    Cl8_3s    2.84731     0   0   1         0.00034 
     12  Na2_2p_z  Cl8_3p_y    2.84731     0   0   1        -0.00000 
     12  Na2_2p_z  Cl8_3p_z    2.84731     0   0   1        -0.00038 
     12  Na2_2p_z  Cl8_3p_x    2.84731     0   0   1         0.00000 
     12  Na2_2p_x    Cl8_3s    2.84731     0   0   1        -0.00000 
     12  Na2_2p_x  Cl8_3p_y    2.84731     0   0   1        -0.00000 
     12  Na2_2p_x  Cl8_3p_z    2.84731     0   0   1        -0.00000 
     12  Na2_2p_x  Cl8_3p_x    2.84731     0   0   1         0.00014 
     13       Na3       Cl5    2.84731     0   0  -1        -0.56501 
     13    Na3_3s    Cl5_3s    2.84731     0   0  -1        -0.32460 
     13    Na3_3s  Cl5_3p_y    2.84731     0   0  -1        -0.00000 
     13    Na3_3s  Cl5_3p_z    2.84731     0   0  -1        -0.24065 
     13    Na3_3s  Cl5_3p_x    2.84731     0   0  -1        -0.00000 
     13  Na3_2p_y    Cl5_3s    2.84731     0   0  -1        -0.00000 
     13  Na3_2p_y  Cl5_3p_y    2.84731     0   0  -1         0.00014 
     13  Na3_2p_y  Cl5_3p_z    2.84731     0   0  -1        -0.00000 
     13  Na3_2p_y  Cl5_3p_x    2.84731     0   0  -1        -0.00000 
     13  Na3_2p_z    Cl5_3s    2.84731     0   0  -1         0.00034 
     13  Na3_2p_z  Cl5_3p_y    2.84731     0   0  -1        -0.00000 
     13  Na3_2p_z  Cl5_3p_z    2.84731     0   0  -1        -0.00038 
     13  Na3_2p_z  Cl5_3p_x    2.84731     0   0  -1        -0.00000 
     13  Na3_2p_x    Cl5_3s    2.84731     0   0  -1        -0.00000 
     13  Na3_2p_x  Cl5_3p_y    2.84731     0   0  -1        -0.00000 
     13  Na3_2p_x  Cl5_3p_z    2.84731     0   0  -1        -0.00000 
     13  Na3_2p_x  Cl5_3p_x    2.84731     0   0  -1         0.00014 
     14       Na3       Cl5    2.84731     0   0   0        -0.56501 
     14    Na3_3s    Cl5_3s    2.84731     0   0   0        -0.32460 
     14    Na3_3s  Cl5_3p_y    2.84731     0   0   0        -0.00000 
     14    Na3_3s  Cl5_3p_z    2.84731     0   0   0        -0.24065 
     14    Na3_3s  Cl5_3p_x    2.84731     0   0   0        -0.00000 
     14  Na3_2p_y    Cl5_3s    2.84731     0   0   0        -0.00000 
     14  Na3_2p_y  Cl5_3p_y    2.84731     0   0   0         0.00014 
     14  Na3_2p_y  Cl5_3p_z    2.84731     0   0   0        -0.00000 
     14  Na3_2p_y  Cl5_3p_x    2.84731     0   0   0        -0.00000 
     14  Na3_2p_z    Cl5_3s    2.84731     0   0   0         0.00034 
     14  Na3_2p_z  Cl5_3p_y    2.84731     0   0   0        -0.00000 
     14  Na3_2p_z  Cl5_3p_z    2.84731     0   0   0        -0.00038 
     14  Na3_2p_z  Cl5_3p_x    2.84731     0   0   0         0.00000 
     14  Na3_2p_x    Cl5_3s    2.84731     0   0   0        -0.00000 
     14  Na3_2p_x  Cl5_3p_y    2.84731     0   0   0        -0.00000 
     14  Na3_2p_x  Cl5_3p_z    2.84731     0   0   0        -0.00000 
     14  Na3_2p_x  Cl5_3p_x    2.84731     0   0   0         0.00014 
     15       Na3       Cl7    2.84731     0   0   0        -0.56501 
     15    Na3_3s    Cl7_3s    2.84731     0   0   0        -0.32460 
     15    Na3_3s  Cl7_3p_y    2.84731     0   0   0        -0.24064 
     15    Na3_3s  Cl7_3p_z    2.84731     0   0   0        -0.00000 
     15    Na3_3s  Cl7_3p_x    2.84731     0   0   0        -0.00000 
     15  Na3_2p_y    Cl7_3s    2.84731     0   0   0         0.00034 
     15  Na3_2p_y  Cl7_3p_y    2.84731     0   0   0        -0.00038 
     15  Na3_2p_y  Cl7_3p_z    2.84731     0   0   0        -0.00000 
     15  Na3_2p_y  Cl7_3p_x    2.84731     0   0   0        -0.00000 
     15  Na3_2p_z    Cl7_3s    2.84731     0   0   0        -0.00000 
     15  Na3_2p_z  Cl7_3p_y    2.84731     0   0   0        -0.00000 
     15  Na3_2p_z  Cl7_3p_z    2.84731     0   0   0         0.00014 
     15  Na3_2p_z  Cl7_3p_x    2.84731     0   0   0        -0.00000 
     15  Na3_2p_x    Cl7_3s    2.84731     0   0   0        -0.00000 
     15  Na3_2p_x  Cl7_3p_y    2.84731     0   0   0        -0.00000 
     15  Na3_2p_x  Cl7_3p_z    2.84731     0   0   0        -0.00000 
     15  Na3_2p_x  Cl7_3p_x    2.84731     0   0   0         0.00014 
     16       Na3       Cl7    2.84731     0   1   0        -0.56501 
     16    Na3_3s    Cl7_3s    2.84731     0   1   0        -0.32460 
     16    Na3_3s  Cl7_3p_y    2.84731     0   1   0        -0.24065 
     16    Na3_3s  Cl7_3p_z    2.84731     0   1   0        -0.00000 
     16    Na3_3s  Cl7_3p_x    2.84731     0   1   0        -0.00000 
     16  Na3_2p_y    Cl7_3s    2.84731     0   1   0         0.00034 
     16  Na3_2p_y  Cl7_3p_y    2.84731     0   1   0        -0.00038 
     16  Na3_2p_y  Cl7_3p_z    2.84731     0   1   0        -0.00000 
     16  Na3_2p_y  Cl7_3p_x    2.84731     0   1   0        -0.00000 
     16  Na3_2p_z    Cl7_3s    2.84731     0   1   0        -0.00000 
     16  Na3_2p_z  Cl7_3p_y    2.84731     0   1   0         0.00000 
     16  Na3_2p_z  Cl7_3p_z    2.84731     0   1   0         0.00014 
     16  Na3_2p_z  Cl7_3p_x    2.84731     0   1   0        -0.00000 
     16  Na3_2p_x    Cl7_3s    2.84731     0   1   0        -0.00000 
     16  Na3_2p_x  Cl7_3p_y    2.84731     0   1   0        -0.00000 
     16  Na3_2p_x  Cl7_3p_z    2.84731     0   1   0        -0.00000 
     16  Na3_2p_x  Cl7_3p_x    2.84731     0   1   0         0.00014 
     17       Na3       Cl8    2.84731     0   0   0        -0.56501 
     17    Na3_3s    Cl8_3s    2.84731     0   0   0        -0.32461 
     17    Na3_3s  Cl8_3p_y    2.84731     0   0   0        -0.00000 
     17    Na3_3s  Cl8_3p_z    2.84731     0   0   0        -0.00000 
     17    Na3_3s  Cl8_3p_x    2.84731     0   0   0        -0.24064 
     17  Na3_2p_y    Cl8_3s    2.84731     0   0   0        -0.00000 
     17  Na3_2p_y  Cl8_3p_y    2.84731     0   0   0         0.00014 
     17  Na3_2p_y  Cl8_3p_z    2.84731     0   0   0        -0.00000 
     17  Na3_2p_y  Cl8_3p_x    2.84731     0   0   0        -0.00000 
     17  Na3_2p_z    Cl8_3s    2.84731     0   0   0        -0.00000 
     17  Na3_2p_z  Cl8_3p_y    2.84731     0   0   0        -0.00000 
     17  Na3_2p_z  Cl8_3p_z    2.84731     0   0   0         0.00014 
     17  Na3_2p_z  Cl8_3p_x    2.84731     0   0   0        -0.00000 
     17  Na3_2p_x    Cl8_3s    2.84731     0   0   0         0.00034 
     17  Na3_2p_x  Cl8_3p_y    2.84731     0   0   0        -0.00000 
     17  Na3_2p_x  Cl8_3p_z    2.84731     0   0   0        -0.00000 
     17  Na3_2p_x  Cl8_3p_x    2.84731     0   0   0        -0.00038 
     18       Na3       Cl8    2.84731     1   0   0        -0.56501 
     18    Na3_3s    Cl8_3s    2.84731     1   0   0        -0.32461 
     18    Na3_3s  Cl8_3p_y    2.84731     1   0   0        -0.00000 
     18    Na3_3s  Cl8_3p_z    2.84731     1   0   0        -0.00000 
     18    Na3_3s  Cl8_3p_x    2.84731     1   0   0        -0.24064 
     18  Na3_2p_y    Cl8_3s    2.84731     1   0   0        -0.00000 
     18  Na3_2p_y  Cl8_3p_y    2.84731     1   0   0         0.00014 
     18  Na3_2p_y  Cl8_3p_z    2.84731     1   0   0        -0.00000 
     18  Na3_2p_y  Cl8_3p_x    2.84731     1   0   0        -0.00000 
     18  Na3_2p_z    Cl8_3s    2.84731     1   0   0        -0.00000 
     18  Na3_2p_z  Cl8_3p_y    2.84731     1   0   0        -0.00000 
     18  Na3_2p_z  Cl8_3p_z    2.84731     1   0   0         0.00014 
     18  Na3_2p_z  Cl8_3p_x    2.84731     1   0   0        -0.00000 
     18  Na3_2p_x    Cl8_3s    2.84731     1   0   0         0.00034 
     18  Na3_2p_x  Cl8_3p_y    2.84731     1   0   0        -0.00000 
     18  Na3_2p_x  Cl8_3p_z    2.84731     1   0   0        -0.00000 
     18  Na3_2p_x  Cl8_3p_x    2.84731     1   0   0        -0.00038 
     19       Na4       Cl6    2.84731     0   0  -1        -0.56501 
     19    Na4_3s    Cl6_3s    2.84731     0   0  -1        -0.32461 
     19    Na4_3s  Cl6_3p_y    2.84731     0   0  -1        -0.00000 
     19    Na4_3s  Cl6_3p_z    2.84731     0   0  -1        -0.24064 
     19    Na4_3s  Cl6_3p_x    2.84731     0   0  -1        -0.00000 
     19  Na4_2p_y    Cl6_3s    2.84731     0   0  -1        -0.00000 
     19  Na4_2p_y  Cl6_3p_y    2.84731     0   0  -1         0.00014 
     19  Na4_2p_y  Cl6_3p_z    2.84731     0   0  -1        -0.00000 
     19  Na4_2p_y  Cl6_3p_x    2.84731     0   0  -1        -0.00000 
     19  Na4_2p_z    Cl6_3s    2.84731     0   0  -1         0.00034 
     19  Na4_2p_z  Cl6_3p_y    2.84731     0   0  -1        -0.00000 
     19  Na4_2p_z  Cl6_3p_z    2.84731     0   0  -1        -0.00038 
     19  Na4_2p_z  Cl6_3p_x    2.84731     0   0  -1        -0.00000 
     19  Na4_2p_x    Cl6_3s    2.84731     0   0  -1        -0.00000 
     19  Na4_2p_x  Cl6_3p_y    2.84731     0   0  -1        -0.00000 
     19  Na4_2p_x  Cl6_3p_z    2.84731     0   0  -1        -0.00000 
     19  Na4_2p_x  Cl6_3p_x    2.84731     0   0  -1         0.00014 
     20       Na4       Cl6    2.84731     0   0   0        -0.56501 
     20    Na4_3s    Cl6_3s    2.84731     0   0   0        -0.32461 
     20    Na4_3s  Cl6_3p_y    2.84731     0   0   0        -0.00000 
     20    Na4_3s  Cl6_3p_z    2.84731     0   0   0        -0.24064 
     20    Na4_3s  Cl6_3p_x    2.84731     0   0   0        -0.00000 
     20  Na4_2p_y    Cl6_3s    2.84731     0   0   0        -0.00000 
     20  Na4_2p_y  Cl6_3p_y    2.84731     0   0   0         0.00014 
     20  Na4_2p_y  Cl6_3p_z    2.84731     0   0   0        -0.00000 
     20  Na4_2p_y  Cl6_3p_x    2.84731     0   0   0        -0.00000 
     20  Na4_2p_z    Cl6_3s    2.84731     0   0   0         0.00034 
     20  Na4_2p_z  Cl6_3p_y    2.84731     0   0   0        -0.00000 
     20  Na4_2p_z  Cl6_3p_z    2.84731     0   0   0        -0.00038 
     20  Na4_2p_z  Cl6_3p_x    2.84731     0   0   0        -0.00000 
     20  Na4_2p_x    Cl6_3s    2.84731     0   0   0        -0.00000 
     20  Na4_2p_x  Cl6_3p_y    2.84731     0   0   0        -0.00000 
     20  Na4_2p_x  Cl6_3p_z    2.84731     0   0   0        -0.00000 
     20  Na4_2p_x  Cl6_3p_x    2.84731     0   0   0         0.00014 
     21       Na4       Cl7    2.84731    -1   0   0        -0.56501 
     21    Na4_3s    Cl7_3s    2.84731    -1   0   0        -0.32460 
     21    Na4_3s  Cl7_3p_y    2.84731    -1   0   0        -0.00000 
     21    Na4_3s  Cl7_3p_z    2.84731    -1   0   0        -0.00000 
     21    Na4_3s  Cl7_3p_x    2.84731    -1   0   0        -0.24065 
     21  Na4_2p_y    Cl7_3s    2.84731    -1   0   0         0.00000 
     21  Na4_2p_y  Cl7_3p_y    2.84731    -1   0   0         0.00014 
     21  Na4_2p_y  Cl7_3p_z    2.84731    -1   0   0        -0.00000 
     21  Na4_2p_y  Cl7_3p_x    2.84731    -1   0   0        -0.00000 
     21  Na4_2p_z    Cl7_3s    2.84731    -1   0   0        -0.00000 
     21  Na4_2p_z  Cl7_3p_y    2.84731    -1   0   0        -0.00000 
     21  Na4_2p_z  Cl7_3p_z    2.84731    -1   0   0         0.00014 
     21  Na4_2p_z  Cl7_3p_x    2.84731    -1   0   0        -0.00000 
     21  Na4_2p_x    Cl7_3s    2.84731    -1   0   0         0.00034 
     21  Na4_2p_x  Cl7_3p_y    2.84731    -1   0   0        -0.00000 
     21  Na4_2p_x  Cl7_3p_z    2.84731    -1   0   0        -0.00000 
     21  Na4_2p_x  Cl7_3p_x    2.84731    -1   0   0        -0.00038 
     22       Na4       Cl7    2.84731     0   0   0        -0.56501 
     22    Na4_3s    Cl7_3s    2.84731     0   0   0        -0.32461 
     22    Na4_3s  Cl7_3p_y    2.84731     0   0   0        -0.00000 
     22    Na4_3s  Cl7_3p_z    2.84731     0   0   0        -0.00000 
     22    Na4_3s  Cl7_3p_x    2.84731     0   0   0        -0.24064 
     22  Na4_2p_y    Cl7_3s    2.84731     0   0   0        -0.00000 
     22  Na4_2p_y  Cl7_3p_y    2.84731     0   0   0         0.00014 
     22  Na4_2p_y  Cl7_3p_z    2.84731     0   0   0        -0.00000 
     22  Na4_2p_y  Cl7_3p_x    2.84731     0   0   0        -0.00000 
     22  Na4_2p_z    Cl7_3s    2.84731     0   0   0        -0.00000 
     22  Na4_2p_z  Cl7_3p_y    2.84731     0   0   0        -0.00000 
     22  Na4_2p_z  Cl7_3p_z    2.84731     0   0   0         0.00014 
     22  Na4_2p_z  Cl7_3p_x    2.84731     0   0   0        -0.00000 
     22  Na4_2p_x    Cl7_3s    2.84731     0   0   0         0.00034 
     22  Na4_2p_x  Cl7_3p_y    2.84731     0   0   0        -0.00000 
     22  Na4_2p_x  Cl7_3p_z    2.84731     0   0   0        -0.00000 
     22  Na4_2p_x  Cl7_3p_x    2.84731     0   0   0        -0.00038 
     23       Na4       Cl8    2.84731     0  -1   0        -0.56501 
     23    Na4_3s    Cl8_3s    2.84731     0  -1   0        -0.32460 
     23    Na4_3s  Cl8_3p_y    2.84731     0  -1   0        -0.24064 
     23    Na4_3s  Cl8_3p_z    2.84731     0  -1   0        -0.00000 
     23    Na4_3s  Cl8_3p_x    2.84731     0  -1   0        -0.00000 
     23  Na4_2p_y    Cl8_3s    2.84731     0  -1   0         0.00034 
     23  Na4_2p_y  Cl8_3p_y    2.84731     0  -1   0        -0.00038 
     23  Na4_2p_y  Cl8_3p_z    2.84731     0  -1   0        -0.00000 
     23  Na4_2p_y  Cl8_3p_x    2.84731     0  -1   0        -0.00000 
     23  Na4_2p_z    Cl8_3s    2.84731     0  -1   0        -0.00000 
     23  Na4_2p_z  Cl8_3p_y    2.84731     0  -1   0        -0.00000 
     23  Na4_2p_z  Cl8_3p_z    2.84731     0  -1   0         0.00014 
     23  Na4_2p_z  Cl8_3p_x    2.84731     0  -1   0        -0.00000 
     23  Na4_2p_x    Cl8_3s    2.84731     0  -1   0        -0.00000 
     23  Na4_2p_x  Cl8_3p_y    2.84731     0  -1   0        -0.00000 
     23  Na4_2p_x  Cl8_3p_z    2.84731     0  -1   0        -0.00000 
     23  Na4_2p_x  Cl8_3p_x    2.84731     0  -1   0         0.00014 
     24       Na4       Cl8    2.84731     0   0   0        -0.56501 
     24    Na4_3s    Cl8_3s    2.84731     0   0   0        -0.32461 
     24    Na4_3s  Cl8_3p_y    2.84731     0   0   0        -0.24064 
     24    Na4_3s  Cl8_3p_z    2.84731     0   0   0        -0.00000 
     24    Na4_3s  Cl8_3p_x    2.84731     0   0   0        -0.00000 
     24  Na4_2p_y    Cl8_3s    2.84731     0   0   0         0.00034 
     24  Na4_2p_y  Cl8_3p_y    2.84731     0   0   0        -0.00038 
     24  Na4_2p_y  Cl8_3p_z    2.84731     0   0   0        -0.00000 
     24  Na4_2p_y  Cl8_3p_x    2.84731     0   0   0        -0.00000 
     24  Na4_2p_z    Cl8_3s    2.84731     0   0   0        -0.00000 
     24  Na4_2p_z  Cl8_3p_y    2.84731     0   0   0        -0.00000 
     24  Na4_2p_z  Cl8_3p_z    2.84731     0   0   0         0.00014 
     24  Na4_2p_z  Cl8_3p_x    2.84731     0   0   0        -0.00000 
     24  Na4_2p_x    Cl8_3s    2.84731     0   0   0        -0.00000 
     24  Na4_2p_x  Cl8_3p_y    2.84731     0   0   0        -0.00000 
     24  Na4_2p_x  Cl8_3p_z    2.84731     0   0   0        -0.00000 
     24  Na4_2p_x  Cl8_3p_x    2.84731     0   0   0         0.00014 