  COHP#  fragmentAlpha   fragmentBeta   distance   translation     ICOHP (at) eF 
                                                                      for spin 1 
      1         NaCl_1         NaCl_1    2.84731     0  -1   0          -0.57919 
      1     NaCl_1_1a1     NaCl_1_1a1    2.84731     0  -1   0          -0.00000 
      1     NaCl_1_1a1      NaCl_1_1e    2.84731     0  -1   0          -0.00000 
      1     NaCl_1_1a1      NaCl_1_2e    2.84731     0  -1   0          -0.00000 
      1     NaCl_1_1a1     NaCl_1_2a1    2.84731     0  -1   0           0.00027 
      1     NaCl_1_1a1     NaCl_1_3a1    2.84731     0  -1   0          -0.00009 
      1     NaCl_1_1a1      NaCl_1_3e    2.84731     0  -1   0           0.00000 
      1     NaCl_1_1a1      NaCl_1_4e    2.84731     0  -1   0           0.00000 
      1     NaCl_1_1a1     NaCl_1_4a1    2.84731     0  -1   0          -0.00100 
      1      NaCl_1_1e     NaCl_1_1a1    2.84731     0  -1   0          -0.00000 
      1      NaCl_1_1e      NaCl_1_1e    2.84731     0  -1   0          -0.00000 
      1      NaCl_1_1e      NaCl_1_2e    2.84731     0  -1   0          -0.00000 
      1      NaCl_1_1e     NaCl_1_2a1    2.84731     0  -1   0          -0.00000 
      1      NaCl_1_1e     NaCl_1_3a1    2.84731     0  -1   0           0.00000 
      1      NaCl_1_1e      NaCl_1_3e    2.84731     0  -1   0           0.00006 
      1      NaCl_1_1e      NaCl_1_4e    2.84731     0  -1   0           0.00008 
      1      NaCl_1_1e     NaCl_1_4a1    2.84731     0  -1   0          -0.00000 
      1      NaCl_1_2e     NaCl_1_1a1    2.84731     0  -1   0          -0.00000 
      1      NaCl_1_2e      NaCl_1_1e    2.84731     0  -1   0          -0.00000 
      1      NaCl_1_2e      NaCl_1_2e    2.84731     0  -1   0          -0.00000 
      1      NaCl_1_2e     NaCl_1_2a1    2.84731     0  -1   0          -0.00000 
      1      NaCl_1_2e     NaCl_1_3a1    2.84731     0  -1   0           0.00000 
      1      NaCl_1_2e      NaCl_1_3e    2.84731     0  -1   0           0.00008 
      1      NaCl_1_2e      NaCl_1_4e    2.84731     0  -1   0           0.00006 
      1      NaCl_1_2e     NaCl_1_4a1    2.84731     0  -1   0          -0.00000 
      1     NaCl_1_2a1     NaCl_1_1a1    2.84731     0  -1   0          -0.00000 
      1     NaCl_1_2a1      NaCl_1_1e    2.84731     0  -1   0          -0.00000 
      1     NaCl_1_2a1      NaCl_1_2e    2.84731     0  -1   0          -0.00000 
      1     NaCl_1_2a1     NaCl_1_2a1    2.84731     0  -1   0          -0.00042 
      1     NaCl_1_2a1     NaCl_1_3a1    2.84731     0  -1   0           0.00006 
      1     NaCl_1_2a1      NaCl_1_3e    2.84731     0  -1   0          -0.00000 
      1     NaCl_1_2a1      NaCl_1_4e    2.84731     0  -1   0          -0.00000 
      1     NaCl_1_2a1     NaCl_1_4a1    2.84731     0  -1   0          -0.00005 
      1     NaCl_1_3a1     NaCl_1_1a1    2.84731     0  -1   0          -0.00000 
      1     NaCl_1_3a1      NaCl_1_1e    2.84731     0  -1   0          -0.00000 
      1     NaCl_1_3a1      NaCl_1_2e    2.84731     0  -1   0          -0.00000 
      1     NaCl_1_3a1     NaCl_1_2a1    2.84731     0  -1   0          -0.00076 
      1     NaCl_1_3a1     NaCl_1_3a1    2.84731     0  -1   0          -0.00020 
      1     NaCl_1_3a1      NaCl_1_3e    2.84731     0  -1   0          -0.00000 
      1     NaCl_1_3a1      NaCl_1_4e    2.84731     0  -1   0          -0.00000 
      1     NaCl_1_3a1     NaCl_1_4a1    2.84731     0  -1   0          -0.00035 
      1      NaCl_1_3e     NaCl_1_1a1    2.84731     0  -1   0          -0.00000 
      1      NaCl_1_3e      NaCl_1_1e    2.84731     0  -1   0           0.00000 
      1      NaCl_1_3e      NaCl_1_2e    2.84731     0  -1   0           0.00000 
      1      NaCl_1_3e     NaCl_1_2a1    2.84731     0  -1   0          -0.00000 
      1      NaCl_1_3e     NaCl_1_3a1    2.84731     0  -1   0          -0.00000 
      1      NaCl_1_3e      NaCl_1_3e    2.84731     0  -1   0          -0.00011 
      1      NaCl_1_3e      NaCl_1_4e    2.84731     0  -1   0          -0.00000 
      1      NaCl_1_3e     NaCl_1_4a1    2.84731     0  -1   0          -0.00000 
      1      NaCl_1_4e     NaCl_1_1a1    2.84731     0  -1   0          -0.00000 
      1      NaCl_1_4e      NaCl_1_1e    2.84731     0  -1   0           0.00000 
      1      NaCl_1_4e      NaCl_1_2e    2.84731     0  -1   0           0.00000 
      1      NaCl_1_4e     NaCl_1_2a1    2.84731     0  -1   0          -0.00000 
      1      NaCl_1_4e     NaCl_1_3a1    2.84731     0  -1   0          -0.00000 
      1      NaCl_1_4e      NaCl_1_3e    2.84731     0  -1   0          -0.00000 
      1      NaCl_1_4e      NaCl_1_4e    2.84731     0  -1   0          -0.00011 
      1      NaCl_1_4e     NaCl_1_4a1    2.84731     0  -1   0          -0.00000 
      1     NaCl_1_4a1     NaCl_1_1a1    2.84731     0  -1   0          -0.00019 
      1     NaCl_1_4a1      NaCl_1_1e    2.84731     0  -1   0          -0.00000 
      1     NaCl_1_4a1      NaCl_1_2e    2.84731     0  -1   0          -0.00000 
      1     NaCl_1_4a1     NaCl_1_2a1    2.84731     0  -1   0          -0.31665 
      1     NaCl_1_4a1     NaCl_1_3a1    2.84731     0  -1   0          -0.25964 
      1     NaCl_1_4a1      NaCl_1_3e    2.84731     0  -1   0          -0.00000 
      1     NaCl_1_4a1      NaCl_1_4e    2.84731     0  -1   0          -0.00000 
      1     NaCl_1_4a1     NaCl_1_4a1    2.84731     0  -1   0          -0.00023 
      2         NaCl_1         NaCl_1    2.84731     0   1   0          -0.57919 
      2     NaCl_1_1a1     NaCl_1_1a1    2.84731     0   1   0          -0.00000 
      2     NaCl_1_1a1      NaCl_1_1e    2.84731     0   1   0          -0.00000 
      2     NaCl_1_1a1      NaCl_1_2e    2.84731     0   1   0          -0.00000 
      2     NaCl_1_1a1     NaCl_1_2a1    2.84731     0   1   0          -0.00000 
      2     NaCl_1_1a1     NaCl_1_3a1    2.84731     0   1   0          -0.00000 
      2     NaCl_1_1a1      NaCl_1_3e    2.84731     0   1   0          -0.00000 
      2     NaCl_1_1a1      NaCl_1_4e    2.84731     0   1   0          -0.00000 
      2     NaCl_1_1a1     NaCl_1_4a1    2.84731     0   1   0          -0.00019 
      2      NaCl_1_1e     NaCl_1_1a1    2.84731     0   1   0          -0.00000 
      2      NaCl_1_1e      NaCl_1_1e    2.84731     0   1   0          -0.00000 
      2      NaCl_1_1e      NaCl_1_2e    2.84731     0   1   0          -0.00000 
      2      NaCl_1_1e     NaCl_1_2a1    2.84731     0   1   0          -0.00000 
      2      NaCl_1_1e     NaCl_1_3a1    2.84731     0   1   0          -0.00000 
      2      NaCl_1_1e      NaCl_1_3e    2.84731     0   1   0           0.00000 
      2      NaCl_1_1e      NaCl_1_4e    2.84731     0   1   0           0.00000 
      2      NaCl_1_1e     NaCl_1_4a1    2.84731     0   1   0          -0.00000 
      2      NaCl_1_2e     NaCl_1_1a1    2.84731     0   1   0          -0.00000 
      2      NaCl_1_2e      NaCl_1_1e    2.84731     0   1   0          -0.00000 
      2      NaCl_1_2e      NaCl_1_2e    2.84731     0   1   0          -0.00000 
      2      NaCl_1_2e     NaCl_1_2a1    2.84731     0   1   0          -0.00000 
      2      NaCl_1_2e     NaCl_1_3a1    2.84731     0   1   0          -0.00000 
      2      NaCl_1_2e      NaCl_1_3e    2.84731     0   1   0           0.00000 
      2      NaCl_1_2e      NaCl_1_4e    2.84731     0   1   0           0.00000 
      2      NaCl_1_2e     NaCl_1_4a1    2.84731     0   1   0          -0.00000 
      2     NaCl_1_2a1     NaCl_1_1a1    2.84731     0   1   0           0.00027 
      2     NaCl_1_2a1      NaCl_1_1e    2.84731     0   1   0          -0.00000 
      2     NaCl_1_2a1      NaCl_1_2e    2.84731     0   1   0          -0.00000 
      2     NaCl_1_2a1     NaCl_1_2a1    2.84731     0   1   0          -0.00042 
      2     NaCl_1_2a1     NaCl_1_3a1    2.84731     0   1   0          -0.00076 
      2     NaCl_1_2a1      NaCl_1_3e    2.84731     0   1   0          -0.00000 
      2     NaCl_1_2a1      NaCl_1_4e    2.84731     0   1   0          -0.00000 
      2     NaCl_1_2a1     NaCl_1_4a1    2.84731     0   1   0          -0.31665 
      2     NaCl_1_3a1     NaCl_1_1a1    2.84731     0   1   0          -0.00009 
      2     NaCl_1_3a1      NaCl_1_1e    2.84731     0   1   0           0.00000 
      2     NaCl_1_3a1      NaCl_1_2e    2.84731     0   1   0           0.00000 
      2     NaCl_1_3a1     NaCl_1_2a1    2.84731     0   1   0           0.00006 
      2     NaCl_1_3a1     NaCl_1_3a1    2.84731     0   1   0          -0.00020 
      2     NaCl_1_3a1      NaCl_1_3e    2.84731     0   1   0          -0.00000 
      2     NaCl_1_3a1      NaCl_1_4e    2.84731     0   1   0          -0.00000 
      2     NaCl_1_3a1     NaCl_1_4a1    2.84731     0   1   0          -0.25964 
      2      NaCl_1_3e     NaCl_1_1a1    2.84731     0   1   0           0.00000 
      2      NaCl_1_3e      NaCl_1_1e    2.84731     0   1   0           0.00006 
      2      NaCl_1_3e      NaCl_1_2e    2.84731     0   1   0           0.00008 
      2      NaCl_1_3e     NaCl_1_2a1    2.84731     0   1   0          -0.00000 
      2      NaCl_1_3e     NaCl_1_3a1    2.84731     0   1   0          -0.00000 
      2      NaCl_1_3e      NaCl_1_3e    2.84731     0   1   0          -0.00011 
      2      NaCl_1_3e      NaCl_1_4e    2.84731     0   1   0          -0.00000 
      2      NaCl_1_3e     NaCl_1_4a1    2.84731     0   1   0          -0.00000 
      2      NaCl_1_4e     NaCl_1_1a1    2.84731     0   1   0           0.00000 
      2      NaCl_1_4e      NaCl_1_1e    2.84731     0   1   0           0.00008 
      2      NaCl_1_4e      NaCl_1_2e    2.84731     0   1   0           0.00006 
      2      NaCl_1_4e     NaCl_1_2a1    2.84731     0   1   0          -0.00000 
      2      NaCl_1_4e     NaCl_1_3a1    2.84731     0   1   0          -0.00000 
      2      NaCl_1_4e      NaCl_1_3e    2.84731     0   1   0          -0.00000 
      2      NaCl_1_4e      NaCl_1_4e    2.84731     0   1   0          -0.00011 
      2      NaCl_1_4e     NaCl_1_4a1    2.84731     0   1   0          -0.00000 
      2     NaCl_1_4a1     NaCl_1_1a1    2.84731     0   1   0          -0.00100 
      2     NaCl_1_4a1      NaCl_1_1e    2.84731     0   1   0          -0.00000 
      2     NaCl_1_4a1      NaCl_1_2e    2.84731     0   1   0          -0.00000 
      2     NaCl_1_4a1     NaCl_1_2a1    2.84731     0   1   0          -0.00005 
      2     NaCl_1_4a1     NaCl_1_3a1    2.84731     0   1   0          -0.00035 
      2     NaCl_1_4a1      NaCl_1_3e    2.84731     0   1   0          -0.00000 
      2     NaCl_1_4a1      NaCl_1_4e    2.84731     0   1   0          -0.00000 
      2     NaCl_1_4a1     NaCl_1_4a1    2.84731     0   1   0          -0.00023 
      3         NaCl_1          Na2_2    2.84731     0   0   0          -1.19044 
      3     NaCl_1_1a1     Na2_2_1a1u    2.84731     0   0   0          -0.00000 
      3     NaCl_1_1a1     Na2_2_1e1g    2.84731     0   0   0          -0.00000 
      3     NaCl_1_1a1     Na2_2_2e1g    2.84731     0   0   0          -0.00000 
      3     NaCl_1_1a1     Na2_2_1e1u    2.84731     0   0   0          -0.00000 
      3     NaCl_1_1a1     Na2_2_2e1u    2.84731     0   0   0           0.00000 
      3     NaCl_1_1a1     Na2_2_1a1g    2.84731     0   0   0          -0.00000 
      3     NaCl_1_1a1     Na2_2_2a1g    2.84731     0   0   0          -0.00295 
      3     NaCl_1_1a1     Na2_2_2a1u    2.84731     0   0   0          -0.00000 
      3      NaCl_1_1e     Na2_2_1a1u    2.84731     0   0   0          -0.00000 
      3      NaCl_1_1e     Na2_2_1e1g    2.84731     0   0   0          -0.00000 
      3      NaCl_1_1e     Na2_2_2e1g    2.84731     0   0   0          -0.00000 
      3      NaCl_1_1e     Na2_2_1e1u    2.84731     0   0   0          -0.00000 
      3      NaCl_1_1e     Na2_2_2e1u    2.84731     0   0   0          -0.00000 
      3      NaCl_1_1e     Na2_2_1a1g    2.84731     0   0   0           0.00000 
      3      NaCl_1_1e     Na2_2_2a1g    2.84731     0   0   0          -0.00096 
      3      NaCl_1_1e     Na2_2_2a1u    2.84731     0   0   0          -0.00027 
      3      NaCl_1_2e     Na2_2_1a1u    2.84731     0   0   0          -0.00000 
      3      NaCl_1_2e     Na2_2_1e1g    2.84731     0   0   0          -0.00000 
      3      NaCl_1_2e     Na2_2_2e1g    2.84731     0   0   0          -0.00000 
      3      NaCl_1_2e     Na2_2_1e1u    2.84731     0   0   0          -0.00000 
      3      NaCl_1_2e     Na2_2_2e1u    2.84731     0   0   0          -0.00000 
      3      NaCl_1_2e     Na2_2_1a1g    2.84731     0   0   0           0.00000 
      3      NaCl_1_2e     Na2_2_2a1g    2.84731     0   0   0          -0.00027 
      3      NaCl_1_2e     Na2_2_2a1u    2.84731     0   0   0          -0.00096 
      3     NaCl_1_2a1     Na2_2_1a1u    2.84731     0   0   0           0.00000 
      3     NaCl_1_2a1     Na2_2_1e1g    2.84731     0   0   0          -0.00000 
      3     NaCl_1_2a1     Na2_2_2e1g    2.84731     0   0   0           0.00000 
      3     NaCl_1_2a1     Na2_2_1e1u    2.84731     0   0   0           0.00034 
      3     NaCl_1_2a1     Na2_2_2e1u    2.84731     0   0   0          -0.00003 
      3     NaCl_1_2a1     Na2_2_1a1g    2.84731     0   0   0           0.00019 
      3     NaCl_1_2a1     Na2_2_2a1g    2.84731     0   0   0          -0.68119 
      3     NaCl_1_2a1     Na2_2_2a1u    2.84731     0   0   0          -0.00000 
      3     NaCl_1_3a1     Na2_2_1a1u    2.84731     0   0   0          -0.00000 
      3     NaCl_1_3a1     Na2_2_1e1g    2.84731     0   0   0           0.00000 
      3     NaCl_1_3a1     Na2_2_2e1g    2.84731     0   0   0           0.00000 
      3     NaCl_1_3a1     Na2_2_1e1u    2.84731     0   0   0          -0.00003 
      3     NaCl_1_3a1     Na2_2_2e1u    2.84731     0   0   0           0.00021 
      3     NaCl_1_3a1     Na2_2_1a1g    2.84731     0   0   0          -0.00003 
      3     NaCl_1_3a1     Na2_2_2a1g    2.84731     0   0   0          -0.00015 
      3     NaCl_1_3a1     Na2_2_2a1u    2.84731     0   0   0           0.00000 
      3      NaCl_1_3e     Na2_2_1a1u    2.84731     0   0   0          -0.00002 
      3      NaCl_1_3e     Na2_2_1e1g    2.84731     0   0   0          -0.00000 
      3      NaCl_1_3e     Na2_2_2e1g    2.84731     0   0   0           0.00005 
      3      NaCl_1_3e     Na2_2_1e1u    2.84731     0   0   0          -0.00059 
      3      NaCl_1_3e     Na2_2_2e1u    2.84731     0   0   0          -0.00000 
      3      NaCl_1_3e     Na2_2_1a1g    2.84731     0   0   0          -0.00019 
      3      NaCl_1_3e     Na2_2_2a1g    2.84731     0   0   0          -0.20958 
      3      NaCl_1_3e     Na2_2_2a1u    2.84731     0   0   0          -0.03044 
      3      NaCl_1_4e     Na2_2_1a1u    2.84731     0   0   0          -0.00016 
      3      NaCl_1_4e     Na2_2_1e1g    2.84731     0   0   0          -0.00000 
      3      NaCl_1_4e     Na2_2_2e1g    2.84731     0   0   0           0.00038 
      3      NaCl_1_4e     Na2_2_1e1u    2.84731     0   0   0          -0.00009 
      3      NaCl_1_4e     Na2_2_2e1u    2.84731     0   0   0          -0.00000 
      3      NaCl_1_4e     Na2_2_1a1g    2.84731     0   0   0          -0.00003 
      3      NaCl_1_4e     Na2_2_2a1g    2.84731     0   0   0          -0.03030 
      3      NaCl_1_4e     Na2_2_2a1u    2.84731     0   0   0          -0.21059 
      3     NaCl_1_4a1     Na2_2_1a1u    2.84731     0   0   0          -0.00000 
      3     NaCl_1_4a1     Na2_2_1e1g    2.84731     0   0   0          -0.00000 
      3     NaCl_1_4a1     Na2_2_2e1g    2.84731     0   0   0          -0.00000 
      3     NaCl_1_4a1     Na2_2_1e1u    2.84731     0   0   0          -0.00109 
      3     NaCl_1_4a1     Na2_2_2e1u    2.84731     0   0   0          -0.00215 
      3     NaCl_1_4a1     Na2_2_1a1g    2.84731     0   0   0          -0.00117 
      3     NaCl_1_4a1     Na2_2_2a1g    2.84731     0   0   0          -0.01836 
      3     NaCl_1_4a1     Na2_2_2a1u    2.84731     0   0   0          -0.00000 
      4         NaCl_1          Na2_2    2.84731     1   0   0          -0.59758 
      4     NaCl_1_1a1     Na2_2_1a1u    2.84731     1   0   0          -0.00000 
      4     NaCl_1_1a1     Na2_2_1e1g    2.84731     1   0   0           0.00000 
      4     NaCl_1_1a1     Na2_2_2e1g    2.84731     1   0   0          -0.00000 
      4     NaCl_1_1a1     Na2_2_1e1u    2.84731     1   0   0          -0.00000 
      4     NaCl_1_1a1     Na2_2_2e1u    2.84731     1   0   0           0.00000 
      4     NaCl_1_1a1     Na2_2_1a1g    2.84731     1   0   0          -0.00000 
      4     NaCl_1_1a1     Na2_2_2a1g    2.84731     1   0   0          -0.00061 
      4     NaCl_1_1a1     Na2_2_2a1u    2.84731     1   0   0          -0.00088 
      4      NaCl_1_1e     Na2_2_1a1u    2.84731     1   0   0          -0.00000 
      4      NaCl_1_1e     Na2_2_1e1g    2.84731     1   0   0          -0.00000 
      4      NaCl_1_1e     Na2_2_2e1g    2.84731     1   0   0          -0.00000 
      4      NaCl_1_1e     Na2_2_1e1u    2.84731     1   0   0          -0.00000 
      4      NaCl_1_1e     Na2_2_2e1u    2.84731     1   0   0          -0.00000 
      4      NaCl_1_1e     Na2_2_1a1g    2.84731     1   0   0          -0.00000 
      4      NaCl_1_1e     Na2_2_2a1g    2.84731     1   0   0          -0.00008 
      4      NaCl_1_1e     Na2_2_2a1u    2.84731     1   0   0          -0.00003 
      4      NaCl_1_2e     Na2_2_1a1u    2.84731     1   0   0           0.00000 
      4      NaCl_1_2e     Na2_2_1e1g    2.84731     1   0   0          -0.00000 
      4      NaCl_1_2e     Na2_2_2e1g    2.84731     1   0   0           0.00000 
      4      NaCl_1_2e     Na2_2_1e1u    2.84731     1   0   0          -0.00000 
      4      NaCl_1_2e     Na2_2_2e1u    2.84731     1   0   0          -0.00000 
      4      NaCl_1_2e     Na2_2_1a1g    2.84731     1   0   0          -0.00000 
      4      NaCl_1_2e     Na2_2_2a1g    2.84731     1   0   0          -0.00043 
      4      NaCl_1_2e     Na2_2_2a1u    2.84731     1   0   0          -0.00073 
      4     NaCl_1_2a1     Na2_2_1a1u    2.84731     1   0   0           0.00008 
      4     NaCl_1_2a1     Na2_2_1e1g    2.84731     1   0   0          -0.00001 
      4     NaCl_1_2a1     Na2_2_2e1g    2.84731     1   0   0           0.00007 
      4     NaCl_1_2a1     Na2_2_1e1u    2.84731     1   0   0           0.00010 
      4     NaCl_1_2a1     Na2_2_2e1u    2.84731     1   0   0          -0.00001 
      4     NaCl_1_2a1     Na2_2_1a1g    2.84731     1   0   0           0.00008 
      4     NaCl_1_2a1     Na2_2_2a1g    2.84731     1   0   0          -0.15102 
      4     NaCl_1_2a1     Na2_2_2a1u    2.84731     1   0   0          -0.19081 
      4     NaCl_1_3a1     Na2_2_1a1u    2.84731     1   0   0          -0.00001 
      4     NaCl_1_3a1     Na2_2_1e1g    2.84731     1   0   0           0.00005 
      4     NaCl_1_3a1     Na2_2_2e1g    2.84731     1   0   0          -0.00001 
      4     NaCl_1_3a1     Na2_2_1e1u    2.84731     1   0   0          -0.00001 
      4     NaCl_1_3a1     Na2_2_2e1u    2.84731     1   0   0           0.00006 
      4     NaCl_1_3a1     Na2_2_1a1g    2.84731     1   0   0          -0.00001 
      4     NaCl_1_3a1     Na2_2_2a1g    2.84731     1   0   0          -0.00002 
      4     NaCl_1_3a1     Na2_2_2a1u    2.84731     1   0   0          -0.00006 
      4      NaCl_1_3e     Na2_2_1a1u    2.84731     1   0   0          -0.00005 
      4      NaCl_1_3e     Na2_2_1e1g    2.84731     1   0   0          -0.00000 
      4      NaCl_1_3e     Na2_2_2e1g    2.84731     1   0   0          -0.00017 
      4      NaCl_1_3e     Na2_2_1e1u    2.84731     1   0   0          -0.00019 
      4      NaCl_1_3e     Na2_2_2e1u    2.84731     1   0   0          -0.00000 
      4      NaCl_1_3e     Na2_2_1a1g    2.84731     1   0   0           0.00010 
      4      NaCl_1_3e     Na2_2_2a1g    2.84731     1   0   0          -0.08718 
      4      NaCl_1_3e     Na2_2_2a1u    2.84731     1   0   0          -0.11385 
      4      NaCl_1_4e     Na2_2_1a1u    2.84731     1   0   0          -0.00005 
      4      NaCl_1_4e     Na2_2_1e1g    2.84731     1   0   0           0.00000 
      4      NaCl_1_4e     Na2_2_2e1g    2.84731     1   0   0           0.00004 
      4      NaCl_1_4e     Na2_2_1e1u    2.84731     1   0   0           0.00019 
      4      NaCl_1_4e     Na2_2_2e1u    2.84731     1   0   0          -0.00000 
      4      NaCl_1_4e     Na2_2_1a1g    2.84731     1   0   0          -0.00013 
      4      NaCl_1_4e     Na2_2_2a1g    2.84731     1   0   0          -0.02125 
      4      NaCl_1_4e     Na2_2_2a1u    2.84731     1   0   0          -0.01911 
      4     NaCl_1_4a1     Na2_2_1a1u    2.84731     1   0   0          -0.00020 
      4     NaCl_1_4a1     Na2_2_1e1g    2.84731     1   0   0          -0.00065 
      4     NaCl_1_4a1     Na2_2_2e1g    2.84731     1   0   0          -0.00027 
      4     NaCl_1_4a1     Na2_2_1e1u    2.84731     1   0   0          -0.00027 
      4     NaCl_1_4a1     Na2_2_2e1u    2.84731     1   0   0          -0.00044 
      4     NaCl_1_4a1     Na2_2_1a1g    2.84731     1   0   0          -0.00037 
      4     NaCl_1_4a1     Na2_2_2a1g    2.84731     1   0   0          -0.00320 
      4     NaCl_1_4a1     Na2_2_2a1u    2.84731     1   0   0          -0.00627 
      5         NaCl_1          Na2_2    2.84731     0   0   1          -0.59758 
      5     NaCl_1_1a1     Na2_2_1a1u    2.84731     0   0   1          -0.00000 
      5     NaCl_1_1a1     Na2_2_1e1g    2.84731     0   0   1           0.00000 
      5     NaCl_1_1a1     Na2_2_2e1g    2.84731     0   0   1          -0.00000 
      5     NaCl_1_1a1     Na2_2_1e1u    2.84731     0   0   1          -0.00000 
      5     NaCl_1_1a1     Na2_2_2e1u    2.84731     0   0   1           0.00000 
      5     NaCl_1_1a1     Na2_2_1a1g    2.84731     0   0   1          -0.00000 
      5     NaCl_1_1a1     Na2_2_2a1g    2.84731     0   0   1          -0.00061 
      5     NaCl_1_1a1     Na2_2_2a1u    2.84731     0   0   1          -0.00088 
      5      NaCl_1_1e     Na2_2_1a1u    2.84731     0   0   1           0.00000 
      5      NaCl_1_1e     Na2_2_1e1g    2.84731     0   0   1          -0.00000 
      5      NaCl_1_1e     Na2_2_2e1g    2.84731     0   0   1          -0.00000 
      5      NaCl_1_1e     Na2_2_1e1u    2.84731     0   0   1          -0.00000 
      5      NaCl_1_1e     Na2_2_2e1u    2.84731     0   0   1          -0.00000 
      5      NaCl_1_1e     Na2_2_1a1g    2.84731     0   0   1           0.00000 
      5      NaCl_1_1e     Na2_2_2a1g    2.84731     0   0   1          -0.00048 
      5      NaCl_1_1e     Na2_2_2a1u    2.84731     0   0   1          -0.00066 
      5      NaCl_1_2e     Na2_2_1a1u    2.84731     0   0   1          -0.00000 
      5      NaCl_1_2e     Na2_2_1e1g    2.84731     0   0   1          -0.00000 
      5      NaCl_1_2e     Na2_2_2e1g    2.84731     0   0   1          -0.00000 
      5      NaCl_1_2e     Na2_2_1e1u    2.84731     0   0   1          -0.00000 
      5      NaCl_1_2e     Na2_2_2e1u    2.84731     0   0   1          -0.00000 
      5      NaCl_1_2e     Na2_2_1a1g    2.84731     0   0   1          -0.00000 
      5      NaCl_1_2e     Na2_2_2a1g    2.84731     0   0   1          -0.00002 
      5      NaCl_1_2e     Na2_2_2a1u    2.84731     0   0   1          -0.00010 
      5     NaCl_1_2a1     Na2_2_1a1u    2.84731     0   0   1           0.00008 
      5     NaCl_1_2a1     Na2_2_1e1g    2.84731     0   0   1          -0.00001 
      5     NaCl_1_2a1     Na2_2_2e1g    2.84731     0   0   1           0.00007 
      5     NaCl_1_2a1     Na2_2_1e1u    2.84731     0   0   1           0.00010 
      5     NaCl_1_2a1     Na2_2_2e1u    2.84731     0   0   1          -0.00001 
      5     NaCl_1_2a1     Na2_2_1a1g    2.84731     0   0   1           0.00008 
      5     NaCl_1_2a1     Na2_2_2a1g    2.84731     0   0   1          -0.15102 
      5     NaCl_1_2a1     Na2_2_2a1u    2.84731     0   0   1          -0.19081 
      5     NaCl_1_3a1     Na2_2_1a1u    2.84731     0   0   1          -0.00001 
      5     NaCl_1_3a1     Na2_2_1e1g    2.84731     0   0   1           0.00005 
      5     NaCl_1_3a1     Na2_2_2e1g    2.84731     0   0   1          -0.00001 
      5     NaCl_1_3a1     Na2_2_1e1u    2.84731     0   0   1          -0.00001 
      5     NaCl_1_3a1     Na2_2_2e1u    2.84731     0   0   1           0.00006 
      5     NaCl_1_3a1     Na2_2_1a1g    2.84731     0   0   1          -0.00001 
      5     NaCl_1_3a1     Na2_2_2a1g    2.84731     0   0   1          -0.00002 
      5     NaCl_1_3a1     Na2_2_2a1u    2.84731     0   0   1          -0.00006 
      5      NaCl_1_3e     Na2_2_1a1u    2.84731     0   0   1           0.00004 
      5      NaCl_1_3e     Na2_2_1e1g    2.84731     0   0   1          -0.00000 
      5      NaCl_1_3e     Na2_2_2e1g    2.84731     0   0   1          -0.00006 
      5      NaCl_1_3e     Na2_2_1e1u    2.84731     0   0   1          -0.00013 
      5      NaCl_1_3e     Na2_2_2e1u    2.84731     0   0   1          -0.00000 
      5      NaCl_1_3e     Na2_2_1a1g    2.84731     0   0   1           0.00018 
      5      NaCl_1_3e     Na2_2_2a1g    2.84731     0   0   1          -0.01533 
      5      NaCl_1_3e     Na2_2_2a1u    2.84731     0   0   1          -0.02571 
      5      NaCl_1_4e     Na2_2_1a1u    2.84731     0   0   1          -0.00015 
      5      NaCl_1_4e     Na2_2_1e1g    2.84731     0   0   1          -0.00000 
      5      NaCl_1_4e     Na2_2_2e1g    2.84731     0   0   1          -0.00007 
      5      NaCl_1_4e     Na2_2_1e1u    2.84731     0   0   1           0.00013 
      5      NaCl_1_4e     Na2_2_2e1u    2.84731     0   0   1          -0.00000 
      5      NaCl_1_4e     Na2_2_1a1g    2.84731     0   0   1          -0.00020 
      5      NaCl_1_4e     Na2_2_2a1g    2.84731     0   0   1          -0.09310 
      5      NaCl_1_4e     Na2_2_2a1u    2.84731     0   0   1          -0.10725 
      5     NaCl_1_4a1     Na2_2_1a1u    2.84731     0   0   1          -0.00020 
      5     NaCl_1_4a1     Na2_2_1e1g    2.84731     0   0   1          -0.00065 
      5     NaCl_1_4a1     Na2_2_2e1g    2.84731     0   0   1          -0.00027 
      5     NaCl_1_4a1     Na2_2_1e1u    2.84731     0   0   1          -0.00027 
      5     NaCl_1_4a1     Na2_2_2e1u    2.84731     0   0   1          -0.00044 
      5     NaCl_1_4a1     Na2_2_1a1g    2.84731     0   0   1          -0.00037 
      5     NaCl_1_4a1     Na2_2_2a1g    2.84731     0   0   1          -0.00320 
      5     NaCl_1_4a1     Na2_2_2a1u    2.84731     0   0   1          -0.00627 
      6         NaCl_1           Cl_4    2.84731     0   0   0          -0.59324 
      6     NaCl_1_1a1        Cl_4_3s    2.84731     0   0   0          -0.00000 
      6     NaCl_1_1a1      Cl_4_3p_y    2.84731     0   0   0           0.00016 
      6     NaCl_1_1a1      Cl_4_3p_z    2.84731     0   0   0          -0.00000 
      6     NaCl_1_1a1      Cl_4_3p_x    2.84731     0   0   0           0.00000 
      6      NaCl_1_1e        Cl_4_3s    2.84731     0   0   0           0.00003 
      6      NaCl_1_1e      Cl_4_3p_y    2.84731     0   0   0           0.00000 
      6      NaCl_1_1e      Cl_4_3p_z    2.84731     0   0   0           0.00013 
      6      NaCl_1_1e      Cl_4_3p_x    2.84731     0   0   0          -0.00003 
      6      NaCl_1_2e        Cl_4_3s    2.84731     0   0   0           0.00032 
      6      NaCl_1_2e      Cl_4_3p_y    2.84731     0   0   0           0.00000 
      6      NaCl_1_2e      Cl_4_3p_z    2.84731     0   0   0           0.00001 
      6      NaCl_1_2e      Cl_4_3p_x    2.84731     0   0   0          -0.00035 
      6     NaCl_1_2a1        Cl_4_3s    2.84731     0   0   0          -0.00226 
      6     NaCl_1_2a1      Cl_4_3p_y    2.84731     0   0   0          -0.00403 
      6     NaCl_1_2a1      Cl_4_3p_z    2.84731     0   0   0          -0.00000 
      6     NaCl_1_2a1      Cl_4_3p_x    2.84731     0   0   0          -0.00009 
      6     NaCl_1_3a1        Cl_4_3s    2.84731     0   0   0           0.00033 
      6     NaCl_1_3a1      Cl_4_3p_y    2.84731     0   0   0           0.00002 
      6     NaCl_1_3a1      Cl_4_3p_z    2.84731     0   0   0          -0.00000 
      6     NaCl_1_3a1      Cl_4_3p_x    2.84731     0   0   0          -0.00150 
      6      NaCl_1_3e        Cl_4_3s    2.84731     0   0   0          -0.00342 
      6      NaCl_1_3e      Cl_4_3p_y    2.84731     0   0   0           0.00008 
      6      NaCl_1_3e      Cl_4_3p_z    2.84731     0   0   0          -0.00001 
      6      NaCl_1_3e      Cl_4_3p_x    2.84731     0   0   0           0.00009 
      6      NaCl_1_4e        Cl_4_3s    2.84731     0   0   0          -0.00069 
      6      NaCl_1_4e      Cl_4_3p_y    2.84731     0   0   0           0.00002 
      6      NaCl_1_4e      Cl_4_3p_z    2.84731     0   0   0          -0.00005 
      6      NaCl_1_4e      Cl_4_3p_x    2.84731     0   0   0           0.00002 
      6     NaCl_1_4a1        Cl_4_3s    2.84731     0   0   0          -0.33895 
      6     NaCl_1_4a1      Cl_4_3p_y    2.84731     0   0   0           0.00000 
      6     NaCl_1_4a1      Cl_4_3p_z    2.84731     0   0   0          -0.00000 
      6     NaCl_1_4a1      Cl_4_3p_x    2.84731     0   0   0          -0.24306 
      7         NaCl_1           Cl_4    2.84731     1   0   0          -0.59326 
      7     NaCl_1_1a1        Cl_4_3s    2.84731     1   0   0          -0.00000 
      7     NaCl_1_1a1      Cl_4_3p_y    2.84731     1   0   0           0.00016 
      7     NaCl_1_1a1      Cl_4_3p_z    2.84731     1   0   0          -0.00000 
      7     NaCl_1_1a1      Cl_4_3p_x    2.84731     1   0   0           0.00000 