<?xml version="1.0" encoding="ISO-8859-1"?>
<modeling>
 <generator>
  <i name="program" type="string">vasp </i>
  <i name="version" type="string">5.4.4.18Apr17-6-g9f103f2a35  </i>
  <i name="subversion" type="string">(build Apr 25 2017 15:45:40) complex            parallel </i>
  <i name="platform" type="string">LinuxIFC </i>
  <i name="date" type="string">2018 09 03 </i>
  <i name="time" type="string">10:20:03 </i>
 </generator>
 <incar>
  <i type="string" name="SYSTEM"> LOBSTER</i>
  <i type="string" name="PREC">accurate</i>
  <i type="string" name="ALGO"> Normal</i>
  <i type="logical" name="ADDGRID"> T  </i>
  <i type="int" name="ISPIN">     1</i>
  <i type="int" name="NELM">   200</i>
  <i type="int" name="NELMIN">     4</i>
  <i type="int" name="IBRION">     2</i>
  <i name="EDIFF">      0.00000001</i>
  <i name="EDIFFG">      0.00000100</i>
  <i type="int" name="NSW">     0</i>
  <i type="int" name="ISIF">     3</i>
  <i type="int" name="ISYM">    -1</i>
  <i name="ENCUT">    500.00000000</i>
  <i type="int" name="NBANDS">    32</i>
  <i name="POTIM">      0.50000000</i>
  <i type="logical" name="LREAL"> F  </i>
  <i name="EMIN">     10.00000000</i>
  <i name="EMAX">    -10.00000000</i>
  <i type="int" name="ISMEAR">    -5</i>
  <i name="SIGMA">      0.05000000</i>
  <i type="int" name="NWRITE">     1</i>
  <i type="logical" name="LWAVE"> T  </i>
  <i type="logical" name="LCHARG"> F  </i>
  <v type="int" name="KPOINT_BSE">    -1     0     0     0</v>
  <i type="int" name="NELM">   200</i>
 </incar>
 <structure name="primitive_cell" >
  <crystal>
   <varray name="basis" >
    <v>       5.69462508       0.00000000       0.00000000 </v>
    <v>       0.00000000       5.69462508       0.00000000 </v>
    <v>       0.00000000       0.00000000       5.69462508 </v>
   </varray>
   <i name="volume">    184.66960066 </i>
   <varray name="rec_basis" >
    <v>       0.17560419       0.00000000       0.00000000 </v>
    <v>       0.00000000       0.17560419       0.00000000 </v>
    <v>       0.00000000       0.00000000       0.17560419 </v>
   </varray>
  </crystal>
  <varray name="positions" >
   <v>      -0.50000000       0.00000000      -0.50000000 </v>
   <v>      -0.50000000      -0.50000000      -0.50000000 </v>
   <v>       0.00000000       0.00000000      -0.50000000 </v>
   <v>      -0.50000000       0.00000000       0.00000000 </v>
   <v>       0.00000000      -0.50000000      -0.50000000 </v>
   <v>      -0.50000000      -0.50000000       0.00000000 </v>
   <v>       0.00000000       0.00000000       0.00000000 </v>
   <v>       0.00000000      -0.50000000       0.00000000 </v>
  </varray>
 </structure>
 <varray name="primitive_index" >
  <v type="int" >        1 </v>
  <v type="int" >        5 </v>
  <v type="int" >        6 </v>
  <v type="int" >        7 </v>
  <v type="int" >        2 </v>
  <v type="int" >        3 </v>
  <v type="int" >        4 </v>
  <v type="int" >        8 </v>
 </varray>
 <kpoints>
  <generation param="Monkhorst-Pack">
   <v type="int" name="divisions">       5        5        5 </v>
   <v name="usershift">      0.00000000       0.00000000       0.00000000 </v>
   <v name="genvec1">      0.20000000       0.00000000       0.00000000 </v>
   <v name="genvec2">      0.00000000       0.20000000       0.00000000 </v>
   <v name="genvec3">      0.00000000       0.00000000       0.20000000 </v>
   <v name="shift">      0.00000000       0.00000000       0.00000000 </v>
  </generation>
  <varray name="kpointlist" >
   <v>       0.00000000       0.00000000       0.00000000 </v>
   <v>       0.20000000       0.00000000       0.00000000 </v>
   <v>       0.40000000       0.00000000       0.00000000 </v>
   <v>      -0.40000000       0.00000000       0.00000000 </v>
   <v>      -0.20000000       0.00000000       0.00000000 </v>
   <v>       0.00000000       0.20000000       0.00000000 </v>
   <v>       0.20000000       0.20000000       0.00000000 </v>
   <v>       0.40000000       0.20000000       0.00000000 </v>
   <v>      -0.40000000       0.20000000       0.00000000 </v>
   <v>      -0.20000000       0.20000000       0.00000000 </v>
   <v>       0.00000000       0.40000000       0.00000000 </v>
   <v>       0.20000000       0.40000000       0.00000000 </v>
   <v>       0.40000000       0.40000000       0.00000000 </v>
   <v>      -0.40000000       0.40000000       0.00000000 </v>
   <v>      -0.20000000       0.40000000       0.00000000 </v>
   <v>       0.00000000      -0.40000000       0.00000000 </v>
   <v>       0.20000000      -0.40000000       0.00000000 </v>
   <v>       0.40000000      -0.40000000       0.00000000 </v>
   <v>      -0.40000000      -0.40000000       0.00000000 </v>
   <v>      -0.20000000      -0.40000000       0.00000000 </v>
   <v>       0.00000000      -0.20000000       0.00000000 </v>
   <v>       0.20000000      -0.20000000       0.00000000 </v>
   <v>       0.40000000      -0.20000000       0.00000000 </v>
   <v>      -0.40000000      -0.20000000       0.00000000 </v>
   <v>      -0.20000000      -0.20000000       0.00000000 </v>
   <v>       0.00000000       0.00000000       0.20000000 </v>
   <v>       0.20000000       0.00000000       0.20000000 </v>
   <v>       0.40000000       0.00000000       0.20000000 </v>
   <v>      -0.40000000       0.00000000       0.20000000 </v>
   <v>      -0.20000000       0.00000000       0.20000000 </v>
   <v>       0.00000000       0.20000000       0.20000000 </v>
   <v>       0.20000000       0.20000000       0.20000000 </v>
   <v>       0.40000000       0.20000000       0.20000000 </v>
   <v>      -0.40000000       0.20000000       0.20000000 </v>
   <v>      -0.20000000       0.20000000       0.20000000 </v>
   <v>       0.00000000       0.40000000       0.20000000 </v>
   <v>       0.20000000       0.40000000       0.20000000 </v>
   <v>       0.40000000       0.40000000       0.20000000 </v>
   <v>      -0.40000000       0.40000000       0.20000000 </v>
   <v>      -0.20000000       0.40000000       0.20000000 </v>
   <v>       0.00000000      -0.40000000       0.20000000 </v>
   <v>       0.20000000      -0.40000000       0.20000000 </v>
   <v>       0.40000000      -0.40000000       0.20000000 </v>
   <v>      -0.40000000      -0.40000000       0.20000000 </v>
   <v>      -0.20000000      -0.40000000       0.20000000 </v>
   <v>       0.00000000      -0.20000000       0.20000000 </v>
   <v>       0.20000000      -0.20000000       0.20000000 </v>
   <v>       0.40000000      -0.20000000       0.20000000 </v>
   <v>      -0.40000000      -0.20000000       0.20000000 </v>
   <v>      -0.20000000      -0.20000000       0.20000000 </v>
   <v>       0.00000000       0.00000000       0.40000000 </v>
   <v>       0.20000000       0.00000000       0.40000000 </v>
   <v>       0.40000000       0.00000000       0.40000000 </v>
   <v>      -0.40000000       0.00000000       0.40000000 </v>
   <v>      -0.20000000       0.00000000       0.40000000 </v>
   <v>       0.00000000       0.20000000       0.40000000 </v>
   <v>       0.20000000       0.20000000       0.40000000 </v>
   <v>       0.40000000       0.20000000       0.40000000 </v>
   <v>      -0.40000000       0.20000000       0.40000000 </v>
   <v>      -0.20000000       0.20000000       0.40000000 </v>
   <v>       0.00000000       0.40000000       0.40000000 </v>
   <v>       0.20000000       0.40000000       0.40000000 </v>
   <v>       0.40000000       0.40000000       0.40000000 </v>
   <v>      -0.40000000       0.40000000       0.40000000 </v>
   <v>      -0.20000000       0.40000000       0.40000000 </v>
   <v>       0.00000000      -0.40000000       0.40000000 </v>
   <v>       0.20000000      -0.40000000       0.40000000 </v>
   <v>       0.40000000      -0.40000000       0.40000000 </v>
   <v>      -0.40000000      -0.40000000       0.40000000 </v>
   <v>      -0.20000000      -0.40000000       0.40000000 </v>
   <v>       0.00000000      -0.20000000       0.40000000 </v>
   <v>       0.20000000      -0.20000000       0.40000000 </v>
   <v>       0.40000000      -0.20000000       0.40000000 </v>
   <v>      -0.40000000      -0.20000000       0.40000000 </v>
   <v>      -0.20000000      -0.20000000       0.40000000 </v>
   <v>       0.00000000       0.00000000      -0.40000000 </v>
   <v>       0.20000000       0.00000000      -0.40000000 </v>
   <v>       0.40000000       0.00000000      -0.40000000 </v>
   <v>      -0.40000000       0.00000000      -0.40000000 </v>
   <v>      -0.20000000       0.00000000      -0.40000000 </v>
   <v>       0.00000000       0.20000000      -0.40000000 </v>
   <v>       0.20000000       0.20000000      -0.40000000 </v>
   <v>       0.40000000       0.20000000      -0.40000000 </v>
   <v>      -0.40000000       0.20000000      -0.40000000 </v>
   <v>      -0.20000000       0.20000000      -0.40000000 </v>
   <v>       0.00000000       0.40000000      -0.40000000 </v>
   <v>       0.20000000       0.40000000      -0.40000000 </v>
   <v>       0.40000000       0.40000000      -0.40000000 </v>
   <v>      -0.40000000       0.40000000      -0.40000000 </v>
   <v>      -0.20000000       0.40000000      -0.40000000 </v>
   <v>       0.00000000      -0.40000000      -0.40000000 </v>
   <v>       0.20000000      -0.40000000      -0.40000000 </v>
   <v>       0.40000000      -0.40000000      -0.40000000 </v>
   <v>      -0.40000000      -0.40000000      -0.40000000 </v>
   <v>      -0.20000000      -0.40000000      -0.40000000 </v>
   <v>       0.00000000      -0.20000000      -0.40000000 </v>
   <v>       0.20000000      -0.20000000      -0.40000000 </v>
   <v>       0.40000000      -0.20000000      -0.40000000 </v>
   <v>      -0.40000000      -0.20000000      -0.40000000 </v>
   <v>      -0.20000000      -0.20000000      -0.40000000 </v>
   <v>       0.00000000       0.00000000      -0.20000000 </v>
   <v>       0.20000000       0.00000000      -0.20000000 </v>
   <v>       0.40000000       0.00000000      -0.20000000 </v>
   <v>      -0.40000000       0.00000000      -0.20000000 </v>
   <v>      -0.20000000       0.00000000      -0.20000000 </v>
   <v>       0.00000000       0.20000000      -0.20000000 </v>
   <v>       0.20000000       0.20000000      -0.20000000 </v>
   <v>       0.40000000       0.20000000      -0.20000000 </v>
   <v>      -0.40000000       0.20000000      -0.20000000 </v>
   <v>      -0.20000000       0.20000000      -0.20000000 </v>
   <v>       0.00000000       0.40000000      -0.20000000 </v>
   <v>       0.20000000       0.40000000      -0.20000000 </v>
   <v>       0.40000000       0.40000000      -0.20000000 </v>
   <v>      -0.40000000       0.40000000      -0.20000000 </v>
   <v>      -0.20000000       0.40000000      -0.20000000 </v>
   <v>       0.00000000      -0.40000000      -0.20000000 </v>
   <v>       0.20000000      -0.40000000      -0.20000000 </v>
   <v>       0.40000000      -0.40000000      -0.20000000 </v>
   <v>      -0.40000000      -0.40000000      -0.20000000 </v>
   <v>      -0.20000000      -0.40000000      -0.20000000 </v>
   <v>       0.00000000      -0.20000000      -0.20000000 </v>
   <v>       0.20000000      -0.20000000      -0.20000000 </v>
   <v>       0.40000000      -0.20000000      -0.20000000 </v>
   <v>      -0.40000000      -0.20000000      -0.20000000 </v>
   <v>      -0.20000000      -0.20000000      -0.20000000 </v>
  </varray>
  <varray name="weights" >
   <v>       0.00800000 </v>
   <v>       0.00800000 </v>
   <v>       0.00800000 </v>
   <v>       0.00800000 </v>
   <v>       0.00800000 </v>
   <v>       0.00800000 </v>
   <v>       0.00800000 </v>
   <v>       0.00800000 </v>
   <v>       0.00800000 </v>
   <v>       0.00800000 </v>
   <v>       0.00800000 </v>
   <v>       0.00800000 </v>
   <v>       0.00800000 </v>
   <v>       0.00800000 </v>
   <v>       0.00800000 </v>
   <v>       0.00800000 </v>
   <v>       0.00800000 </v>
   <v>       0.00800000 </v>
   <v>       0.00800000 </v>
   <v>       0.00800000 </v>
   <v>       0.00800000 </v>
   <v>       0.00800000 </v>
   <v>       0.00800000 </v>
   <v>       0.00800000 </v>
   <v>       0.00800000 </v>
   <v>       0.00800000 </v>
   <v>       0.00800000 </v>
   <v>       0.00800000 </v>
   <v>       0.00800000 </v>
   <v>       0.00800000 </v>
   <v>       0.00800000 </v>
   <v>       0.00800000 </v>
   <v>       0.00800000 </v>
   <v>       0.00800000 </v>
   <v>       0.00800000 </v>
   <v>       0.00800000 </v>
   <v>       0.00800000 </v>
   <v>       0.00800000 </v>
   <v>       0.00800000 </v>
   <v>       0.00800000 </v>
   <v>       0.00800000 </v>
   <v>       0.00800000 </v>
   <v>       0.00800000 </v>
   <v>       0.00800000 </v>
   <v>       0.00800000 </v>
   <v>       0.00800000 </v>
   <v>       0.00800000 </v>
   <v>       0.00800000 </v>
   <v>       0.00800000 </v>
   <v>       0.00800000 </v>
   <v>       0.00800000 </v>
   <v>       0.00800000 </v>
   <v>       0.00800000 </v>
   <v>       0.00800000 </v>
   <v>       0.00800000 </v>
   <v>       0.00800000 </v>
   <v>       0.00800000 </v>
   <v>       0.00800000 </v>
   <v>       0.00800000 </v>
   <v>       0.00800000 </v>
   <v>       0.00800000 </v>
   <v>       0.00800000 </v>
   <v>       0.00800000 </v>
   <v>       0.00800000 </v>
   <v>       0.00800000 </v>
   <v>       0.00800000 </v>
   <v>       0.00800000 </v>
   <v>       0.00800000 </v>
   <v>       0.00800000 </v>
   <v>       0.00800000 </v>
   <v>       0.00800000 </v>
   <v>       0.00800000 </v>
   <v>       0.00800000 </v>
   <v>       0.00800000 </v>
   <v>       0.00800000 </v>
   <v>       0.00800000 </v>
   <v>       0.00800000 </v>
   <v>       0.00800000 </v>
   <v>       0.00800000 </v>
   <v>       0.00800000 </v>
   <v>       0.00800000 </v>
   <v>       0.00800000 </v>
   <v>       0.00800000 </v>
   <v>       0.00800000 </v>
   <v>       0.00800000 </v>
   <v>       0.00800000 </v>
   <v>       0.00800000 </v>
   <v>       0.00800000 </v>
   <v>       0.00800000 </v>
   <v>       0.00800000 </v>
   <v>       0.00800000 </v>
   <v>       0.00800000 </v>
   <v>       0.00800000 </v>
   <v>       0.00800000 </v>
   <v>       0.00800000 </v>
   <v>       0.00800000 </v>
   <v>       0.00800000 </v>
   <v>       0.00800000 </v>
   <v>       0.00800000 </v>
   <v>       0.00800000 </v>
   <v>       0.00800000 </v>
   <v>       0.00800000 </v>
   <v>       0.00800000 </v>
   <v>       0.00800000 </v>
   <v>       0.00800000 </v>
   <v>       0.00800000 </v>
   <v>       0.00800000 </v>
   <v>       0.00800000 </v>
   <v>       0.00800000 </v>
   <v>       0.00800000 </v>
   <v>       0.00800000 </v>
   <v>       0.00800000 </v>
   <v>       0.00800000 </v>
   <v>       0.00800000 </v>
   <v>       0.00800000 </v>
   <v>       0.00800000 </v>
   <v>       0.00800000 </v>
   <v>       0.00800000 </v>
   <v>       0.00800000 </v>
   <v>       0.00800000 </v>
   <v>       0.00800000 </v>
   <v>       0.00800000 </v>
   <v>       0.00800000 </v>
   <v>       0.00800000 </v>
   <v>       0.00800000 </v>
  </varray>
  <varray name="tetrahedronlist"  type="int" >
   <v type="int" >        1        1        2        7       26 </v>
   <v type="int" >        1        1        6        7       26 </v>
   <v type="int" >        1        6        7       26       31 </v>
   <v type="int" >        1        2        7       26       27 </v>
   <v type="int" >        1        7       26       27       32 </v>
   <v type="int" >        1        7       26       31       32 </v>
   <v type="int" >        1        2        3        8       27 </v>
   <v type="int" >        1        2        7        8       27 </v>
   <v type="int" >        1        7        8       27       32 </v>
   <v type="int" >        1        3        8       27       28 </v>
   <v type="int" >        1        8       27       28       33 </v>
   <v type="int" >        1        8       27       32       33 </v>
   <v type="int" >        1        3        4        9       28 </v>
   <v type="int" >        1        3        8        9       28 </v>
   <v type="int" >        1        8        9       28       33 </v>
   <v type="int" >        1        4        9       28       29 </v>
   <v type="int" >        1        9       28       29       34 </v>
   <v type="int" >        1        9       28       33       34 </v>
   <v type="int" >        1        4        5       10       29 </v>
   <v type="int" >        1        4        9       10       29 </v>
   <v type="int" >        1        9       10       29       34 </v>
   <v type="int" >        1        5       10       29       30 </v>
   <v type="int" >        1       10       29       30       35 </v>
   <v type="int" >        1       10       29       34       35 </v>
   <v type="int" >        1        1        5        6       30 </v>
   <v type="int" >        1        5        6       10       30 </v>
   <v type="int" >        1        6       10       30       35 </v>
   <v type="int" >        1        1        6       26       30 </v>
   <v type="int" >        1        6       26       30       31 </v>
   <v type="int" >        1        6       30       31       35 </v>
   <v type="int" >        1        6        7       12       31 </v>
   <v type="int" >        1        6       11       12       31 </v>
   <v type="int" >        1       11       12       31       36 </v>
   <v type="int" >        1        7       12       31       32 </v>
   <v type="int" >        1       12       31       32       37 </v>
   <v type="int" >        1       12       31       36       37 </v>
   <v type="int" >        1        7        8       13       32 </v>
   <v type="int" >        1        7       12       13       32 </v>
   <v type="int" >        1       12       13       32       37 </v>
   <v type="int" >        1        8       13       32       33 </v>
   <v type="int" >        1       13       32       33       38 </v>
   <v type="int" >        1       13       32       37       38 </v>
   <v type="int" >        1        8        9       14       33 </v>
   <v type="int" >        1        8       13       14       33 </v>
   <v type="int" >        1       13       14       33       38 </v>
   <v type="int" >        1        9       14       33       34 </v>
   <v type="int" >        1       14       33       34       39 </v>
   <v type="int" >        1       14       33       38       39 </v>
   <v type="int" >        1        9       10       15       34 </v>
   <v type="int" >        1        9       14       15       34 </v>
   <v type="int" >        1       14       15       34       39 </v>
   <v type="int" >        1       10       15       34       35 </v>
   <v type="int" >        1       15       34       35       40 </v>
   <v type="int" >        1       15       34       39       40 </v>
   <v type="int" >        1        6       10       11       35 </v>
   <v type="int" >        1       10       11       15       35 </v>
   <v type="int" >        1       11       15       35       40 </v>
   <v type="int" >        1        6       11       31       35 </v>
   <v type="int" >        1       11       31       35       36 </v>
   <v type="int" >        1       11       35       36       40 </v>
   <v type="int" >        1       11       12       17       36 </v>
   <v type="int" >        1       11       16       17       36 </v>
   <v type="int" >        1       16       17       36       41 </v>
   <v type="int" >        1       12       17       36       37 </v>
   <v type="int" >        1       17       36       37       42 </v>
   <v type="int" >        1       17       36       41       42 </v>
   <v type="int" >        1       12       13       18       37 </v>
   <v type="int" >        1       12       17       18       37 </v>
   <v type="int" >        1       17       18       37       42 </v>
   <v type="int" >        1       13       18       37       38 </v>
   <v type="int" >        1       18       37       38       43 </v>
   <v type="int" >        1       18       37       42       43 </v>
   <v type="int" >        1       13       14       19       38 </v>
   <v type="int" >        1       13       18       19       38 </v>
   <v type="int" >        1       18       19       38       43 </v>
   <v type="int" >        1       14       19       38       39 </v>
   <v type="int" >        1       19       38       39       44 </v>
   <v type="int" >        1       19       38       43       44 </v>
   <v type="int" >        1       14       15       20       39 </v>
   <v type="int" >        1       14       19       20       39 </v>
   <v type="int" >        1       19       20       39       44 </v>
   <v type="int" >        1       15       20       39       40 </v>
   <v type="int" >        1       20       39       40       45 </v>
   <v type="int" >        1       20       39       44       45 </v>
   <v type="int" >        1       11       15       16       40 </v>
   <v type="int" >        1       15       16       20       40 </v>
   <v type="int" >        1       16       20       40       45 </v>
   <v type="int" >        1       11       16       36       40 </v>
   <v type="int" >        1       16       36       40       41 </v>
   <v type="int" >        1       16       40       41       45 </v>
   <v type="int" >        1       16       17       22       41 </v>
   <v type="int" >        1       16       21       22       41 </v>
   <v type="int" >        1       21       22       41       46 </v>
   <v type="int" >        1       17       22       41       42 </v>
   <v type="int" >        1       22       41       42       47 </v>
   <v type="int" >        1       22       41       46       47 </v>
   <v type="int" >        1       17       18       23       42 </v>
   <v type="int" >        1       17       22       23       42 </v>
   <v type="int" >        1       22       23       42       47 </v>
   <v type="int" >        1       18       23       42       43 </v>
   <v type="int" >        1       23       42       43       48 </v>
   <v type="int" >        1       23       42       47       48 </v>
   <v type="int" >        1       18       19       24       43 </v>
   <v type="int" >        1       18       23       24       43 </v>
   <v type="int" >        1       23       24       43       48 </v>
   <v type="int" >        1       19       24       43       44 </v>
   <v type="int" >        1       24       43       44       49 </v>
   <v type="int" >        1       24       43       48       49 </v>
   <v type="int" >        1       19       20       25       44 </v>
   <v type="int" >        1       19       24       25       44 </v>
   <v type="int" >        1       24       25       44       49 </v>
   <v type="int" >        1       20       25       44       45 </v>
   <v type="int" >        1       25       44       45       50 </v>
   <v type="int" >        1       25       44       49       50 </v>
   <v type="int" >        1       16       20       21       45 </v>
   <v type="int" >        1       20       21       25       45 </v>
   <v type="int" >        1       21       25       45       50 </v>
   <v type="int" >        1       16       21       41       45 </v>
   <v type="int" >        1       21       41       45       46 </v>
   <v type="int" >        1       21       45       46       50 </v>
   <v type="int" >        1        2       21       22       46 </v>
   <v type="int" >        1        1        2       21       46 </v>
   <v type="int" >        1        1        2       26       46 </v>
   <v type="int" >        1        2       22       46       47 </v>
   <v type="int" >        1        2       27       46       47 </v>
   <v type="int" >        1        2       26       27       46 </v>
   <v type="int" >        1        3       22       23       47 </v>
   <v type="int" >        1        2        3       22       47 </v>
   <v type="int" >        1        2        3       27       47 </v>
   <v type="int" >        1        3       23       47       48 </v>
   <v type="int" >        1        3       28       47       48 </v>
   <v type="int" >        1        3       27       28       47 </v>
   <v type="int" >        1        4       23       24       48 </v>
   <v type="int" >        1        3        4       23       48 </v>
   <v type="int" >        1        3        4       28       48 </v>
   <v type="int" >        1        4       24       48       49 </v>
   <v type="int" >        1        4       29       48       49 </v>
   <v type="int" >        1        4       28       29       48 </v>
   <v type="int" >        1        5       24       25       49 </v>
   <v type="int" >        1        4        5       24       49 </v>
   <v type="int" >        1        4        5       29       49 </v>
   <v type="int" >        1        5       25       49       50 </v>
   <v type="int" >        1        5       30       49       50 </v>
   <v type="int" >        1        5       29       30       49 </v>
   <v type="int" >        1        1       21       25       50 </v>
   <v type="int" >        1        1        5       25       50 </v>
   <v type="int" >        1        1        5       30       50 </v>
   <v type="int" >        1        1       21       46       50 </v>
   <v type="int" >        1        1       26       46       50 </v>
   <v type="int" >        1        1       26       30       50 </v>
   <v type="int" >        1       26       27       32       51 </v>
   <v type="int" >        1       26       31       32       51 </v>
   <v type="int" >        1       31       32       51       56 </v>
   <v type="int" >        1       27       32       51       52 </v>
   <v type="int" >        1       32       51       52       57 </v>
   <v type="int" >        1       32       51       56       57 </v>
   <v type="int" >        1       27       28       33       52 </v>
   <v type="int" >        1       27       32       33       52 </v>
   <v type="int" >        1       32       33       52       57 </v>
   <v type="int" >        1       28       33       52       53 </v>
   <v type="int" >        1       33       52       53       58 </v>
   <v type="int" >        1       33       52       57       58 </v>
   <v type="int" >        1       28       29       34       53 </v>
   <v type="int" >        1       28       33       34       53 </v>
   <v type="int" >        1       33       34       53       58 </v>
   <v type="int" >        1       29       34       53       54 </v>
   <v type="int" >        1       34       53       54       59 </v>
   <v type="int" >        1       34       53       58       59 </v>
   <v type="int" >        1       29       30       35       54 </v>
   <v type="int" >        1       29       34       35       54 </v>
   <v type="int" >        1       34       35       54       59 </v>
   <v type="int" >        1       30       35       54       55 </v>
   <v type="int" >        1       35       54       55       60 </v>
   <v type="int" >        1       35       54       59       60 </v>
   <v type="int" >        1       26       30       31       55 </v>
   <v type="int" >        1       30       31       35       55 </v>
   <v type="int" >        1       31       35       55       60 </v>
   <v type="int" >        1       26       31       51       55 </v>
   <v type="int" >        1       31       51       55       56 </v>
   <v type="int" >        1       31       55       56       60 </v>
   <v type="int" >        1       31       32       37       56 </v>
   <v type="int" >        1       31       36       37       56 </v>
   <v type="int" >        1       36       37       56       61 </v>
   <v type="int" >        1       32       37       56       57 </v>
   <v type="int" >        1       37       56       57       62 </v>
   <v type="int" >        1       37       56       61       62 </v>
   <v type="int" >        1       32       33       38       57 </v>
   <v type="int" >        1       32       37       38       57 </v>
   <v type="int" >        1       37       38       57       62 </v>
   <v type="int" >        1       33       38       57       58 </v>
   <v type="int" >        1       38       57       58       63 </v>
   <v type="int" >        1       38       57       62       63 </v>
   <v type="int" >        1       33       34       39       58 </v>
   <v type="int" >        1       33       38       39       58 </v>
   <v type="int" >        1       38       39       58       63 </v>
   <v type="int" >        1       34       39       58       59 </v>
   <v type="int" >        1       39       58       59       64 </v>
   <v type="int" >        1       39       58       63       64 </v>
   <v type="int" >        1       34       35       40       59 </v>
   <v type="int" >        1       34       39       40       59 </v>
   <v type="int" >        1       39       40       59       64 </v>
   <v type="int" >        1       35       40       59       60 </v>
   <v type="int" >        1       40       59       60       65 </v>
   <v type="int" >        1       40       59       64       65 </v>
   <v type="int" >        1       31       35       36       60 </v>
   <v type="int" >        1       35       36       40       60 </v>
   <v type="int" >        1       36       40       60       65 </v>
   <v type="int" >        1       31       36       56       60 </v>
   <v type="int" >        1       36       56       60       61 </v>
   <v type="int" >        1       36       60       61       65 </v>
   <v type="int" >        1       36       37       42       61 </v>
   <v type="int" >        1       36       41       42       61 </v>
   <v type="int" >        1       41       42       61       66 </v>
   <v type="int" >        1       37       42       61       62 </v>
   <v type="int" >        1       42       61       62       67 </v>
   <v type="int" >        1       42       61       66       67 </v>
   <v type="int" >        1       37       38       43       62 </v>
   <v type="int" >        1       37       42       43       62 </v>
   <v type="int" >        1       42       43       62       67 </v>
   <v type="int" >        1       38       43       62       63 </v>
   <v type="int" >        1       43       62       63       68 </v>
   <v type="int" >        1       43       62       67       68 </v>
   <v type="int" >        1       38       39       44       63 </v>
   <v type="int" >        1       38       43       44       63 </v>
   <v type="int" >        1       43       44       63       68 </v>
   <v type="int" >        1       39       44       63       64 </v>
   <v type="int" >        1       44       63       64       69 </v>
   <v type="int" >        1       44       63       68       69 </v>
   <v type="int" >        1       39       40       45       64 </v>
   <v type="int" >        1       39       44       45       64 </v>
   <v type="int" >        1       44       45       64       69 </v>
   <v type="int" >        1       40       45       64       65 </v>
   <v type="int" >        1       45       64       65       70 </v>
   <v type="int" >        1       45       64       69       70 </v>
   <v type="int" >        1       36       40       41       65 </v>
   <v type="int" >        1       40       41       45       65 </v>
   <v type="int" >        1       41       45       65       70 </v>
   <v type="int" >        1       36       41       61       65 </v>
   <v type="int" >        1       41       61       65       66 </v>
   <v type="int" >        1       41       65       66       70 </v>
   <v type="int" >        1       41       42       47       66 </v>
   <v type="int" >        1       41       46       47       66 </v>
   <v type="int" >        1       46       47       66       71 </v>
   <v type="int" >        1       42       47       66       67 </v>
   <v type="int" >        1       47       66       67       72 </v>
   <v type="int" >        1       47       66       71       72 </v>
   <v type="int" >        1       42       43       48       67 </v>
   <v type="int" >        1       42       47       48       67 </v>
   <v type="int" >        1       47       48       67       72 </v>
   <v type="int" >        1       43       48       67       68 </v>
   <v type="int" >        1       48       67       68       73 </v>
   <v type="int" >        1       48       67       72       73 </v>
   <v type="int" >        1       43       44       49       68 </v>
   <v type="int" >        1       43       48       49       68 </v>
   <v type="int" >        1       48       49       68       73 </v>
   <v type="int" >        1       44       49       68       69 </v>
   <v type="int" >        1       49       68       69       74 </v>
   <v type="int" >        1       49       68       73       74 </v>
   <v type="int" >        1       44       45       50       69 </v>
   <v type="int" >        1       44       49       50       69 </v>
   <v type="int" >        1       49       50       69       74 </v>
   <v type="int" >        1       45       50       69       70 </v>
   <v type="int" >        1       50       69       70       75 </v>
   <v type="int" >        1       50       69       74       75 </v>
   <v type="int" >        1       41       45       46       70 </v>
   <v type="int" >        1       45       46       50       70 </v>
   <v type="int" >        1       46       50       70       75 </v>
   <v type="int" >        1       41       46       66       70 </v>
   <v type="int" >        1       46       66       70       71 </v>
   <v type="int" >        1       46       70       71       75 </v>
   <v type="int" >        1       27       46       47       71 </v>
   <v type="int" >        1       26       27       46       71 </v>
   <v type="int" >        1       26       27       51       71 </v>
   <v type="int" >        1       27       47       71       72 </v>
   <v type="int" >        1       27       52       71       72 </v>
   <v type="int" >        1       27       51       52       71 </v>
   <v type="int" >        1       28       47       48       72 </v>
   <v type="int" >        1       27       28       47       72 </v>
   <v type="int" >        1       27       28       52       72 </v>
   <v type="int" >        1       28       48       72       73 </v>
   <v type="int" >        1       28       53       72       73 </v>
   <v type="int" >        1       28       52       53       72 </v>
   <v type="int" >        1       29       48       49       73 </v>
   <v type="int" >        1       28       29       48       73 </v>
   <v type="int" >        1       28       29       53       73 </v>
   <v type="int" >        1       29       49       73       74 </v>
   <v type="int" >        1       29       54       73       74 </v>
   <v type="int" >        1       29       53       54       73 </v>
   <v type="int" >        1       30       49       50       74 </v>
   <v type="int" >        1       29       30       49       74 </v>
   <v type="int" >        1       29       30       54       74 </v>
   <v type="int" >        1       30       50       74       75 </v>
   <v type="int" >        1       30       55       74       75 </v>
   <v type="int" >        1       30       54       55       74 </v>
   <v type="int" >        1       26       46       50       75 </v>
   <v type="int" >        1       26       30       50       75 </v>
   <v type="int" >        1       26       30       55       75 </v>
   <v type="int" >        1       26       46       71       75 </v>
   <v type="int" >        1       26       51       71       75 </v>
   <v type="int" >        1       26       51       55       75 </v>
   <v type="int" >        1       51       52       57       76 </v>
   <v type="int" >        1       51       56       57       76 </v>
   <v type="int" >        1       56       57       76       81 </v>
   <v type="int" >        1       52       57       76       77 </v>
   <v type="int" >        1       57       76       77       82 </v>
   <v type="int" >        1       57       76       81       82 </v>
   <v type="int" >        1       52       53       58       77 </v>
   <v type="int" >        1       52       57       58       77 </v>
   <v type="int" >        1       57       58       77       82 </v>
   <v type="int" >        1       53       58       77       78 </v>
   <v type="int" >        1       58       77       78       83 </v>
   <v type="int" >        1       58       77       82       83 </v>
   <v type="int" >        1       53       54       59       78 </v>
   <v type="int" >        1       53       58       59       78 </v>
   <v type="int" >        1       58       59       78       83 </v>
   <v type="int" >        1       54       59       78       79 </v>
   <v type="int" >        1       59       78       79       84 </v>
   <v type="int" >        1       59       78       83       84 </v>
   <v type="int" >        1       54       55       60       79 </v>
   <v type="int" >        1       54       59       60       79 </v>
   <v type="int" >        1       59       60       79       84 </v>
   <v type="int" >        1       55       60       79       80 </v>
   <v type="int" >        1       60       79       80       85 </v>
   <v type="int" >        1       60       79       84       85 </v>
   <v type="int" >        1       51       55       56       80 </v>
   <v type="int" >        1       55       56       60       80 </v>
   <v type="int" >        1       56       60       80       85 </v>
   <v type="int" >        1       51       56       76       80 </v>
   <v type="int" >        1       56       76       80       81 </v>
   <v type="int" >        1       56       80       81       85 </v>
   <v type="int" >        1       56       57       62       81 </v>
   <v type="int" >        1       56       61       62       81 </v>
   <v type="int" >        1       61       62       81       86 </v>
   <v type="int" >        1       57       62       81       82 </v>
   <v type="int" >        1       62       81       82       87 </v>
   <v type="int" >        1       62       81       86       87 </v>
   <v type="int" >        1       57       58       63       82 </v>
   <v type="int" >        1       57       62       63       82 </v>
   <v type="int" >        1       62       63       82       87 </v>
   <v type="int" >        1       58       63       82       83 </v>
   <v type="int" >        1       63       82       83       88 </v>
   <v type="int" >        1       63       82       87       88 </v>
   <v type="int" >        1       58       59       64       83 </v>
   <v type="int" >        1       58       63       64       83 </v>
   <v type="int" >        1       63       64       83       88 </v>
   <v type="int" >        1       59       64       83       84 </v>
   <v type="int" >        1       64       83       84       89 </v>
   <v type="int" >        1       64       83       88       89 </v>
   <v type="int" >        1       59       60       65       84 </v>
   <v type="int" >        1       59       64       65       84 </v>
   <v type="int" >        1       64       65       84       89 </v>
   <v type="int" >        1       60       65       84       85 </v>
   <v type="int" >        1       65       84       85       90 </v>
   <v type="int" >        1       65       84       89       90 </v>
   <v type="int" >        1       56       60       61       85 </v>
   <v type="int" >        1       60       61       65       85 </v>
   <v type="int" >        1       61       65       85       90 </v>
   <v type="int" >        1       56       61       81       85 </v>
   <v type="int" >        1       61       81       85       86 </v>
   <v type="int" >        1       61       85       86       90 </v>
   <v type="int" >        1       61       62       67       86 </v>
   <v type="int" >        1       61       66       67       86 </v>
   <v type="int" >        1       66       67       86       91 </v>
   <v type="int" >        1       62       67       86       87 </v>
   <v type="int" >        1       67       86       87       92 </v>
   <v type="int" >        1       67       86       91       92 </v>
   <v type="int" >        1       62       63       68       87 </v>
   <v type="int" >        1       62       67       68       87 </v>
   <v type="int" >        1       67       68       87       92 </v>
   <v type="int" >        1       63       68       87       88 </v>
   <v type="int" >        1       68       87       88       93 </v>
   <v type="int" >        1       68       87       92       93 </v>
   <v type="int" >        1       63       64       69       88 </v>
   <v type="int" >        1       63       68       69       88 </v>
   <v type="int" >        1       68       69       88       93 </v>
   <v type="int" >        1       64       69       88       89 </v>
   <v type="int" >        1       69       88       89       94 </v>
   <v type="int" >        1       69       88       93       94 </v>
   <v type="int" >        1       64       65       70       89 </v>
   <v type="int" >        1       64       69       70       89 </v>
   <v type="int" >        1       69       70       89       94 </v>
   <v type="int" >        1       65       70       89       90 </v>
   <v type="int" >        1       70       89       90       95 </v>
   <v type="int" >        1       70       89       94       95 </v>
   <v type="int" >        1       61       65       66       90 </v>
   <v type="int" >        1       65       66       70       90 </v>
   <v type="int" >        1       66       70       90       95 </v>
   <v type="int" >        1       61       66       86       90 </v>
   <v type="int" >        1       66       86       90       91 </v>
   <v type="int" >        1       66       90       91       95 </v>
   <v type="int" >        1       66       67       72       91 </v>
   <v type="int" >        1       66       71       72       91 </v>
   <v type="int" >        1       71       72       91       96 </v>
   <v type="int" >        1       67       72       91       92 </v>
   <v type="int" >        1       72       91       92       97 </v>
   <v type="int" >        1       72       91       96       97 </v>
   <v type="int" >        1       67       68       73       92 </v>
   <v type="int" >        1       67       72       73       92 </v>
   <v type="int" >        1       72       73       92       97 </v>
   <v type="int" >        1       68       73       92       93 </v>
   <v type="int" >        1       73       92       93       98 </v>
   <v type="int" >        1       73       92       97       98 </v>
   <v type="int" >        1       68       69       74       93 </v>
   <v type="int" >        1       68       73       74       93 </v>
   <v type="int" >        1       73       74       93       98 </v>
   <v type="int" >        1       69       74       93       94 </v>
   <v type="int" >        1       74       93       94       99 </v>
   <v type="int" >        1       74       93       98       99 </v>
   <v type="int" >        1       69       70       75       94 </v>
   <v type="int" >        1       69       74       75       94 </v>
   <v type="int" >        1       74       75       94       99 </v>
   <v type="int" >        1       70       75       94       95 </v>
   <v type="int" >        1       75       94       95      100 </v>
   <v type="int" >        1       75       94       99      100 </v>
   <v type="int" >        1       66       70       71       95 </v>
   <v type="int" >        1       70       71       75       95 </v>
   <v type="int" >        1       71       75       95      100 </v>
   <v type="int" >        1       66       71       91       95 </v>
   <v type="int" >        1       71       91       95       96 </v>
   <v type="int" >        1       71       95       96      100 </v>
   <v type="int" >        1       52       71       72       96 </v>
   <v type="int" >        1       51       52       71       96 </v>
   <v type="int" >        1       51       52       76       96 </v>
   <v type="int" >        1       52       72       96       97 </v>
   <v type="int" >        1       52       77       96       97 </v>
   <v type="int" >        1       52       76       77       96 </v>
   <v type="int" >        1       53       72       73       97 </v>
   <v type="int" >        1       52       53       72       97 </v>
   <v type="int" >        1       52       53       77       97 </v>
   <v type="int" >        1       53       73       97       98 </v>
   <v type="int" >        1       53       78       97       98 </v>
   <v type="int" >        1       53       77       78       97 </v>
   <v type="int" >        1       54       73       74       98 </v>
   <v type="int" >        1       53       54       73       98 </v>
   <v type="int" >        1       53       54       78       98 </v>
   <v type="int" >        1       54       74       98       99 </v>
   <v type="int" >        1       54       79       98       99 </v>
   <v type="int" >        1       54       78       79       98 </v>
   <v type="int" >        1       55       74       75       99 </v>
   <v type="int" >        1       54       55       74       99 </v>
   <v type="int" >        1       54       55       79       99 </v>
   <v type="int" >        1       55       75       99      100 </v>
   <v type="int" >        1       55       80       99      100 </v>
   <v type="int" >        1       55       79       80       99 </v>
   <v type="int" >        1       51       71       75      100 </v>
   <v type="int" >        1       51       55       75      100 </v>
   <v type="int" >        1       51       55       80      100 </v>
   <v type="int" >        1       51       71       96      100 </v>
   <v type="int" >        1       51       76       96      100 </v>
   <v type="int" >        1       51       76       80      100 </v>
   <v type="int" >        1       76       77       82      101 </v>
   <v type="int" >        1       76       81       82      101 </v>
   <v type="int" >        1       81       82      101      106 </v>
   <v type="int" >        1       77       82      101      102 </v>
   <v type="int" >        1       82      101      102      107 </v>
   <v type="int" >        1       82      101      106      107 </v>
   <v type="int" >        1       77       78       83      102 </v>
   <v type="int" >        1       77       82       83      102 </v>
   <v type="int" >        1       82       83      102      107 </v>
   <v type="int" >        1       78       83      102      103 </v>
   <v type="int" >        1       83      102      103      108 </v>
   <v type="int" >        1       83      102      107      108 </v>
   <v type="int" >        1       78       79       84      103 </v>
   <v type="int" >        1       78       83       84      103 </v>
   <v type="int" >        1       83       84      103      108 </v>
   <v type="int" >        1       79       84      103      104 </v>
   <v type="int" >        1       84      103      104      109 </v>
   <v type="int" >        1       84      103      108      109 </v>
   <v type="int" >        1       79       80       85      104 </v>
   <v type="int" >        1       79       84       85      104 </v>
   <v type="int" >        1       84       85      104      109 </v>
   <v type="int" >        1       80       85      104      105 </v>
   <v type="int" >        1       85      104      105      110 </v>
   <v type="int" >        1       85      104      109      110 </v>
   <v type="int" >        1       76       80       81      105 </v>
   <v type="int" >        1       80       81       85      105 </v>
   <v type="int" >        1       81       85      105      110 </v>
   <v type="int" >        1       76       81      101      105 </v>
   <v type="int" >        1       81      101      105      106 </v>
   <v type="int" >        1       81      105      106      110 </v>
   <v type="int" >        1       81       82       87      106 </v>
   <v type="int" >        1       81       86       87      106 </v>
   <v type="int" >        1       86       87      106      111 </v>
   <v type="int" >        1       82       87      106      107 </v>
   <v type="int" >        1       87      106      107      112 </v>
   <v type="int" >        1       87      106      111      112 </v>
   <v type="int" >        1       82       83       88      107 </v>
   <v type="int" >        1       82       87       88      107 </v>
   <v type="int" >        1       87       88      107      112 </v>
   <v type="int" >        1       83       88      107      108 </v>
   <v type="int" >        1       88      107      108      113 </v>
   <v type="int" >        1       88      107      112      113 </v>
   <v type="int" >        1       83       84       89      108 </v>
   <v type="int" >        1       83       88       89      108 </v>
   <v type="int" >        1       88       89      108      113 </v>
   <v type="int" >        1       84       89      108      109 </v>
   <v type="int" >        1       89      108      109      114 </v>
   <v type="int" >        1       89      108      113      114 </v>
   <v type="int" >        1       84       85       90      109 </v>
   <v type="int" >        1       84       89       90      109 </v>
   <v type="int" >        1       89       90      109      114 </v>
   <v type="int" >        1       85       90      109      110 </v>
   <v type="int" >        1       90      109      110      115 </v>
   <v type="int" >        1       90      109      114      115 </v>
   <v type="int" >        1       81       85       86      110 </v>
   <v type="int" >        1       85       86       90      110 </v>
   <v type="int" >        1       86       90      110      115 </v>
   <v type="int" >        1       81       86      106      110 </v>
   <v type="int" >        1       86      106      110      111 </v>
   <v type="int" >        1       86      110      111      115 </v>
   <v type="int" >        1       86       87       92      111 </v>
   <v type="int" >        1       86       91       92      111 </v>
   <v type="int" >        1       91       92      111      116 </v>
   <v type="int" >        1       87       92      111      112 </v>
   <v type="int" >        1       92      111      112      117 </v>
   <v type="int" >        1       92      111      116      117 </v>
   <v type="int" >        1       87       88       93      112 </v>
   <v type="int" >        1       87       92       93      112 </v>
   <v type="int" >        1       92       93      112      117 </v>
   <v type="int" >        1       88       93      112      113 </v>
   <v type="int" >        1       93      112      113      118 </v>
   <v type="int" >        1       93      112      117      118 </v>
   <v type="int" >        1       88       89       94      113 </v>
   <v type="int" >        1       88       93       94      113 </v>
   <v type="int" >        1       93       94      113      118 </v>
   <v type="int" >        1       89       94      113      114 </v>
   <v type="int" >        1       94      113      114      119 </v>
   <v type="int" >        1       94      113      118      119 </v>
   <v type="int" >        1       89       90       95      114 </v>
   <v type="int" >        1       89       94       95      114 </v>
   <v type="int" >        1       94       95      114      119 </v>
   <v type="int" >        1       90       95      114      115 </v>
   <v type="int" >        1       95      114      115      120 </v>
   <v type="int" >        1       95      114      119      120 </v>
   <v type="int" >        1       86       90       91      115 </v>
   <v type="int" >        1       90       91       95      115 </v>
   <v type="int" >        1       91       95      115      120 </v>
   <v type="int" >        1       86       91      111      115 </v>
   <v type="int" >        1       91      111      115      116 </v>
   <v type="int" >        1       91      115      116      120 </v>
   <v type="int" >        1       91       92       97      116 </v>
   <v type="int" >        1       91       96       97      116 </v>
   <v type="int" >        1       96       97      116      121 </v>
   <v type="int" >        1       92       97      116      117 </v>
   <v type="int" >        1       97      116      117      122 </v>
   <v type="int" >        1       97      116      121      122 </v>
   <v type="int" >        1       92       93       98      117 </v>
   <v type="int" >        1       92       97       98      117 </v>
   <v type="int" >        1       97       98      117      122 </v>
   <v type="int" >        1       93       98      117      118 </v>
   <v type="int" >        1       98      117      118      123 </v>
   <v type="int" >        1       98      117      122      123 </v>
   <v type="int" >        1       93       94       99      118 </v>
   <v type="int" >        1       93       98       99      118 </v>
   <v type="int" >        1       98       99      118      123 </v>
   <v type="int" >        1       94       99      118      119 </v>
   <v type="int" >        1       99      118      119      124 </v>
   <v type="int" >        1       99      118      123      124 </v>
   <v type="int" >        1       94       95      100      119 </v>
   <v type="int" >        1       94       99      100      119 </v>
   <v type="int" >        1       99      100      119      124 </v>
   <v type="int" >        1       95      100      119      120 </v>
   <v type="int" >        1      100      119      120      125 </v>
   <v type="int" >        1      100      119      124      125 </v>
   <v type="int" >        1       91       95       96      120 </v>
   <v type="int" >        1       95       96      100      120 </v>
   <v type="int" >        1       96      100      120      125 </v>
   <v type="int" >        1       91       96      116      120 </v>
   <v type="int" >        1       96      116      120      121 </v>
   <v type="int" >        1       96      120      121      125 </v>
   <v type="int" >        1       77       96       97      121 </v>
   <v type="int" >        1       76       77       96      121 </v>
   <v type="int" >        1       76       77      101      121 </v>
   <v type="int" >        1       77       97      121      122 </v>
   <v type="int" >        1       77      102      121      122 </v>
   <v type="int" >        1       77      101      102      121 </v>
   <v type="int" >        1       78       97       98      122 </v>
   <v type="int" >        1       77       78       97      122 </v>
   <v type="int" >        1       77       78      102      122 </v>
   <v type="int" >        1       78       98      122      123 </v>
   <v type="int" >        1       78      103      122      123 </v>
   <v type="int" >        1       78      102      103      122 </v>
   <v type="int" >        1       79       98       99      123 </v>
   <v type="int" >        1       78       79       98      123 </v>
   <v type="int" >        1       78       79      103      123 </v>
   <v type="int" >        1       79       99      123      124 </v>
   <v type="int" >        1       79      104      123      124 </v>
   <v type="int" >        1       79      103      104      123 </v>
   <v type="int" >        1       80       99      100      124 </v>
   <v type="int" >        1       79       80       99      124 </v>
   <v type="int" >        1       79       80      104      124 </v>
   <v type="int" >        1       80      100      124      125 </v>
   <v type="int" >        1       80      105      124      125 </v>
   <v type="int" >        1       80      104      105      124 </v>
   <v type="int" >        1       76       96      100      125 </v>
   <v type="int" >        1       76       80      100      125 </v>
   <v type="int" >        1       76       80      105      125 </v>
   <v type="int" >        1       76       96      121      125 </v>
   <v type="int" >        1       76      101      121      125 </v>
   <v type="int" >        1       76      101      105      125 </v>
   <v type="int" >        1        1      101      102      107 </v>
   <v type="int" >        1        1      101      106      107 </v>
   <v type="int" >        1        1        6      106      107 </v>
   <v type="int" >        1        1        2      102      107 </v>
   <v type="int" >        1        1        2        7      107 </v>
   <v type="int" >        1        1        6        7      107 </v>
   <v type="int" >        1        2      102      103      108 </v>
   <v type="int" >        1        2      102      107      108 </v>
   <v type="int" >        1        2        7      107      108 </v>
   <v type="int" >        1        2        3      103      108 </v>
   <v type="int" >        1        2        3        8      108 </v>
   <v type="int" >        1        2        7        8      108 </v>
   <v type="int" >        1        3      103      104      109 </v>
   <v type="int" >        1        3      103      108      109 </v>
   <v type="int" >        1        3        8      108      109 </v>
   <v type="int" >        1        3        4      104      109 </v>
   <v type="int" >        1        3        4        9      109 </v>
   <v type="int" >        1        3        8        9      109 </v>
   <v type="int" >        1        4      104      105      110 </v>
   <v type="int" >        1        4      104      109      110 </v>
   <v type="int" >        1        4        9      109      110 </v>
   <v type="int" >        1        4        5      105      110 </v>
   <v type="int" >        1        4        5       10      110 </v>
   <v type="int" >        1        4        9       10      110 </v>
   <v type="int" >        1        5      101      105      106 </v>
   <v type="int" >        1        5      105      106      110 </v>
   <v type="int" >        1        5       10      106      110 </v>
   <v type="int" >        1        1        5      101      106 </v>
   <v type="int" >        1        1        5        6      106 </v>
   <v type="int" >        1        5        6       10      106 </v>
   <v type="int" >        1        6      106      107      112 </v>
   <v type="int" >        1        6      106      111      112 </v>
   <v type="int" >        1        6       11      111      112 </v>
   <v type="int" >        1        6        7      107      112 </v>
   <v type="int" >        1        6        7       12      112 </v>
   <v type="int" >        1        6       11       12      112 </v>
   <v type="int" >        1        7      107      108      113 </v>
   <v type="int" >        1        7      107      112      113 </v>
   <v type="int" >        1        7       12      112      113 </v>
   <v type="int" >        1        7        8      108      113 </v>
   <v type="int" >        1        7        8       13      113 </v>
   <v type="int" >        1        7       12       13      113 </v>
   <v type="int" >        1        8      108      109      114 </v>
   <v type="int" >        1        8      108      113      114 </v>
   <v type="int" >        1        8       13      113      114 </v>
   <v type="int" >        1        8        9      109      114 </v>
   <v type="int" >        1        8        9       14      114 </v>
   <v type="int" >        1        8       13       14      114 </v>
   <v type="int" >        1        9      109      110      115 </v>
   <v type="int" >        1        9      109      114      115 </v>
   <v type="int" >        1        9       14      114      115 </v>
   <v type="int" >        1        9       10      110      115 </v>
   <v type="int" >        1        9       10       15      115 </v>
   <v type="int" >        1        9       14       15      115 </v>
   <v type="int" >        1       10      106      110      111 </v>
   <v type="int" >        1       10      110      111      115 </v>
   <v type="int" >        1       10       15      111      115 </v>
   <v type="int" >        1        6       10      106      111 </v>
   <v type="int" >        1        6       10       11      111 </v>
   <v type="int" >        1       10       11       15      111 </v>
   <v type="int" >        1       11      111      112      117 </v>
   <v type="int" >        1       11      111      116      117 </v>
   <v type="int" >        1       11       16      116      117 </v>
   <v type="int" >        1       11       12      112      117 </v>
   <v type="int" >        1       11       12       17      117 </v>
   <v type="int" >        1       11       16       17      117 </v>
   <v type="int" >        1       12      112      113      118 </v>
   <v type="int" >        1       12      112      117      118 </v>
   <v type="int" >        1       12       17      117      118 </v>
   <v type="int" >        1       12       13      113      118 </v>
   <v type="int" >        1       12       13       18      118 </v>
   <v type="int" >        1       12       17       18      118 </v>
   <v type="int" >        1       13      113      114      119 </v>
   <v type="int" >        1       13      113      118      119 </v>
   <v type="int" >        1       13       18      118      119 </v>
   <v type="int" >        1       13       14      114      119 </v>
   <v type="int" >        1       13       14       19      119 </v>
   <v type="int" >        1       13       18       19      119 </v>
   <v type="int" >        1       14      114      115      120 </v>
   <v type="int" >        1       14      114      119      120 </v>
   <v type="int" >        1       14       19      119      120 </v>
   <v type="int" >        1       14       15      115      120 </v>
   <v type="int" >        1       14       15       20      120 </v>
   <v type="int" >        1       14       19       20      120 </v>
   <v type="int" >        1       15      111      115      116 </v>
   <v type="int" >        1       15      115      116      120 </v>
   <v type="int" >        1       15       20      116      120 </v>
   <v type="int" >        1       11       15      111      116 </v>
   <v type="int" >        1       11       15       16      116 </v>
   <v type="int" >        1       15       16       20      116 </v>
   <v type="int" >        1       16      116      117      122 </v>
   <v type="int" >        1       16      116      121      122 </v>
   <v type="int" >        1       16       21      121      122 </v>
   <v type="int" >        1       16       17      117      122 </v>
   <v type="int" >        1       16       17       22      122 </v>
   <v type="int" >        1       16       21       22      122 </v>
   <v type="int" >        1       17      117      118      123 </v>
   <v type="int" >        1       17      117      122      123 </v>
   <v type="int" >        1       17       22      122      123 </v>
   <v type="int" >        1       17       18      118      123 </v>
   <v type="int" >        1       17       18       23      123 </v>
   <v type="int" >        1       17       22       23      123 </v>
   <v type="int" >        1       18      118      119      124 </v>
   <v type="int" >        1       18      118      123      124 </v>
   <v type="int" >        1       18       23      123      124 </v>
   <v type="int" >        1       18       19      119      124 </v>
   <v type="int" >        1       18       19       24      124 </v>
   <v type="int" >        1       18       23       24      124 </v>
   <v type="int" >        1       19      119      120      125 </v>
   <v type="int" >        1       19      119      124      125 </v>
   <v type="int" >        1       19       24      124      125 </v>
   <v type="int" >        1       19       20      120      125 </v>
   <v type="int" >        1       19       20       25      125 </v>
   <v type="int" >        1       19       24       25      125 </v>
   <v type="int" >        1       20      116      120      121 </v>
   <v type="int" >        1       20      120      121      125 </v>
   <v type="int" >        1       20       25      121      125 </v>
   <v type="int" >        1       16       20      116      121 </v>
   <v type="int" >        1       16       20       21      121 </v>
   <v type="int" >        1       20       21       25      121 </v>
   <v type="int" >        1       21      102      121      122 </v>
   <v type="int" >        1       21      101      102      121 </v>
   <v type="int" >        1        1       21      101      102 </v>
   <v type="int" >        1       21       22      102      122 </v>
   <v type="int" >        1        2       21       22      102 </v>
   <v type="int" >        1        1        2       21      102 </v>
   <v type="int" >        1       22      103      122      123 </v>
   <v type="int" >        1       22      102      103      122 </v>
   <v type="int" >        1        2       22      102      103 </v>
   <v type="int" >        1       22       23      103      123 </v>
   <v type="int" >        1        3       22       23      103 </v>
   <v type="int" >        1        2        3       22      103 </v>
   <v type="int" >        1       23      104      123      124 </v>
   <v type="int" >        1       23      103      104      123 </v>
   <v type="int" >        1        3       23      103      104 </v>
   <v type="int" >        1       23       24      104      124 </v>
   <v type="int" >        1        4       23       24      104 </v>
   <v type="int" >        1        3        4       23      104 </v>
   <v type="int" >        1       24      105      124      125 </v>
   <v type="int" >        1       24      104      105      124 </v>
   <v type="int" >        1        4       24      104      105 </v>
   <v type="int" >        1       24       25      105      125 </v>
   <v type="int" >        1        5       24       25      105 </v>
   <v type="int" >        1        4        5       24      105 </v>
   <v type="int" >        1       25      101      121      125 </v>
   <v type="int" >        1       25      101      105      125 </v>
   <v type="int" >        1        5       25      101      105 </v>
   <v type="int" >        1       21       25      101      121 </v>
   <v type="int" >        1        1       21       25      101 </v>
   <v type="int" >        1        1        5       25      101 </v>
  </varray>
  <i name="volumeweight">      0.00133333 </i>
 </kpoints>
 <parameters>
  <separator name="general" >
   <i type="string" name="SYSTEM">LOBSTER</i>
   <i type="logical" name="LCOMPAT"> F  </i>
  </separator>
  <separator name="electronic" >
   <i type="string" name="PREC">accura</i>
   <i name="ENMAX">    500.00000000</i>
   <i name="ENAUG">    368.05600000</i>
   <i name="EDIFF">      0.00000001</i>
   <i type="int" name="IALGO">    38</i>
   <i type="int" name="IWAVPR">    10</i>
   <i type="int" name="NBANDS">    32</i>
   <i name="NELECT">     56.00000000</i>
   <i type="int" name="TURBO">     0</i>
   <i type="int" name="IRESTART">     0</i>
   <i type="int" name="NREBOOT">     0</i>
   <i type="int" name="NMIN">     0</i>
   <i name="EREF">      0.00000000</i>
   <separator name="electronic smearing" >
    <i type="int" name="ISMEAR">    -5</i>
    <i name="SIGMA">      0.05000000</i>
    <i name="KSPACING">      0.50000000</i>
    <i type="logical" name="KGAMMA"> T  </i>
   </separator>
   <separator name="electronic projectors" >
    <i type="logical" name="LREAL"> F  </i>
    <v name="ROPT">      0.00000000      0.00000000</v>
    <i type="int" name="LMAXPAW">  -100</i>
    <i type="int" name="LMAXMIX">     2</i>
    <i type="logical" name="NLSPLINE"> F  </i>
   </separator>
   <separator name="electronic startup" >
    <i type="int" name="ISTART">     0</i>
    <i type="int" name="ICHARG">     2</i>
    <i type="int" name="INIWAV">     1</i>
   </separator>
   <separator name="electronic spin" >
    <i type="int" name="ISPIN">     1</i>
    <i type="logical" name="LNONCOLLINEAR"> F  </i>
    <v name="MAGMOM">      1.00000000      1.00000000      1.00000000      1.00000000      1.00000000      1.00000000      1.00000000      1.00000000</v>
    <i name="NUPDOWN">     -1.00000000</i>
    <i type="logical" name="LSORBIT"> F  </i>
    <v name="SAXIS">      0.00000000      0.00000000      1.00000000</v>
    <i type="logical" name="LSPIRAL"> F  </i>
    <v name="QSPIRAL">      0.00000000      0.00000000      0.00000000</v>
    <i type="logical" name="LZEROZ"> F  </i>
   </separator>
   <separator name="electronic exchange-correlation" >
    <i type="logical" name="LASPH"> F  </i>
    <i type="logical" name="LMETAGGA"> F  </i>
   </separator>
   <separator name="electronic convergence" >
    <i type="int" name="NELM">   200</i>
    <i type="int" name="NELMDL">    -5</i>
    <i type="int" name="NELMIN">     4</i>
    <i name="ENINI">    500.00000000</i>
    <separator name="electronic convergence detail" >
     <i type="logical" name="LDIAG"> T  </i>
     <i type="logical" name="LSUBROT"> F  </i>
     <i name="WEIMIN">      0.00000000</i>
     <i name="EBREAK">      0.00000000</i>
     <i name="DEPER">      0.30000000</i>
     <i type="int" name="NRMM">     4</i>
     <i name="TIME">      0.40000000</i>
    </separator>
   </separator>
   <separator name="electronic mixer" >
    <i name="AMIX">      0.40000000</i>
    <i name="BMIX">      1.00000000</i>
    <i name="AMIN">      0.10000000</i>
    <i name="AMIX_MAG">      1.60000000</i>
    <i name="BMIX_MAG">      1.00000000</i>
    <separator name="electronic mixer details" >
     <i type="int" name="IMIX">     4</i>
     <i type="logical" name="MIXFIRST"> F  </i>
     <i type="int" name="MAXMIX">   -45</i>
     <i name="WC">    100.00000000</i>
     <i type="int" name="INIMIX">     1</i>
     <i type="int" name="MIXPRE">     1</i>
     <i type="int" name="MREMOVE">     5</i>
    </separator>
   </separator>
   <separator name="electronic dipolcorrection" >
    <i type="logical" name="LDIPOL"> F  </i>
    <i type="logical" name="LMONO"> F  </i>
    <i type="int" name="IDIPOL">     0</i>
    <i name="EPSILON">      1.00000000</i>
    <v name="DIPOL">   -100.00000000   -100.00000000   -100.00000000</v>
    <i name="EFIELD">      0.00000000</i>
   </separator>
  </separator>
  <separator name="grids" >
   <i type="int" name="NGX">    42</i>
   <i type="int" name="NGY">    42</i>
   <i type="int" name="NGZ">    42</i>
   <i type="int" name="NGXF">    84</i>
   <i type="int" name="NGYF">    84</i>
   <i type="int" name="NGZF">    84</i>
   <i type="logical" name="ADDGRID"> T  </i>
  </separator>
  <separator name="ionic" >
   <i type="int" name="NSW">     0</i>
   <i type="int" name="IBRION">    -1</i>
   <i type="int" name="MDALGO">     0</i>
   <i type="int" name="ISIF">     3</i>
   <i name="PSTRESS">      0.00000000</i>
   <i name="EDIFFG">      0.00000100</i>
   <i type="int" name="NFREE">     1</i>
   <i name="POTIM">      0.50000000</i>
   <i name="SMASS">     -3.00000000</i>
   <i name="SCALEE">      1.00000000</i>
  </separator>
  <separator name="ionic md" >
   <i name="TEBEG">      0.00010000</i>
   <i name="TEEND">      0.00010000</i>
   <i type="int" name="NBLOCK">     1</i>
   <i type="int" name="KBLOCK">     1</i>
   <i type="int" name="NPACO">   256</i>
   <i name="APACO">     16.00000000</i>
  </separator>
  <separator name="symmetry" >
   <i type="int" name="ISYM">    -1</i>
   <i name="SYMPREC">      0.00001000</i>
  </separator>
  <separator name="dos" >
   <i type="int" name="LORBIT">     0</i>
   <v name="RWIGS">     -1.00000000     -1.00000000</v>
   <i type="int" name="NEDOS">   301</i>
   <i name="EMIN">     10.00000000</i>
   <i name="EMAX">    -10.00000000</i>
   <i name="EFERMI">      0.00000000</i>
  </separator>
  <separator name="writing" >
   <i type="int" name="NWRITE">     1</i>
   <i type="logical" name="LWAVE"> T  </i>
   <i type="logical" name="LDOWNSAMPLE"> F  </i>
   <i type="logical" name="LCHARG"> F  </i>
   <i type="logical" name="LPARD"> F  </i>
   <i type="logical" name="LVTOT"> F  </i>
   <i type="logical" name="LVHAR"> F  </i>
   <i type="logical" name="LELF"> F  </i>
   <i type="logical" name="LOPTICS"> F  </i>
   <v name="STM">      0.00000000      0.00000000      0.00000000      0.00000000      0.00000000      0.00000000      0.00000000</v>
  </separator>
  <separator name="performance" >
   <i type="int" name="NPAR">     4</i>
   <i type="int" name="NSIM">     4</i>
   <i type="int" name="NBLK">    -1</i>
   <i type="logical" name="LPLANE"> T  </i>
   <i type="logical" name="LSCALAPACK"> T  </i>
   <i type="logical" name="LSCAAWARE"> F  </i>
   <i type="logical" name="LSCALU"> F  </i>
   <i type="logical" name="LASYNC"> F  </i>
   <i type="logical" name="LORBITALREAL"> F  </i>
  </separator>
  <separator name="miscellaneous" >
   <i type="int" name="IDIOT">     3</i>
   <i type="int" name="ISPECIAL">     0</i>
   <i type="logical" name="LMUSIC"> F  </i>
   <v name="POMASS">     22.99000000     35.45300000</v>
   <v name="DARWINR">      0.00000000      0.00000000</v>
   <v name="DARWINV">      1.00000000      1.00000000</v>
   <i type="logical" name="LCORR"> T  </i>
  </separator>
  <i type="logical" name="GGA_COMPAT"> T  </i>
  <i type="logical" name="LBERRY"> F  </i>
  <i type="int" name="ICORELEVEL">     0</i>
  <i type="logical" name="LDAU"> F  </i>
  <i type="int" name="I_CONSTRAINED_M">     0</i>
  <separator name="electronic exchange-correlation" >
   <i type="string" name="GGA">--</i>
   <i type="int" name="VOSKOWN">     0</i>
   <i type="logical" name="LHFCALC"> F  </i>
   <i type="string" name="PRECFOCK"></i>
   <i type="logical" name="LSYMGRAD"> F  </i>
   <i type="logical" name="LHFONE"> F  </i>
   <i type="logical" name="LRHFCALC"> F  </i>
   <i type="logical" name="LTHOMAS"> F  </i>
   <i type="logical" name="LMODELHF"> F  </i>
   <i name="ENCUT4O">     -1.00000000</i>
   <i type="int" name="EXXOEP">     0</i>
   <i type="int" name="FOURORBIT">     0</i>
   <i name="AEXX">      0.00000000</i>
   <i name="HFALPHA">      0.00000000</i>
   <i name="MCALPHA">      0.00000000</i>
   <i name="ALDAX">      1.00000000</i>
   <i name="AGGAX">      1.00000000</i>
   <i name="ALDAC">      1.00000000</i>
   <i name="AGGAC">      1.00000000</i>
   <i type="int" name="NKREDX">     1</i>
   <i type="int" name="NKREDY">     1</i>
   <i type="int" name="NKREDZ">     1</i>
   <i type="logical" name="SHIFTRED"> F  </i>
   <i type="logical" name="ODDONLY"> F  </i>
   <i type="logical" name="EVENONLY"> F  </i>
   <i type="int" name="LMAXFOCK">     0</i>
   <i type="int" name="NMAXFOCKAE">     0</i>
   <i type="logical" name="LFOCKAEDFT"> F  </i>
   <i name="HFSCREEN">      0.00000000</i>
   <i name="HFSCREENC">      0.00000000</i>
   <i type="int" name="NBANDSGWLOW">     0</i>
  </separator>
  <separator name="vdW DFT" >
   <i type="logical" name="LUSE_VDW"> F  </i>
   <i name="Zab_VDW">     -0.84910000</i>
   <i name="PARAM1">      0.12340000</i>
   <i name="PARAM2">      1.00000000</i>
   <i name="PARAM3">      0.00000000</i>
  </separator>
  <separator name="model GW" >
   <i type="int" name="MODEL_GW">     0</i>
   <i name="MODEL_EPS0">     13.85022005</i>
   <i name="MODEL_ALPHA">      1.00000000</i>
  </separator>
  <separator name="linear response parameters" >
   <i type="logical" name="LEPSILON"> F  </i>
   <i type="logical" name="LRPA"> F  </i>
   <i type="logical" name="LNABLA"> F  </i>
   <i type="logical" name="LVEL"> F  </i>
   <i type="int" name="KINTER">     0</i>
   <i name="CSHIFT">      0.10000000</i>
   <i name="OMEGAMAX">     -1.00000000</i>
   <i name="DEG_THRESHOLD">      0.00200000</i>
   <i name="RTIME">     -0.10000000</i>
   <i name="WPLASMAI">      0.00000000</i>
   <v name="DFIELD">      0.00000000      0.00000000      0.00000000</v>
   <v name="WPLASMA">      0.00000000      0.00000000      0.00000000      0.00000000      0.00000000      0.00000000      0.00000000      0.00000000      0.00000000</v>
  </separator>
  <separator name="orbital magnetization" >
   <i type="logical" name="NUCIND"> F  </i>
   <v name="MAGPOS">      0.00000000      0.00000000      0.00000000</v>
   <i type="logical" name="LNICSALL"> T  </i>
   <i type="logical" name="ORBITALMAG"> F  </i>
   <i type="logical" name="LMAGBLOCH"> F  </i>
   <i type="logical" name="LCHIMAG"> F  </i>
   <i type="logical" name="LGAUGE"> T  </i>
   <i type="int" name="MAGATOM">     0</i>
   <v name="MAGDIPOL">      0.00000000      0.00000000      0.00000000</v>
   <v name="AVECCONST">      0.00000000      0.00000000      0.00000000</v>
  </separator>
  <separator name="response functions" >
   <i type="logical" name="LADDER"> F  </i>
   <i type="logical" name="LRPAFORCE"> F  </i>
   <i type="logical" name="LFXC"> F  </i>
   <i type="logical" name="LHARTREE"> T  </i>
   <i type="int" name="IBSE">     0</i>
   <v type="int" name="KPOINT">    -1     0     0     0</v>
   <i type="logical" name="LTCTE"> F  </i>
   <i type="logical" name="LTETE"> F  </i>
   <i type="logical" name="LTRIPLET"> F  </i>
   <i type="logical" name="LFXCEPS"> F  </i>
   <i type="logical" name="LFXHEG"> F  </i>
   <i type="int" name="NATURALO">     2</i>
   <i type="logical" name="L2ORDER"> F  </i>
   <i type="logical" name="LMP2LT"> F  </i>
   <i type="logical" name="LUSEW"> F  </i>
   <i name="ENCUTGW">     -2.00000000</i>
   <i name="ENCUTGWSOFT">     -2.00000000</i>
   <i name="ENCUTLF">     -1.00000000</i>
   <i type="int" name="LMAXMP2">    -1</i>
   <i name="SCISSOR">      0.00000000</i>
   <i type="int" name="NOMEGA">     0</i>
   <i type="int" name="NOMEGAR">     0</i>
   <i type="int" name="NBANDSGW">    -1</i>
   <i type="int" name="NBANDSO">    -1</i>
   <i type="int" name="NBANDSV">    -1</i>
   <i type="int" name="NELM">   200</i>
   <i type="int" name="NELMHF">     1</i>
   <i type="int" name="DIM">     3</i>
   <i type="int" name="ANTIRES">     0</i>
   <i name="OMEGAMAX">    -30.00000000</i>
   <i name="OMEGAMIN">    -30.00000000</i>
   <i name="OMEGATL">   -200.00000000</i>
   <i type="int" name="OMEGAGRID">   140</i>
   <i name="CSHIFT">     -0.10000000</i>
   <i type="logical" name="SELFENERGY"> F  </i>
   <i type="logical" name="LSPECTRAL"> F  </i>
   <i type="logical" name="LSPECTRALGW"> F  </i>
   <i type="logical" name="LSINGLES"> F  </i>
   <i type="logical" name="LFERMIGW"> F  </i>
   <i type="logical" name="ODDONLYGW"> F  </i>
   <i type="logical" name="EVENONLYGW"> F  </i>
   <i type="int" name="NKREDLFX">     1</i>
   <i type="int" name="NKREDLFY">     1</i>
   <i type="int" name="NKREDLFZ">     1</i>
   <i type="int" name="MAXMEM">  2800</i>
   <i type="int" name="TELESCOPE">     0</i>
   <i type="int" name="TAUPAR">     1</i>
   <i type="int" name="OMEGAPAR">    -1</i>
   <i name="LAMBDA">      1.00000000</i>
  </separator>
  <separator name="External order field" >
   <i name="OFIELD_KAPPA">      0.00000000</i>
   <v name="OFIELD_K">      0.00000000      0.00000000      0.00000000</v>
   <i name="OFIELD_Q6_NEAR">      0.00000000</i>
   <i name="OFIELD_Q6_FAR">      0.00000000</i>
   <i name="OFIELD_A">      0.00000000</i>
  </separator>
 </parameters>
 <atominfo>
  <atoms>       8 </atoms>
  <types>       2 </types>
  <array name="atoms" >
   <dimension dim="1">ion</dimension>
   <field type="string">element</field>
   <field type="int">atomtype</field>
   <set>
    <rc><c>Na</c><c>   1</c></rc>
    <rc><c>Na</c><c>   1</c></rc>
    <rc><c>Na</c><c>   1</c></rc>
    <rc><c>Na</c><c>   1</c></rc>
[...]
       <r>  -21.7894    1.0000 </r>
       <r>  -21.7894    1.0000 </r>
       <r>  -21.7882    1.0000 </r>
       <r>  -21.7850    1.0000 </r>
       <r>  -21.7798    1.0000 </r>
       <r>  -21.7798    1.0000 </r>
       <r>  -21.7758    1.0000 </r>
       <r>  -21.7758    1.0000 </r>
       <r>  -21.7755    1.0000 </r>
       <r>  -21.7749    1.0000 </r>
       <r>  -21.7731    1.0000 </r>
       <r>  -21.7726    1.0000 </r>
       <r>  -13.3090    1.0000 </r>
       <r>  -13.2190    1.0000 </r>
       <r>  -13.1445    1.0000 </r>
       <r>  -13.1445    1.0000 </r>
       <r>   -2.3639    1.0000 </r>
       <r>   -2.3639    1.0000 </r>
       <r>   -2.2949    1.0000 </r>
       <r>   -2.0407    1.0000 </r>
       <r>   -1.7427    1.0000 </r>
       <r>   -1.7427    1.0000 </r>
       <r>   -1.3613    1.0000 </r>
       <r>   -1.3460    1.0000 </r>
       <r>   -1.3460    1.0000 </r>
       <r>   -1.2483    1.0000 </r>
       <r>   -1.1058    1.0000 </r>
       <r>   -1.0960    1.0000 </r>
       <r>    5.8961    0.0000 </r>
       <r>    6.7527    0.0000 </r>
       <r>    7.5607    0.0000 </r>
       <r>    7.5607    0.0000 </r>
      </set>
      <set comment="kpoint 124">
       <r>  -21.7894    1.0000 </r>
       <r>  -21.7894    1.0000 </r>
       <r>  -21.7882    1.0000 </r>
       <r>  -21.7850    1.0000 </r>
       <r>  -21.7798    1.0000 </r>
       <r>  -21.7798    1.0000 </r>
       <r>  -21.7758    1.0000 </r>
       <r>  -21.7758    1.0000 </r>
       <r>  -21.7755    1.0000 </r>
       <r>  -21.7749    1.0000 </r>
       <r>  -21.7731    1.0000 </r>
       <r>  -21.7726    1.0000 </r>
       <r>  -13.3090    1.0000 </r>
       <r>  -13.2190    1.0000 </r>
       <r>  -13.1445    1.0000 </r>
       <r>  -13.1445    1.0000 </r>
       <r>   -2.3639    1.0000 </r>
       <r>   -2.3639    1.0000 </r>
       <r>   -2.2949    1.0000 </r>
       <r>   -2.0407    1.0000 </r>
       <r>   -1.7427    1.0000 </r>
       <r>   -1.7427    1.0000 </r>
       <r>   -1.3613    1.0000 </r>
       <r>   -1.3460    1.0000 </r>
       <r>   -1.3460    1.0000 </r>
       <r>   -1.2483    1.0000 </r>
       <r>   -1.1058    1.0000 </r>
       <r>   -1.0960    1.0000 </r>
       <r>    5.8961    0.0000 </r>
       <r>    6.7527    0.0000 </r>
       <r>    7.5607    0.0000 </r>
       <r>    7.5607    0.0000 </r>
      </set>
      <set comment="kpoint 125">
       <r>  -21.7882    1.0000 </r>
       <r>  -21.7882    1.0000 </r>
       <r>  -21.7882    1.0000 </r>
       <r>  -21.7798    1.0000 </r>
       <r>  -21.7795    1.0000 </r>
       <r>  -21.7795    1.0000 </r>
       <r>  -21.7795    1.0000 </r>
       <r>  -21.7764    1.0000 </r>
       <r>  -21.7764    1.0000 </r>
       <r>  -21.7764    1.0000 </r>
       <r>  -21.7717    1.0000 </r>
       <r>  -21.7717    1.0000 </r>
       <r>  -13.3881    1.0000 </r>
       <r>  -13.1531    1.0000 </r>
       <r>  -13.1531    1.0000 </r>
       <r>  -13.1531    1.0000 </r>
       <r>   -2.3534    1.0000 </r>
       <r>   -2.3534    1.0000 </r>
       <r>   -2.3534    1.0000 </r>
       <r>   -1.6593    1.0000 </r>
       <r>   -1.6593    1.0000 </r>
       <r>   -1.6593    1.0000 </r>
       <r>   -1.6587    1.0000 </r>
       <r>   -1.3579    1.0000 </r>
       <r>   -1.3579    1.0000 </r>
       <r>   -1.3579    1.0000 </r>
       <r>   -0.9842    1.0000 </r>
       <r>   -0.9842    1.0000 </r>
       <r>    5.1668    0.0000 </r>
       <r>    7.1192    0.0000 </r>
       <r>    7.1192    0.0000 </r>
       <r>    7.1192    0.0000 </r>
      </set>
     </set>
    </set>
   </array>
  </eigenvalues>
  <separator name="orbital magnetization" >
   <v name="MAGDIPOLOUT">      0.00000000      0.00000000      0.00000000</v>
  </separator>
  <dos>
   <i name="efermi">     -0.89230356 </i>
   <total>
    <array>
     <dimension dim="1">gridpoints</dimension>
     <dimension dim="2">spin</dimension>
     <field>energy</field>
     <field>total</field>
     <field>integrated</field>
     <set>
      <set comment="spin 1">
       <r>   -23.2729     0.0000     0.0000 </r>
       <r>   -23.1645     0.0000     0.0000 </r>
       <r>   -23.0561     0.0000     0.0000 </r>
       <r>   -22.9477     0.0000     0.0000 </r>
       <r>   -22.8394     0.0000     0.0000 </r>
       <r>   -22.7310     0.0000     0.0000 </r>
       <r>   -22.6226     0.0000     0.0000 </r>
       <r>   -22.5142     0.0000     0.0000 </r>
       <r>   -22.4058     0.0000     0.0000 </r>
       <r>   -22.2975     0.0000     0.0000 </r>
       <r>   -22.1891     0.0000     0.0000 </r>
       <r>   -22.0807     0.0000     0.0000 </r>
       <r>   -21.9723     0.0000     0.0000 </r>
       <r>   -21.8639     0.0000     0.0000 </r>
       <r>   -21.7556     0.0000    24.0000 </r>
       <r>   -21.6472     0.0000    24.0000 </r>
       <r>   -21.5388     0.0000    24.0000 </r>
       <r>   -21.4304     0.0000    24.0000 </r>
       <r>   -21.3220     0.0000    24.0000 </r>
       <r>   -21.2137     0.0000    24.0000 </r>
       <r>   -21.1053     0.0000    24.0000 </r>
       <r>   -20.9969     0.0000    24.0000 </r>
       <r>   -20.8885     0.0000    24.0000 </r>
       <r>   -20.7801     0.0000    24.0000 </r>
       <r>   -20.6718     0.0000    24.0000 </r>
       <r>   -20.5634     0.0000    24.0000 </r>
       <r>   -20.4550     0.0000    24.0000 </r>
       <r>   -20.3466     0.0000    24.0000 </r>
       <r>   -20.2382     0.0000    24.0000 </r>
       <r>   -20.1298     0.0000    24.0000 </r>
       <r>   -20.0215     0.0000    24.0000 </r>
       <r>   -19.9131     0.0000    24.0000 </r>
       <r>   -19.8047     0.0000    24.0000 </r>
       <r>   -19.6963     0.0000    24.0000 </r>
       <r>   -19.5879     0.0000    24.0000 </r>
       <r>   -19.4796     0.0000    24.0000 </r>
       <r>   -19.3712     0.0000    24.0000 </r>
       <r>   -19.2628     0.0000    24.0000 </r>
       <r>   -19.1544     0.0000    24.0000 </r>
       <r>   -19.0460     0.0000    24.0000 </r>
       <r>   -18.9377     0.0000    24.0000 </r>
       <r>   -18.8293     0.0000    24.0000 </r>
       <r>   -18.7209     0.0000    24.0000 </r>
       <r>   -18.6125     0.0000    24.0000 </r>
       <r>   -18.5041     0.0000    24.0000 </r>
       <r>   -18.3958     0.0000    24.0000 </r>
       <r>   -18.2874     0.0000    24.0000 </r>
       <r>   -18.1790     0.0000    24.0000 </r>
       <r>   -18.0706     0.0000    24.0000 </r>
       <r>   -17.9622     0.0000    24.0000 </r>
       <r>   -17.8539     0.0000    24.0000 </r>
       <r>   -17.7455     0.0000    24.0000 </r>
       <r>   -17.6371     0.0000    24.0000 </r>
       <r>   -17.5287     0.0000    24.0000 </r>
       <r>   -17.4203     0.0000    24.0000 </r>
       <r>   -17.3120     0.0000    24.0000 </r>
       <r>   -17.2036     0.0000    24.0000 </r>
       <r>   -17.0952     0.0000    24.0000 </r>
       <r>   -16.9868     0.0000    24.0000 </r>
       <r>   -16.8784     0.0000    24.0000 </r>
       <r>   -16.7701     0.0000    24.0000 </r>
       <r>   -16.6617     0.0000    24.0000 </r>
       <r>   -16.5533     0.0000    24.0000 </r>
       <r>   -16.4449     0.0000    24.0000 </r>
       <r>   -16.3365     0.0000    24.0000 </r>
       <r>   -16.2281     0.0000    24.0000 </r>
       <r>   -16.1198     0.0000    24.0000 </r>
       <r>   -16.0114     0.0000    24.0000 </r>
       <r>   -15.9030     0.0000    24.0000 </r>
       <r>   -15.7946     0.0000    24.0000 </r>
       <r>   -15.6862     0.0000    24.0000 </r>
       <r>   -15.5779     0.0000    24.0000 </r>
       <r>   -15.4695     0.0000    24.0000 </r>
       <r>   -15.3611     0.0000    24.0000 </r>
       <r>   -15.2527     0.0000    24.0000 </r>
       <r>   -15.1443     0.0000    24.0000 </r>
       <r>   -15.0360     0.0000    24.0000 </r>
       <r>   -14.9276     0.0000    24.0000 </r>
       <r>   -14.8192     0.0000    24.0000 </r>
       <r>   -14.7108     0.0000    24.0000 </r>
       <r>   -14.6024     0.0000    24.0000 </r>
       <r>   -14.4941     0.0000    24.0000 </r>
       <r>   -14.3857     0.0000    24.0000 </r>
       <r>   -14.2773     0.0000    24.0000 </r>
       <r>   -14.1689     0.0000    24.0000 </r>
       <r>   -14.0605     0.0000    24.0000 </r>
       <r>   -13.9522     0.0000    24.0000 </r>
       <r>   -13.8438     0.0000    24.0000 </r>
       <r>   -13.7354     0.0000    24.0000 </r>
       <r>   -13.6270     0.0000    24.0000 </r>
       <r>   -13.5186     0.0000    24.0000 </r>
       <r>   -13.4103     4.3214    24.1730 </r>
       <r>   -13.3019    11.8013    25.1513 </r>
       <r>   -13.1935    33.5184    27.1341 </r>
       <r>   -13.0851     0.0000    32.0000 </r>
       <r>   -12.9767     0.0000    32.0000 </r>
       <r>   -12.8684     0.0000    32.0000 </r>
       <r>   -12.7600     0.0000    32.0000 </r>
       <r>   -12.6516     0.0000    32.0000 </r>
       <r>   -12.5432     0.0000    32.0000 </r>
       <r>   -12.4348     0.0000    32.0000 </r>
       <r>   -12.3265     0.0000    32.0000 </r>
       <r>   -12.2181     0.0000    32.0000 </r>
       <r>   -12.1097     0.0000    32.0000 </r>
       <r>   -12.0013     0.0000    32.0000 </r>
       <r>   -11.8929     0.0000    32.0000 </r>
       <r>   -11.7845     0.0000    32.0000 </r>
       <r>   -11.6762     0.0000    32.0000 </r>
       <r>   -11.5678     0.0000    32.0000 </r>
       <r>   -11.4594     0.0000    32.0000 </r>
       <r>   -11.3510     0.0000    32.0000 </r>
       <r>   -11.2426     0.0000    32.0000 </r>
       <r>   -11.1343     0.0000    32.0000 </r>
       <r>   -11.0259     0.0000    32.0000 </r>
       <r>   -10.9175     0.0000    32.0000 </r>
       <r>   -10.8091     0.0000    32.0000 </r>
       <r>   -10.7007     0.0000    32.0000 </r>
       <r>   -10.5924     0.0000    32.0000 </r>
       <r>   -10.4840     0.0000    32.0000 </r>
       <r>   -10.3756     0.0000    32.0000 </r>
       <r>   -10.2672     0.0000    32.0000 </r>
       <r>   -10.1588     0.0000    32.0000 </r>
       <r>   -10.0505     0.0000    32.0000 </r>
       <r>    -9.9421     0.0000    32.0000 </r>
       <r>    -9.8337     0.0000    32.0000 </r>
       <r>    -9.7253     0.0000    32.0000 </r>
       <r>    -9.6169     0.0000    32.0000 </r>
       <r>    -9.5086     0.0000    32.0000 </r>
       <r>    -9.4002     0.0000    32.0000 </r>
       <r>    -9.2918     0.0000    32.0000 </r>
       <r>    -9.1834     0.0000    32.0000 </r>
       <r>    -9.0750     0.0000    32.0000 </r>
       <r>    -8.9667     0.0000    32.0000 </r>
       <r>    -8.8583     0.0000    32.0000 </r>
       <r>    -8.7499     0.0000    32.0000 </r>
       <r>    -8.6415     0.0000    32.0000 </r>
       <r>    -8.5331     0.0000    32.0000 </r>
       <r>    -8.4248     0.0000    32.0000 </r>
       <r>    -8.3164     0.0000    32.0000 </r>
       <r>    -8.2080     0.0000    32.0000 </r>
       <r>    -8.0996     0.0000    32.0000 </r>
       <r>    -7.9912     0.0000    32.0000 </r>
       <r>    -7.8828     0.0000    32.0000 </r>
       <r>    -7.7745     0.0000    32.0000 </r>
       <r>    -7.6661     0.0000    32.0000 </r>
       <r>    -7.5577     0.0000    32.0000 </r>
       <r>    -7.4493     0.0000    32.0000 </r>
       <r>    -7.3409     0.0000    32.0000 </r>
       <r>    -7.2326     0.0000    32.0000 </r>
       <r>    -7.1242     0.0000    32.0000 </r>
       <r>    -7.0158     0.0000    32.0000 </r>
       <r>    -6.9074     0.0000    32.0000 </r>
       <r>    -6.7990     0.0000    32.0000 </r>
       <r>    -6.6907     0.0000    32.0000 </r>
       <r>    -6.5823     0.0000    32.0000 </r>
       <r>    -6.4739     0.0000    32.0000 </r>
       <r>    -6.3655     0.0000    32.0000 </r>
       <r>    -6.2571     0.0000    32.0000 </r>
       <r>    -6.1488     0.0000    32.0000 </r>
       <r>    -6.0404     0.0000    32.0000 </r>
       <r>    -5.9320     0.0000    32.0000 </r>
       <r>    -5.8236     0.0000    32.0000 </r>
       <r>    -5.7152     0.0000    32.0000 </r>
       <r>    -5.6069     0.0000    32.0000 </r>
       <r>    -5.4985     0.0000    32.0000 </r>
       <r>    -5.3901     0.0000    32.0000 </r>
       <r>    -5.2817     0.0000    32.0000 </r>
       <r>    -5.1733     0.0000    32.0000 </r>
       <r>    -5.0650     0.0000    32.0000 </r>
       <r>    -4.9566     0.0000    32.0000 </r>
       <r>    -4.8482     0.0000    32.0000 </r>
       <r>    -4.7398     0.0000    32.0000 </r>
       <r>    -4.6314     0.0000    32.0000 </r>
       <r>    -4.5231     0.0000    32.0000 </r>
       <r>    -4.4147     0.0000    32.0000 </r>
       <r>    -4.3063     0.0000    32.0000 </r>
       <r>    -4.1979     0.0000    32.0000 </r>
       <r>    -4.0895     0.0000    32.0000 </r>
       <r>    -3.9811     0.0000    32.0000 </r>
       <r>    -3.8728     0.0000    32.0000 </r>
       <r>    -3.7644     0.0000    32.0000 </r>
       <r>    -3.6560     0.0000    32.0000 </r>
       <r>    -3.5476     0.0000    32.0000 </r>
       <r>    -3.4392     0.0000    32.0000 </r>
       <r>    -3.3309     0.0000    32.0000 </r>
       <r>    -3.2225     0.0000    32.0000 </r>
       <r>    -3.1141     0.0000    32.0000 </r>
       <r>    -3.0057     0.0000    32.0000 </r>
       <r>    -2.8973     0.0000    32.0000 </r>
       <r>    -2.7890     0.0000    32.0000 </r>
       <r>    -2.6806     0.0000    32.0000 </r>
       <r>    -2.5722     3.8535    32.2849 </r>
       <r>    -2.4638     7.7242    32.8910 </r>
       <r>    -2.3554    29.5069    34.6849 </r>
       <r>    -2.2471    16.8189    37.3470 </r>
       <r>    -2.1387     6.6057    38.5499 </r>
       <r>    -2.0303     3.3345    39.1952 </r>
       <r>    -1.9219     2.5010    39.5154 </r>
       <r>    -1.8135     8.1738    40.0844 </r>
       <r>    -1.7052    14.0129    41.4486 </r>
       <r>    -1.5968    11.7671    42.7937 </r>
       <r>    -1.4884    15.0133    44.2885 </r>
       <r>    -1.3800    36.3337    46.8314 </r>
       <r>    -1.2716    22.5425    49.5365 </r>
       <r>    -1.1633    14.7468    52.6656 </r>
       <r>    -1.0549    23.0015    54.9837 </r>
       <r>    -0.9465     7.7607    55.9077 </r>
       <r>    -0.8381     0.0000    56.0000 </r>
       <r>    -0.7297     0.0000    56.0000 </r>
       <r>    -0.6214     0.0000    56.0000 </r>
       <r>    -0.5130     0.0000    56.0000 </r>
       <r>    -0.4046     0.0000    56.0000 </r>
       <r>    -0.2962     0.0000    56.0000 </r>
       <r>    -0.1878     0.0000    56.0000 </r>
       <r>    -0.0794     0.0000    56.0000 </r>
       <r>     0.0289     0.0000    56.0000 </r>
       <r>     0.1373     0.0000    56.0000 </r>
       <r>     0.2457     0.0000    56.0000 </r>
       <r>     0.3541     0.0000    56.0000 </r>
       <r>     0.4625     0.0000    56.0000 </r>
       <r>     0.5708     0.0000    56.0000 </r>
       <r>     0.6792     0.0000    56.0000 </r>
       <r>     0.7876     0.0000    56.0000 </r>
       <r>     0.8960     0.0000    56.0000 </r>
       <r>     1.0044     0.0000    56.0000 </r>
       <r>     1.1127     0.0000    56.0000 </r>
       <r>     1.2211     0.0000    56.0000 </r>
       <r>     1.3295     0.0000    56.0000 </r>
       <r>     1.4379     0.0000    56.0000 </r>
       <r>     1.5463     0.0000    56.0000 </r>
       <r>     1.6546     0.0000    56.0000 </r>
       <r>     1.7630     0.0000    56.0000 </r>
       <r>     1.8714     0.0000    56.0000 </r>
       <r>     1.9798     0.0000    56.0000 </r>
       <r>     2.0882     0.0000    56.0000 </r>
       <r>     2.1965     0.0000    56.0000 </r>
       <r>     2.3049     0.0000    56.0000 </r>
       <r>     2.4133     0.0000    56.0000 </r>
       <r>     2.5217     0.0000    56.0000 </r>
       <r>     2.6301     0.0000    56.0000 </r>
       <r>     2.7384     0.0000    56.0000 </r>
       <r>     2.8468     0.0000    56.0000 </r>
       <r>     2.9552     0.0000    56.0000 </r>
       <r>     3.0636     0.0000    56.0000 </r>
       <r>     3.1720     0.0000    56.0000 </r>
       <r>     3.2803     0.0000    56.0000 </r>
       <r>     3.3887     0.0000    56.0000 </r>
       <r>     3.4971     0.0000    56.0000 </r>
       <r>     3.6055     0.0000    56.0000 </r>
       <r>     3.7139     0.0000    56.0000 </r>
       <r>     3.8222     0.0000    56.0000 </r>
       <r>     3.9306     0.0000    56.0000 </r>
       <r>     4.0390     0.0000    56.0000 </r>
       <r>     4.1474     0.0019    56.0000 </r>
       <r>     4.2558     0.0221    56.0011 </r>
       <r>     4.3642     0.0644    56.0056 </r>
       <r>     4.4725     0.1288    56.0159 </r>
       <r>     4.5809     0.2227    56.0346 </r>
       <r>     4.6893     0.3132    56.0638 </r>
       <r>     4.7977     0.3803    56.1016 </r>
       <r>     4.9061     0.4200    56.1454 </r>
       <r>     5.0144     0.4459    56.1921 </r>
       <r>     5.1228     0.4965    56.2429 </r>
       <r>     5.2312     0.5689    56.3005 </r>
       <r>     5.3396     0.6507    56.3665 </r>
       <r>     5.4480     0.7403    56.4418 </r>
       <r>     5.5563     0.9818    56.5305 </r>
       <r>     5.6647     1.3724    56.6589 </r>
       <r>     5.7731     1.9660    56.8271 </r>
       <r>     5.8815     1.4967    57.0130 </r>
       <r>     5.9899     1.5781    57.1766 </r>
       <r>     6.0982     1.6984    57.3544 </r>
       <r>     6.2066     1.7855    57.5435 </r>
       <r>     6.3150     1.4726    57.8780 </r>
       <r>     6.4234     0.7815    57.9992 </r>
       <r>     6.5318     0.4604    58.0183 </r>
       <r>     6.6401     2.7327    58.2300 </r>
       <r>     6.7485     6.2489    58.7113 </r>
       <r>     6.8569     6.8367    59.4333 </r>
       <r>     6.9653     5.8810    60.1517 </r>
       <r>     7.0737     4.7990    60.7205 </r>
       <r>     7.1820     4.6502    61.2157 </r>
       <r>     7.2904     4.5696    61.7420 </r>
       <r>     7.3988     4.8435    62.2539 </r>
       <r>     7.5072     4.9155    62.7846 </r>
       <r>     7.6156     6.4522    63.3595 </r>
       <r>     7.7239     2.3099    63.9311 </r>
       <r>     7.8323     0.0000    64.0000 </r>
       <r>     7.9407     0.0000    64.0000 </r>
       <r>     8.0491     0.0000    64.0000 </r>
       <r>     8.1575     0.0000    64.0000 </r>
       <r>     8.2659     0.0000    64.0000 </r>
       <r>     8.3742     0.0000    64.0000 </r>
       <r>     8.4826     0.0000    64.0000 </r>
       <r>     8.5910     0.0000    64.0000 </r>
       <r>     8.6994     0.0000    64.0000 </r>
       <r>     8.8078     0.0000    64.0000 </r>
       <r>     8.9161     0.0000    64.0000 </r>
       <r>     9.0245     0.0000    64.0000 </r>
       <r>     9.1329     0.0000    64.0000 </r>
       <r>     9.2413     0.0000    64.0000 </r>
      </set>
     </set>
    </array>
   </total>
  </dos>
 </calculation>
 <structure name="finalpos" >
  <crystal>
   <varray name="basis" >
    <v>       5.69462508       0.00000000       0.00000000 </v>
    <v>       0.00000000       5.69462508       0.00000000 </v>
    <v>       0.00000000       0.00000000       5.69462508 </v>
   </varray>
   <i name="volume">    184.66960066 </i>
   <varray name="rec_basis" >
    <v>       0.17560419       0.00000000       0.00000000 </v>
    <v>       0.00000000       0.17560419       0.00000000 </v>
    <v>       0.00000000       0.00000000       0.17560419 </v>
   </varray>
  </crystal>
  <varray name="positions" >
   <v>       0.50000000       0.00000000       0.50000000 </v>
   <v>       0.00000000       0.50000000       0.50000000 </v>
   <v>       0.50000000       0.50000000       0.00000000 </v>
   <v>       0.00000000       0.00000000       0.00000000 </v>
   <v>       0.50000000       0.50000000       0.50000000 </v>
   <v>       0.00000000       0.00000000       0.50000000 </v>
   <v>       0.50000000       0.00000000       0.00000000 </v>
   <v>       0.00000000       0.50000000       0.00000000 </v>
  </varray>
 </structure>
</modeling>
