
Running Job 1 of 1 mol.qin
qchem mol.qin_41313.0 /tmp/qchem41313/ 1
srun -n 1 /global/common/edison/software/qchem/5.1beta/exe/qcprog.exe mol.qin_41313.0 /tmp/qchem41313/

Process 0 of 1 is on nid02549 - thread support 0
initial socket setup ...start
initial socket setup ...done 
now start server 0 ... 
Check license passed

                  Welcome to Q-Chem
     A Quantum Leap Into The Future Of Chemistry


 Q-Chem 5.1, Q-Chem, Inc., Pleasanton, CA (2018)

 Yihan Shao,  Zhengting Gan,  E. Epifanovsky,  A. T. B. Gilbert,  M. Wormit,  
 J. Kussmann,  A. W. Lange,  A. Behn,  Jia Deng,  Xintian Feng,  D. Ghosh,  
 M. Goldey,  P. R. Horn,  L. D. Jacobson,  I. Kaliman,  T. Kus,  A. Landau,  
 Jie Liu,  E. I. Proynov,  R. M. Richard,  R. P. Steele,  E. J. Sundstrom,  
 H. L. Woodcock III,  P. M. Zimmerman,  D. Zuev,  B. Albrecht,  E. Alguire,  
 S. A. Baeppler,  D. Barton,  Z. Benda,  Y. A. Bernard,  E. J. Berquist,  
 K. B. Bravaya,  H. Burton,  D. Casanova,  Chun-Min Chang,  Yunqing Chen,  
 A. Chien,  K. D. Closser,  M. P. Coons,  S. Coriani,  S. Dasgupta,  
 A. L. Dempwolff,  M. Diedenhofen,  Hainam Do,  R. G. Edgar,  Po-Tung Fang,  
 S. Faraji,  S. Fatehi,  Qingguo Feng,  K. D. Fenk,  J. Fosso-Tande,  
 Qinghui Ge,  A. Ghysels,  G. Gidofalvi,  J. Gomes,  J. Gonthier,  A. Gunina,  
 D. Hait,  M. W. D. Hanson-Heine,  P. H. P. Harbach,  A. W. Hauser,  
 J. E. Herr,  E. G. Hohenstein,  Z. C. Holden,  Kerwin Hui,  B. C. Huynh,  
 T.-C. Jagau,  Hyunjun Ji,  B. Kaduk,  K. Khistyaev,  Jaehoon Kim,  
 P. Klunzinger,  K. Koh,  D. Kosenkov,  L. Koulias,  T. Kowalczyk,  
 C. M. Krauter,  A. Kunitsa,  Ka Un Lao,  A. Laurent,  K. V. Lawler,  
 Joonho Lee,  D. Lefrancois,  S. Lehtola,  D. S. Levine,  Yi-Pei Li,  
 You-Sheng Lin,  Fenglai Liu,  E. Livshits,  A. Luenser,  P. Manohar,  
 E. Mansoor,  S. F. Manzer,  Shan-Ping Mao,  Yuezhi Mao,  N. Mardirossian,  
 A. V. Marenich,  T. Markovich,  L. A. Martinez-Martinez,  S. A. Maurer,  
 N. J. Mayhall,  S. C. McKenzie,  J.-M. Mewes,  A. F. Morrison,  
 J. W. Mullinax,  K. Nanda,  T. S. Nguyen-Beck,  R. Olivares-Amaya,  
 J. A. Parkhill,  T. M. Perrine,  F. Plasser,  P. Pokhilko,  S. Prager,  
 A. Prociuk,  E. Ramos,  D. R. Rehn,  F. Rob,  M. Schneider,  N. Sergueev,  
 S. M. Sharada,  S. Sharma,  D. W. Small,  T. Stauch,  T. Stein,  
 Yu-Chuan Su,  A. J. W. Thom,  A. Tkatchenko,  T. Tsuchimochi,  N. M. Tubman,  
 L. Vogt,  M. L. Vidal,  O. Vydrov,  M. A. Watson,  J. Wenzel,  
 M. de Wergifosse,  T. A. Wesolowski,  A. White,  J. Witte,  A. Yamada,  
 Jun Yang,  K. Yao,  S. Yeganeh,  S. R. Yost,  Zhi-Qiang You,  A. Zech,  
 Igor Ying Zhang,  Xing Zhang,  Yan Zhao,  Ying Zhu,  B. R. Brooks,  
 G. K. L. Chan,  C. J. Cramer,  M. S. Gordon,  W. J. Hehre,  A. Klamt,  
 M. W. Schmidt,  C. D. Sherrill,  D. G. Truhlar,  A. Aspuru-Guzik,  R. Baer,  
 A. T. Bell,  N. A. Besley,  Jeng-Da Chai,  R. A. DiStasio Jr.,  A. Dreuw,  
 B. D. Dunietz,  T. R. Furlani,  Chao-Ping Hsu,  Yousung Jung,  Jing Kong,  
 D. S. Lambrecht,  WanZhen Liang,  C. Ochsenfeld,  V. A. Rassolov,  
 L. V. Slipchenko,  J. E. Subotnik,  T. Van Voorhis,  J. M. Herbert,  
 A. I. Krylov,  P. M. W. Gill,  M. Head-Gordon

 Contributors to earlier versions of Q-Chem not listed above: 
 R. D. Adamson,  B. Austin,  J. Baker,  G. J. O. Beran,  K. Brandhorst,  
 S. T. Brown,  E. F. C. Byrd,  A. K. Chakraborty,  C.-L. Cheng,  
 Siu Hung Chien,  D. M. Chipman,  D. L. Crittenden,  H. Dachsel,  
 R. J. Doerksen,  A. D. Dutoi,  L. Fusti-Molnar,  W. A. Goddard III,  
 A. Golubeva-Zadorozhnaya,  S. R. Gwaltney,  G. Hawkins,  A. Heyden,  
 S. Hirata,  G. Kedziora,  F. J. Keil,  C. Kelley,  Jihan Kim,  R. A. King,  
 R. Z. Khaliullin,  P. P. Korambath,  W. Kurlancheek,  A. M. Lee,  M. S. Lee,  
 S. V. Levchenko,  Ching Yeh Lin,  D. Liotard,  R. C. Lochan,  I. Lotan,  
 P. E. Maslen,  N. Nair,  D. P. O'Neill,  D. Neuhauser,  E. Neuscamman,  
 C. M. Oana,  R. Olson,  B. Peters,  R. Peverati,  P. A. Pieniazek,  
 Y. M. Rhee,  J. Ritchie,  M. A. Rohrdanz,  E. Rosta,  N. J. Russ,  
 H. F. Schaefer III,  N. E. Schultz,  N. Shenvi,  A. C. Simmonett,  A. Sodt,  
 D. Stuck,  K. S. Thanthiriwatte,  V. Vanovschi,  Tao Wang,  A. Warshel,  
 C. F. Williams,  Q. Wu,  X. Xu,  W. Zhang

 Please cite Q-Chem as follows:
 Y. Shao et al., Mol. Phys. 113, 184-215 (2015)
 DOI: 10.1080/00268976.2014.952696

 Q-Chem 5.1.0 for Intel X86 EM64T Linux

 Parts of Q-Chem use Armadillo 8.300.2 (Tropical Shenanigans).
 http://arma.sourceforge.net/

 Q-Chem begins on Fri Aug 24 12:58:31 2018  

Host: edison09
0

     Scratch files written to /tmp/qchem41313//
 Apr1918  _RNUM -1
 Parallel job on  1  processors
Processing $rem in /global/common/edison/software/qchem/5.1beta/config/preferences.
 MEM_TOTAL  2000 

Checking the input file for inconsistencies... 	...done.

--------------------------------------------------------------
User input:
--------------------------------------------------------------
$molecule
0 1
O      1.0773961049      0.7064573577      0.0000024139
O     -1.0773962974      0.7064572800      0.0000009521
O     -0.0000002780     -1.2750287894      0.0000021094
C      0.0000001519     -0.0718023607     -0.0000191064
C      2.3249496549      0.0149527341      0.0000035986
H      2.4174592888     -0.6088991431      0.8899285542
H      3.0855755979      0.7920058917     -0.0000359976
$end

$rem
job_type = opt
basis = 6-311++g*
max_scf_cycles = 200
gen_scfman = true
scf_algorithm = gdm
method = wb97xd
geom_opt_max_cycles = 200
$end
--------------------------------------------------------------
 ----------------------------------------------------------------
             Standard Nuclear Orientation (Angstroms)
    I     Atom           X                Y                Z
 ----------------------------------------------------------------
    1      O       0.5778307424    -0.6711953288     0.0220639449
    2      O      -1.5755591872    -0.7118102406    -0.0442122730
    3      O      -0.5378910882     1.2888510067     0.0433589314
    4      C      -0.5141929488     0.0863115777     0.0103262350
    5      C       1.8109526694     0.0434288781     0.0794317129
    6      H       1.9180110203     0.6936383279    -0.7897528501
    7      H       2.5863869197    -0.7188445620     0.0815203363
 ----------------------------------------------------------------
 Molecular Point Group                 C1    NOp =  1
 Largest Abelian Subgroup              C1    NOp =  1
 Nuclear Repulsion Energy =   165.2635029879 hartrees
 There are       19 alpha and       19 beta electrons
 Requested basis set is 6-311++G(d)
 There are 38 shells and 118 basis functions

 Total QAlloc Memory Limit   2000 MB
 Mega-Array Size       188 MB
 MEM_STATIC part       192 MB
 A cutoff of  1.0D-12 yielded    715 shell pairs
 There are      7082 function pairs (      7704 Cartesian)
 
 -------------------------------------------------------
 OpenMP Integral Computing Module                       
 Release: version 1.0, May 2013, Q-Chem Inc. Pittsburgh 
 -------------------------------------------------------
 Integral Job Info:
 Integral job number is                      11
 Integral operator is                         1
 short-range coefficients              22203600
 long-range coefficients              100000000
 Omega coefficients                         200
 if combine SR and LR in K                    1
 Integral screening is                        0
 Integral computing path is                   2
 max size of driver memory is            800000
 size of driver memory is                593474
 size of scratch memory is              2428936
 max col of scratch BK array               1296
 max len of scratch array in speh3          155
 max len of scratch index in speh4           18
 max int batch size is                      520
 min int batch size is                       52
 fixed nKL is                                52
 max L of basis functions is                  2
 order of int derivative is                   0
 number of shells is                         38
 number of basis is                         123
 number of cartesian basis is               123
 number of contracted shell pairs           715
 number of primitive shell pairs           2221
 maxK2 (contraction) of shell pair           36
 max number of K2 of shell pair               1
 max number of CS2 of shell pair            125
 max number of PS2 of shell pair            456
 mem total for path MDJ                  520694
 -------------------------------------------------------
 Smallest overlap matrix eigenvalue = 1.15E-03

 Scale SEOQF with 1.000000e-01/1.000000e-01/1.000000e-01

 Standard Electronic Orientation quadrupole field applied
 Nucleus-field energy     =     0.0000000035 hartrees
 Guess from superposition of atomic densities
 Warning:  Energy on first SCF cycle will be non-variational
 SAD guess density has 38.000000 electrons

 -----------------------------------------------------------------------
  General SCF calculation program by
  Eric Jon Sundstrom, Paul Horn, Yuezhi Mao, Dmitri Zuev, Alec White,
  David Stuck, Shaama M.S., Shane Yost, Joonho Lee, David Small,
  Daniel Levine, Susi Lehtola, Hugh Burton, Evgeny Epifanovsky
 -----------------------------------------------------------------------
 Exchange:     0.2220 Hartree-Fock + 1.0000 wB97X-D + LR-HF
 Correlation:  1.0000 wB97X-D
 Using SG-2 standard quadrature grid
 Dispersion:   Grimme D
 using 32 threads for integral computing
 -------------------------------------------------------
 OpenMP Integral computing Module                
 Release: version 1.0, May 2013, Q-Chem Inc. Pittsburgh 
 -------------------------------------------------------
 using 32 threads for integral computing
 -------------------------------------------------------
 OpenMP Integral computing Module                
 Release: version 1.0, May 2013, Q-Chem Inc. Pittsburgh 
 -------------------------------------------------------
 -------------------------------------------------------
 OpenMP BLAS3 based DFT computing Module                
 Release: version 1.0, May 2013, Q-Chem Inc. Pittsburgh 
 -------------------------------------------------------
 A restricted SCF calculation will be
 performed using Roothaan-Hall, GDM
 SCF converges when RMS gradient is below 1.0e-08
 ---------------------------------------
  Cycle       Energy         DIIS error
 ---------------------------------------
    1    -303.7132438588      5.80e-02  Roothaan Step
 ---------------------------------------
  Cycle       Energy        RMS Gradient
 ---------------------------------------
    1    -302.5572005498      2.47e-01   Descent step
    2    -302.8273081131      7.45e-02   Normal BFGS step
    3    -302.8533578634      1.73e-01   Normal BFGS step
    4    -302.8681588008      6.15e-02   Normal BFGS step
    5    -302.8785752735      4.96e-02   Normal BFGS step
    6    -302.8809147057      1.19e-02   Normal BFGS step
    7    -302.8818607567      1.28e-02   Normal BFGS step
    8    -302.8822092335      5.18e-03   Normal BFGS step
    9    -302.8823807828      4.44e-03   Normal BFGS step
   10    -302.8824557400      3.72e-03   Normal BFGS step
   11    -302.8825489062      3.07e-03   Normal BFGS step
   12    -302.8827181586      5.63e-03   Normal BFGS step
   13    -302.8827663413      1.86e-03   Normal BFGS step
   14    -302.8827874606      4.99e-04   Normal BFGS step
   15    -302.8827893608      1.48e-04   Normal BFGS step
   16    -302.8827895217      8.48e-05   Normal BFGS step
   17    -302.8827895576      4.01e-05   Normal BFGS step
   18    -302.8827895664      2.21e-05   Normal BFGS step
   19    -302.8827895700      8.15e-06   Normal BFGS step
   20    -302.8827895709      5.44e-06   Normal BFGS step
   21    -302.8827895712      1.80e-06   Normal BFGS step
   22    -302.8827895712      4.64e-07   Normal BFGS step
   23    -302.8827895712      1.66e-07   Normal BFGS step
   24    -302.8827895712      4.96e-08   Normal BFGS step
   25    -302.8827895712      1.37e-08   Normal BFGS step
   26    -302.8827895712      1.99e-08   Normal BFGS step
   27    -302.8827895712      3.22e-09  Convergence criterion met
 ---------------------------------------
 SCF time:   CPU 454.33s  wall 16.00s 
 SCF   energy in the final basis set =     -302.8827895712
 
 --------------------------------------------------------------
 
                    Orbital Energies (a.u.)
 --------------------------------------------------------------
 
 Alpha MOs
 -- Occupied --
-19.418 -19.244 -19.242 -10.497 -10.458  -1.308  -1.164  -1.077
 -0.900  -0.737  -0.659  -0.635  -0.589  -0.558  -0.512  -0.476
 -0.407  -0.365  -0.350
 -- Virtual --
 -0.173   0.020   0.053   0.063   0.087   0.114   0.127   0.130
  0.134   0.136   0.154   0.174   0.179   0.191   0.201   0.261
  0.287   0.298   0.310   0.311   0.346   0.359   0.362   0.373
  0.382   0.399   0.405   0.432   0.482   0.500   0.542   0.573
  0.624   0.653   0.658   0.667   0.756   0.807   0.879   0.958
  1.064   1.067   1.143   1.164   1.213   1.225   1.255   1.259
  1.268   1.298   1.346   1.430   1.452   1.505   1.597   1.634
  1.653   1.715   1.777   1.818   1.941   2.009   2.409   2.439
  2.616   2.699   2.821   2.871   2.890   2.921   2.935   2.974
  3.037   3.066   3.197   3.220   3.227   3.329   3.483   3.504
  3.691   3.693   3.893   4.093   4.138   4.970   5.106   5.143
  5.175   5.240   5.264   5.508   5.881   5.936  23.467  23.931
 49.870  50.030  50.135
 --------------------------------------------------------------
 
          Ground-State Mulliken Net Atomic Charges

     Atom                 Charge (a.u.)
  ----------------------------------------
      1 O                     0.117329
      2 O                    -0.310675
      3 O                    -0.317016
      4 C                     0.168059
      5 C                    -0.268151
      6 H                     0.308493
      7 H                     0.301961
  ----------------------------------------
  Sum of atomic charges =    -0.000000

 -----------------------------------------------------------------
                    Cartesian Multipole Moments
 -----------------------------------------------------------------
    Charge (ESU x 10^10)
                 0.0000
    Dipole Moment (Debye)
         X       7.6556      Y      -0.6586      Z      -0.4767
       Tot       7.6986
    Quadrupole Moments (Debye-Ang)
        XX     -23.4036     XY      -1.1773     YY     -33.4498
        XZ      -1.1908     YZ      -0.8194     ZZ     -26.3583
    Octopole Moments (Debye-Ang^2)
       XXX      31.3168    XXY       0.4383    XYY       5.2609
       YYY      -5.2593    XXZ      -1.8556    XYZ      -0.7060
       YYZ      -0.7023    XZZ       0.9654    YZZ       0.0895
       ZZZ      -1.2336
    Hexadecapole Moments (Debye-Ang^3)
      XXXX    -242.7177   XXXY     -13.7349   XXYY     -65.2032
      XYYY      -1.6952   YYYY    -128.7654   XXXZ      -5.2391
      XXYZ      -2.7310   XYYZ      -1.6474   YYYZ      -1.2900
      XXZZ     -47.9407   XYZZ       0.7513   YYZZ     -24.3336
      XZZZ      -2.6918   YZZZ      -1.1293   ZZZZ     -25.8414
 -----------------------------------------------------------------
 Calculating analytic gradient of the SCF energy
 Gradient of SCF Energy
            1           2           3           4           5           6
    1  -0.1446473  -0.0684576  -0.0337889   0.1601985   0.0871370   0.0060285
    2  -0.0226962  -0.0399992  -0.0198891   0.0324263   0.0844817  -0.0306026
    3  -0.0271062  -0.0056131   0.0012082   0.0108095   0.0687228  -0.0218639
            7
    1  -0.0064703
    2  -0.0037209
    3  -0.0261573
 Max gradient component =       1.602E-01
 RMS gradient           =       6.114E-02
 Gradient time:  CPU 31.61 s  wall 2.16 s
 Geometry Optimization Parameters
   NAtoms,    NIC,     NZ,  NCons,   NDum,   NFix, NCnnct, MaxDiis
        7      31       0       0       0       0       0       0


** GEOMETRY OPTIMIZATION IN DELOCALIZED INTERNAL COORDINATES **
   Searching for a Minimum

   Optimization Cycle:   1

                       Coordinates (Angstroms)
     ATOM                X               Y               Z
      1  O         0.5778307424   -0.6711953288    0.0220639449
      2  O        -1.5755591872   -0.7118102406   -0.0442122730
      3  O        -0.5378910882    1.2888510067    0.0433589314
      4  C        -0.5141929488    0.0863115777    0.0103262350
      5  C         1.8109526694    0.0434288781    0.0794317129
      6  H         1.9180110203    0.6936383279   -0.7897528501
      7  H         2.5863869197   -0.7188445620    0.0815203363
   Point Group: c1    Number of degrees of freedom:    15


   Energy is   -302.882789571


 Attempting to Generate Delocalized Internal Coordinates

 15 Hessian modes will be used to form the next step
  Hessian Eigenvalues:
     0.012155    0.025026    0.025026    0.085353    0.160000    0.160000
     0.250000    0.250000    0.250000    0.347272    0.351189    0.415134
     0.597219    0.597220    1.032184

 Minimum Search - Taking Simple RFO Step
 Searching for Lamda that Minimizes Along All modes
 Value Taken    Lamda =  -0.08332989
 Calculated Step too Large.  Step scaled by  0.533700
 Step Taken.  Stepsize is  0.300000

                             Maximum     Tolerance    Cnvgd?
         Gradient           0.120467      0.000300      NO
         Displacement       0.134842      0.001200      NO
         Energy change     *********      0.000001      NO


 New Cartesian Coordinates Obtained by Inverse Iteration

 Displacement from previous Coordinates is:  0.436054
 ----------------------------------------------------------------
             Standard Nuclear Orientation (Angstroms)
    I     Atom           X                Y                Z
 ----------------------------------------------------------------
    1      O       0.5851404741    -0.7284678913     0.0026236617
    2      O      -1.5770290820    -0.6751052385     0.0054713591
    3      O      -0.4275715422     1.2706096141    -0.0168605493
    4      C      -0.5132175236     0.0656235968    -0.0050481084
    5      C       1.7520815687    -0.0126874423     0.0276926863
    6      H       1.8430964002     0.7774345234    -0.7189289417
    7      H       2.6030378324    -0.6870275031     0.1077859297
 ----------------------------------------------------------------
 Molecular Point Group                 C1    NOp =  1
 Largest Abelian Subgroup              C1    NOp =  1
 Nuclear Repulsion Energy =   167.1037361792 hartrees
 There are       19 alpha and       19 beta electrons
 Applying Cartesian multipole field
    Component          Value
    ---------          -----
     (2,0,0)        1.00000E-11
     (0,2,0)        2.00000E-11
     (0,0,2)       -3.00000E-11
 Nucleus-field energy     =     0.0000000034 hartrees
 Requested basis set is 6-311++G(d)
 There are 38 shells and 118 basis functions
 A cutoff of  1.0D-12 yielded    717 shell pairs
 There are      7106 function pairs (      7732 Cartesian)
 Smallest overlap matrix eigenvalue = 1.04E-03
 Guess MOs from SCF MO coefficient file
 Reading MOs from coefficient file
 Reading MOs from coefficient file

 -----------------------------------------------------------------------
  General SCF calculation program by
  Eric Jon Sundstrom, Paul Horn, Yuezhi Mao, Dmitri Zuev, Alec White,
  David Stuck, Shaama M.S., Shane Yost, Joonho Lee, David Small,
  Daniel Levine, Susi Lehtola, Hugh Burton, Evgeny Epifanovsky
 -----------------------------------------------------------------------
 Exchange:     0.2220 Hartree-Fock + 1.0000 wB97X-D + LR-HF
 Correlation:  1.0000 wB97X-D
 Using SG-2 standard quadrature grid
 Dispersion:   Grimme D
 using 32 threads for integral computing
 -------------------------------------------------------
 OpenMP Integral computing Module                
 Release: version 1.0, May 2013, Q-Chem Inc. Pittsburgh 
 -------------------------------------------------------
 using 32 threads for integral computing
 -------------------------------------------------------
 OpenMP Integral computing Module                
 Release: version 1.0, May 2013, Q-Chem Inc. Pittsburgh 
 -------------------------------------------------------
 -------------------------------------------------------
 OpenMP BLAS3 based DFT computing Module                
 Release: version 1.0, May 2013, Q-Chem Inc. Pittsburgh 
 -------------------------------------------------------
 A restricted SCF calculation will be
 performed using Roothaan-Hall, GDM
 SCF converges when RMS gradient is below 1.0e-08
 ---------------------------------------
  Cycle       Energy         DIIS error
 ---------------------------------------
    1    -302.9064483120      2.53e-03  Roothaan Step
 ---------------------------------------
  Cycle       Energy        RMS Gradient
 ---------------------------------------
    1    -302.9228252172      1.20e-02   Normal BFGS step
    2    -302.9235000104      2.27e-02   Normal BFGS step
    3    -302.9244688945      3.50e-03   Normal BFGS step
    4    -302.9245758624      2.13e-03   Normal BFGS step
    5    -302.9246053145      1.59e-03   Normal BFGS step
    6    -302.9246180751      5.58e-04   Normal BFGS step
    7    -302.9246224224      3.27e-04   Normal BFGS step
    8    -302.9246233144      2.39e-04   Normal BFGS step
    9    -302.9246237840      2.33e-04   Normal BFGS step
   10    -302.9246239570      1.18e-04   Normal BFGS step
   11    -302.9246240733      6.46e-05   Normal BFGS step
   12    -302.9246241252      3.49e-05   Normal BFGS step
   13    -302.9246241378      1.80e-05   Normal BFGS step
   14    -302.9246241396      1.05e-05   Normal BFGS step
   15    -302.9246241402      5.15e-06   Normal BFGS step
   16    -302.9246241404      1.32e-06   Normal BFGS step
   17    -302.9246241404      3.04e-07   Normal BFGS step
   18    -302.9246241404      7.31e-08   Normal BFGS step
   19    -302.9246241404      2.73e-08   Normal BFGS step
   20    -302.9246241404      3.85e-08   Normal BFGS step
   21    -302.9246241404      7.20e-09  Convergence criterion met
 ---------------------------------------
 SCF time:   CPU 362.52s  wall 12.00s 
 SCF   energy in the final basis set =     -302.9246241404
 
 --------------------------------------------------------------
 
                    Orbital Energies (a.u.)
 --------------------------------------------------------------
 
 Alpha MOs
 -- Occupied --
-19.423 -19.233 -19.226 -10.507 -10.450  -1.318  -1.158  -1.080
 -0.899  -0.750  -0.674  -0.641  -0.590  -0.553  -0.510  -0.480
 -0.402  -0.361  -0.346
 -- Virtual --
 -0.152   0.018   0.051   0.067   0.086   0.123   0.128   0.131
  0.135   0.138   0.152   0.181   0.187   0.196   0.206   0.257
  0.291   0.298   0.313   0.316   0.348   0.357   0.366   0.373
  0.384   0.403   0.409   0.436   0.495   0.507   0.528   0.580
  0.616   0.660   0.663   0.669   0.768   0.816   0.882   0.957
  1.063   1.079   1.147   1.147   1.215   1.235   1.254   1.260
  1.270   1.302   1.353   1.412   1.471   1.504   1.587   1.637
  1.656   1.728   1.792   1.832   1.932   2.036   2.395   2.422
  2.622   2.671   2.882   2.898   2.911   2.928   2.951   3.003
  3.043   3.084   3.196   3.216   3.282   3.357   3.497   3.541
  3.674   3.728   3.898   4.096   4.135   4.965   5.121   5.154
  5.194   5.264   5.276   5.535   5.893   5.953  23.505  23.948
 49.864  50.057  50.145
 --------------------------------------------------------------
 
          Ground-State Mulliken Net Atomic Charges

     Atom                 Charge (a.u.)
  ----------------------------------------
      1 O                     0.126199
      2 O                    -0.346769
      3 O                    -0.349948
      4 C                     0.179853
      5 C                    -0.224622
      6 H                     0.303710
      7 H                     0.311577
  ----------------------------------------
  Sum of atomic charges =    -0.000000

 -----------------------------------------------------------------
                    Cartesian Multipole Moments
 -----------------------------------------------------------------
    Charge (ESU x 10^10)
                -0.0000
    Dipole Moment (Debye)
         X       8.1330      Y      -0.7436      Z      -0.4471
       Tot       8.1792
    Quadrupole Moments (Debye-Ang)
        XX     -22.9568     XY      -1.3388     YY     -33.3571
        XZ      -0.7885     YZ      -0.5009     ZZ     -26.3495
    Octopole Moments (Debye-Ang^2)
       XXX      32.6592    XXY       1.4273    XYY       5.1915
       YYY      -3.5802    XXZ      -1.1665    XYZ      -1.0904
       YYZ      -0.2791    XZZ       0.9602    YZZ       0.4701
       ZZZ       0.2891
    Hexadecapole Moments (Debye-Ang^3)
      XXXX    -228.1208   XXXY     -14.2071   XXYY     -62.4170
      XYYY      -1.0974   YYYY    -128.1807   XXXZ      -1.0652
      XXYZ      -1.8938   XYYZ      -1.0052   YYYZ       1.0466
      XXZZ     -46.0713   XYZZ       0.6381   YYZZ     -24.0320
      XZZZ      -0.1462   YZZZ       1.0756   ZZZZ     -25.0315
 -----------------------------------------------------------------
 Calculating analytic gradient of the SCF energy
 Gradient of SCF Energy
            1           2           3           4           5           6
    1  -0.1412419  -0.0659980  -0.0299084   0.1625593   0.0682484   0.0076336
    2  -0.0219550  -0.0337203  -0.0143671   0.0166702   0.0764977  -0.0188981
    3  -0.0238101  -0.0019673   0.0003681   0.0083445   0.0604730  -0.0229147
            7
    1  -0.0012931
    2  -0.0042274
    3  -0.0204937
 Max gradient component =       1.626E-01
 RMS gradient           =       5.770E-02
 Gradient time:  CPU 31.72 s  wall 1.40 s
 Geometry Optimization Parameters
   NAtoms,    NIC,     NZ,  NCons,   NDum,   NFix, NCnnct, MaxDiis
        7      31       0       0       0       0       0       0

 Cartesian Hessian Update
 Hessian Updated using BFGS Update


** GEOMETRY OPTIMIZATION IN DELOCALIZED INTERNAL COORDINATES **
   Searching for a Minimum

   Optimization Cycle:   2

                       Coordinates (Angstroms)
     ATOM                X               Y               Z
      1  O         0.5851404741   -0.7284678913    0.0026236617
      2  O        -1.5770290820   -0.6751052385    0.0054713591
      3  O        -0.4275715422    1.2706096141   -0.0168605493
      4  C        -0.5132175236    0.0656235968   -0.0050481084
      5  C         1.7520815687   -0.0126874423    0.0276926863
      6  H         1.8430964002    0.7774345234   -0.7189289417
      7  H         2.6030378324   -0.6870275031    0.1077859297
   Point Group: c1    Number of degrees of freedom:    15


   Energy is   -302.924624140

 Hessian Updated using BFGS Update

 14 Hessian modes will be used to form the next step
  Hessian Eigenvalues:
     0.012443    0.023597    0.025369    0.050769    0.150564    0.160278
     0.186591    0.287915    0.333274    0.349456    0.356939    0.545264
     0.627941    1.029777

 Minimum Search - Taking Simple RFO Step
 Searching for Lamda that Minimizes Along All modes
 Value Taken    Lamda =  -0.12113808
 Calculated Step too Large.  Step scaled by  0.375531
 Step Taken.  Stepsize is  0.300000

                             Maximum     Tolerance    Cnvgd?
         Gradient           0.117870      0.000300      NO
         Displacement       0.190903      0.001200      NO
         Energy change     -0.041835      0.000001      NO


 New Cartesian Coordinates Obtained by Inverse Iteration

 Displacement from previous Coordinates is:  0.302533
 ----------------------------------------------------------------
             Standard Nuclear Orientation (Angstroms)
    I     Atom           X                Y                Z
 ----------------------------------------------------------------
    1      O       0.6186187232    -0.7491685071    -0.0215945554
    2      O      -1.5506770086    -0.6523185507     0.0407161112
    3      O      -0.3661345691     1.2651283976    -0.0390614491
    4      C      -0.5313064904     0.0612249704    -0.0236604541
    5      C       1.7084572411    -0.0626372454    -0.0279276865
    6      H       1.7871825010     0.8110103134    -0.6708388896
    7      H       2.5993977305    -0.6628597191     0.1451029608
 ----------------------------------------------------------------
 Molecular Point Group                 C1    NOp =  1
 Largest Abelian Subgroup              C1    NOp =  1
 Nuclear Repulsion Energy =   169.0046015755 hartrees
 There are       19 alpha and       19 beta electrons
 Applying Cartesian multipole field
    Component          Value
    ---------          -----
     (2,0,0)        1.00000E-11
     (0,2,0)        2.00000E-11
     (0,0,2)       -3.00000E-11
 Nucleus-field energy     =     0.0000000034 hartrees
 Requested basis set is 6-311++G(d)
 There are 38 shells and 118 basis functions
 A cutoff of  1.0D-12 yielded    718 shell pairs
 There are      7111 function pairs (      7738 Cartesian)
 Smallest overlap matrix eigenvalue = 8.70E-04
 Guess MOs from SCF MO coefficient file
 Reading MOs from coefficient file
 Reading MOs from coefficient file

 -----------------------------------------------------------------------
  General SCF calculation program by
  Eric Jon Sundstrom, Paul Horn, Yuezhi Mao, Dmitri Zuev, Alec White,
  David Stuck, Shaama M.S., Shane Yost, Joonho Lee, David Small,
  Daniel Levine, Susi Lehtola, Hugh Burton, Evgeny Epifanovsky
 -----------------------------------------------------------------------
 Exchange:     0.2220 Hartree-Fock + 1.0000 wB97X-D + LR-HF
 Correlation:  1.0000 wB97X-D
 Using SG-2 standard quadrature grid
 Dispersion:   Grimme D
 using 32 threads for integral computing
 -------------------------------------------------------
 OpenMP Integral computing Module                
 Release: version 1.0, May 2013, Q-Chem Inc. Pittsburgh 
 -------------------------------------------------------
 using 32 threads for integral computing
 -------------------------------------------------------
 OpenMP Integral computing Module                
 Release: version 1.0, May 2013, Q-Chem Inc. Pittsburgh 
 -------------------------------------------------------
 -------------------------------------------------------
 OpenMP BLAS3 based DFT computing Module                
 Release: version 1.0, May 2013, Q-Chem Inc. Pittsburgh 
 -------------------------------------------------------
 A restricted SCF calculation will be
 performed using Roothaan-Hall, GDM
 SCF converges when RMS gradient is below 1.0e-08
 ---------------------------------------
  Cycle       Energy         DIIS error
 ---------------------------------------
    1    -302.9473390568      2.54e-03  Roothaan Step
 ---------------------------------------
  Cycle       Energy        RMS Gradient
 ---------------------------------------
    1    -302.9625960477      1.10e-02   Normal BFGS step
    2    -302.9635808708      1.75e-02   Normal BFGS step
    3    -302.9645819699      4.11e-03   Normal BFGS step
    4    -302.9647136000      2.08e-03   Normal BFGS step
    5    -302.9647654958      1.35e-03   Normal BFGS step
    6    -302.9647764060      7.88e-04   Normal BFGS step
    7    -302.9647834846      3.02e-04   Normal BFGS step
    8    -302.9647840611      1.92e-04   Normal BFGS step
    9    -302.9647843515      1.32e-04   Normal BFGS step
   10    -302.9647844261      7.82e-05   Normal BFGS step
   11    -302.9647844625      2.95e-05   Normal BFGS step
   12    -302.9647844713      6.65e-06   Normal BFGS step
   13    -302.9647844722      3.53e-06   Normal BFGS step
   14    -302.9647844722      1.98e-06   Normal BFGS step
   15    -302.9647844723      7.93e-07   Normal BFGS step
   16    -302.9647844723      1.89e-07   Normal BFGS step
   17    -302.9647844723      4.40e-08   Normal BFGS step
   18    -302.9647844723      1.25e-08   Normal BFGS step
   19    -302.9647844723      4.24e-09  Convergence criterion met
 ---------------------------------------
 SCF time:   CPU 328.20s  wall 12.00s 
 SCF   energy in the final basis set =     -302.9647844723
 
 --------------------------------------------------------------
 
                    Orbital Energies (a.u.)
 --------------------------------------------------------------
 
 Alpha MOs
 -- Occupied --
-19.421 -19.223 -19.217 -10.504 -10.442  -1.331  -1.160  -1.092
 -0.893  -0.759  -0.687  -0.647  -0.587  -0.544  -0.512  -0.488
 -0.400  -0.361  -0.348
 -- Virtual --
 -0.124   0.018   0.051   0.070   0.087   0.127   0.130   0.132
  0.136   0.140   0.148   0.182   0.185   0.218   0.236   0.251
  0.300   0.302   0.313   0.320   0.348   0.357   0.369   0.376
  0.380   0.401   0.409   0.439   0.492   0.530   0.535   0.593
  0.618   0.671   0.676   0.698   0.782   0.824   0.896   0.959
  1.065   1.098   1.130   1.150   1.209   1.243   1.250   1.263
  1.278   1.307   1.346   1.402   1.488   1.498   1.571   1.628
  1.663   1.743   1.814   1.862   1.923   2.094   2.404   2.428
  2.630   2.655   2.888   2.907   2.927   2.953   2.991   3.031
  3.062   3.137   3.202   3.225   3.375   3.377   3.535   3.578
  3.650   3.757   3.899   4.094   4.112   4.965   5.135   5.162
  5.212   5.262   5.292   5.584   5.897   5.971  23.614  23.998
 49.875  50.085  50.159
 --------------------------------------------------------------
 
          Ground-State Mulliken Net Atomic Charges

     Atom                 Charge (a.u.)
  ----------------------------------------
      1 O                     0.126601
      2 O                    -0.360197
      3 O                    -0.383973
      4 C                     0.205497
      5 C                    -0.202435
      6 H                     0.301483
      7 H                     0.313024
  ----------------------------------------
  Sum of atomic charges =    -0.000000

 -----------------------------------------------------------------
                    Cartesian Multipole Moments
 -----------------------------------------------------------------
    Charge (ESU x 10^10)
                -0.0000
    Dipole Moment (Debye)
         X       8.1472      Y      -0.9257      Z      -0.5008
       Tot       8.2149
    Quadrupole Moments (Debye-Ang)
        XX     -22.6729     XY      -1.3858     YY     -33.2810
        XZ      -0.5014     YZ      -0.2523     ZZ     -26.2222
    Octopole Moments (Debye-Ang^2)
       XXX      31.1132    XXY       1.7676    XYY       4.7953
       YYY      -3.2191    XXZ      -0.6303    XYZ      -1.1904
       YYZ       0.1190    XZZ       0.8635    YZZ       0.4341
       ZZZ       1.5023
    Hexadecapole Moments (Debye-Ang^3)
      XXXX    -218.4122   XXXY     -12.5320   XXYY     -60.6228
      XYYY       0.8350   YYYY    -127.7543   XXXZ       2.4554
      XXYZ      -1.3726   XYYZ      -0.1620   YYYZ       2.0827
      XXZZ     -44.2907   XYZZ       0.8103   YYZZ     -23.8957
      XZZZ       2.1575   YZZZ       2.0246   ZZZZ     -24.5650
 -----------------------------------------------------------------
 Calculating analytic gradient of the SCF energy
 Gradient of SCF Energy
            1           2           3           4           5           6
    1  -0.1061202  -0.0413047  -0.0222190   0.1365363   0.0256801   0.0079895
    2  -0.0053809  -0.0159195  -0.0034501  -0.0137665   0.0562333  -0.0147593
    3  -0.0204615   0.0018290   0.0025219   0.0023057   0.0472541  -0.0196679
            7
    1  -0.0005620
    2  -0.0029569
    3  -0.0137813
 Max gradient component =       1.365E-01
 RMS gradient           =       4.361E-02
 Gradient time:  CPU 31.69 s  wall 1.39 s
 Geometry Optimization Parameters
   NAtoms,    NIC,     NZ,  NCons,   NDum,   NFix, NCnnct, MaxDiis
        7      31       0       0       0       0       0       0

 Cartesian Hessian Update
 Hessian Updated using BFGS Update


** GEOMETRY OPTIMIZATION IN DELOCALIZED INTERNAL COORDINATES **
   Searching for a Minimum

   Optimization Cycle:   3

                       Coordinates (Angstroms)
     ATOM                X               Y               Z
      1  O         0.6186187232   -0.7491685071   -0.0215945554
      2  O        -1.5506770086   -0.6523185507    0.0407161112
      3  O        -0.3661345691    1.2651283976   -0.0390614491
      4  C        -0.5313064904    0.0612249704   -0.0236604541
      5  C         1.7084572411   -0.0626372454   -0.0279276865
      6  H         1.7871825010    0.8110103134   -0.6708388896
      7  H         2.5993977305   -0.6628597191    0.1451029608
   Point Group: c1    Number of degrees of freedom:    15


   Energy is   -302.964784472

 Hessian Updated using BFGS Update

 15 Hessian modes will be used to form the next step
  Hessian Eigenvalues:
     0.012129    0.025066    0.026445    0.068682    0.151783    0.160561
     0.194836    0.250013    0.322622    0.335114    0.349472    0.357181
     0.534013    0.735833    1.037042

 Minimum Search - Taking Simple RFO Step
 Searching for Lamda that Minimizes Along All modes
 Value Taken    Lamda =  -0.07900693
 Calculated Step too Large.  Step scaled by  0.425716
 Step Taken.  Stepsize is  0.300000

                             Maximum     Tolerance    Cnvgd?
         Gradient           0.094100      0.000300      NO
         Displacement       0.177514      0.001200      NO
         Energy change     -0.040160      0.000001      NO


 New Cartesian Coordinates Obtained by Inverse Iteration

 Displacement from previous Coordinates is:  0.303252
 ----------------------------------------------------------------
             Standard Nuclear Orientation (Angstroms)
    I     Atom           X                Y                Z
 ----------------------------------------------------------------
    1      O       0.6499203345    -0.7476031759    -0.0327218034
    2      O      -1.5423807382    -0.6470088927     0.0802774698
    3      O      -0.3653700216     1.2680402776    -0.1074560555
    4      C      -0.5761181739     0.0703708072    -0.0138534056
    5      C       1.7076416697    -0.1142668447    -0.0871197820
    6      H       1.7768337833     0.8514743987    -0.5820128192
    7      H       2.6150112738    -0.6706269111     0.1456224333
 ----------------------------------------------------------------
 Molecular Point Group                 C1    NOp =  1
 Largest Abelian Subgroup              C1    NOp =  1
 Nuclear Repulsion Energy =   169.1173603764 hartrees
 There are       19 alpha and       19 beta electrons
 Applying Cartesian multipole field
    Component          Value
    ---------          -----
     (2,0,0)        1.00000E-11
     (0,2,0)        2.00000E-11
     (0,0,2)       -3.00000E-11
 Nucleus-field energy     =     0.0000000034 hartrees
 Requested basis set is 6-311++G(d)
 There are 38 shells and 118 basis functions
 A cutoff of  1.0D-12 yielded    718 shell pairs
 There are      7111 function pairs (      7738 Cartesian)
 Smallest overlap matrix eigenvalue = 8.43E-04
 Guess MOs from SCF MO coefficient file
 Reading MOs from coefficient file
 Reading MOs from coefficient file

 -----------------------------------------------------------------------
  General SCF calculation program by
  Eric Jon Sundstrom, Paul Horn, Yuezhi Mao, Dmitri Zuev, Alec White,
  David Stuck, Shaama M.S., Shane Yost, Joonho Lee, David Small,
  Daniel Levine, Susi Lehtola, Hugh Burton, Evgeny Epifanovsky
 -----------------------------------------------------------------------
 Exchange:     0.2220 Hartree-Fock + 1.0000 wB97X-D + LR-HF
 Correlation:  1.0000 wB97X-D
 Using SG-2 standard quadrature grid
 Dispersion:   Grimme D
 using 32 threads for integral computing
 -------------------------------------------------------
 OpenMP Integral computing Module                
 Release: version 1.0, May 2013, Q-Chem Inc. Pittsburgh 
 -------------------------------------------------------
 using 32 threads for integral computing
 -------------------------------------------------------
 OpenMP Integral computing Module                
 Release: version 1.0, May 2013, Q-Chem Inc. Pittsburgh 
 -------------------------------------------------------
 -------------------------------------------------------
 OpenMP BLAS3 based DFT computing Module                
 Release: version 1.0, May 2013, Q-Chem Inc. Pittsburgh 
 -------------------------------------------------------
 A restricted SCF calculation will be
 performed using Roothaan-Hall, GDM
 SCF converges when RMS gradient is below 1.0e-08
 ---------------------------------------
  Cycle       Energy         DIIS error
 ---------------------------------------
    1    -302.9753384167      2.53e-03  Roothaan Step
 ---------------------------------------
  Cycle       Energy        RMS Gradient
 ---------------------------------------
    1    -302.9904666614      1.06e-02   Normal BFGS step
    2    -302.9914360504      1.15e-02   Normal BFGS step
    3    -302.9923074859      3.30e-03   Normal BFGS step
    4    -302.9924155101      2.54e-03   Normal BFGS step
    5    -302.9924544614      1.36e-03   Normal BFGS step
    6    -302.9924600576      7.82e-04   Normal BFGS step
    7    -302.9924648205      1.67e-04   Normal BFGS step
    8    -302.9924650645      9.96e-05   Normal BFGS step
    9    -302.9924651480      6.09e-05   Normal BFGS step
   10    -302.9924651612      2.83e-05   Normal BFGS step
   11    -302.9924651671      7.95e-06   Normal BFGS step
   12    -302.9924651677      2.80e-06   Normal BFGS step
   13    -302.9924651678      7.07e-07   Normal BFGS step
   14    -302.9924651678      2.31e-07   Normal BFGS step
   15    -302.9924651678      1.26e-07   Normal BFGS step
   16    -302.9924651678      5.20e-08   Normal BFGS step
   17    -302.9924651678      1.38e-08   Normal BFGS step
   18    -302.9924651678      1.61e-08   Normal BFGS step
   19    -302.9924651678      2.40e-09  Convergence criterion met
 ---------------------------------------
 SCF time:   CPU 335.51s  wall 12.00s 
 SCF   energy in the final basis set =     -302.9924651678
 
 --------------------------------------------------------------
 
                    Orbital Energies (a.u.)
 --------------------------------------------------------------
 
 Alpha MOs
 -- Occupied --
-19.409 -19.221 -19.220 -10.491 -10.439  -1.330  -1.170  -1.104
 -0.877  -0.756  -0.688  -0.642  -0.585  -0.539  -0.517  -0.498
 -0.405  -0.367  -0.356
 -- Virtual --
 -0.095   0.020   0.053   0.073   0.088   0.126   0.130   0.135
  0.137   0.144   0.146   0.184   0.185   0.218   0.248   0.254
  0.302   0.306   0.315   0.325   0.347   0.357   0.369   0.373
  0.386   0.401   0.408   0.439   0.495   0.535   0.548   0.596
  0.634   0.673   0.690   0.741   0.791   0.831   0.918   0.966
  1.061   1.128   1.141   1.153   1.202   1.236   1.243   1.267
  1.280   1.308   1.333   1.428   1.484   1.499   1.550   1.630
  1.646   1.759   1.813   1.896   1.931   2.150   2.423   2.430
  2.633   2.659   2.831   2.883   2.921   2.948   3.005   3.067
  3.093   3.171   3.233   3.256   3.373   3.434   3.578   3.591
  3.632   3.764   3.891   4.076   4.086   4.971   5.139   5.161
  5.217   5.244   5.278   5.613   5.889   5.974  23.723  24.064
 49.900  50.097  50.167
 --------------------------------------------------------------
 
          Ground-State Mulliken Net Atomic Charges

     Atom                 Charge (a.u.)
  ----------------------------------------
      1 O                     0.097937
      2 O                    -0.347060
      3 O                    -0.404089
      4 C                     0.245179
      5 C                    -0.194295
      6 H                     0.299821
      7 H                     0.302507
  ----------------------------------------
  Sum of atomic charges =    -0.000000

 -----------------------------------------------------------------
                    Cartesian Multipole Moments
 -----------------------------------------------------------------
    Charge (ESU x 10^10)
                 0.0000
    Dipole Moment (Debye)
         X       7.7556      Y      -1.0114      Z      -0.4237
       Tot       7.8327
    Quadrupole Moments (Debye-Ang)
        XX     -22.4244     XY      -1.3131     YY     -33.0972
        XZ      -0.3754     YZ       0.2034     ZZ     -26.2360
    Octopole Moments (Debye-Ang^2)
       XXX      29.5331    XXY       1.7787    XYY       4.7087
       YYY      -2.9442    XXZ      -0.3409    XYZ      -1.2475
       YYZ       0.7528    XZZ       0.6435    YZZ       0.2363
       ZZZ       2.8818
    Hexadecapole Moments (Debye-Ang^3)
      XXXX    -219.0944   XXXY     -10.1272   XXYY     -60.5712
      XYYY       3.7177   YYYY    -127.7325   XXXZ       5.3204
      XXYZ      -0.2554   XYYZ       0.6742   YYYZ       4.2282
      XXZZ     -44.5557   XYZZ       1.1575   YYZZ     -24.0502
      XZZZ       4.4897   YZZZ       4.0517   ZZZZ     -24.7017
 -----------------------------------------------------------------
 Calculating analytic gradient of the SCF energy
 Gradient of SCF Energy
            1           2           3           4           5           6
    1  -0.0643947  -0.0137983  -0.0133806   0.0946466  -0.0111741   0.0082821
    2   0.0195682   0.0042545   0.0091739  -0.0477630   0.0234187  -0.0089754
    3  -0.0160170  -0.0032337  -0.0013662   0.0123630   0.0251289  -0.0125483
            7
    1  -0.0001810
    2   0.0003232
    3  -0.0043267
 Max gradient component =       9.465E-02
 RMS gradient           =       2.951E-02
 Gradient time:  CPU 31.87 s  wall 1.37 s
 Geometry Optimization Parameters
   NAtoms,    NIC,     NZ,  NCons,   NDum,   NFix, NCnnct, MaxDiis
        7      31       0       0       0       0       0       0

 Cartesian Hessian Update
 Hessian Updated using BFGS Update


** GEOMETRY OPTIMIZATION IN DELOCALIZED INTERNAL COORDINATES **
   Searching for a Minimum

   Optimization Cycle:   4

                       Coordinates (Angstroms)
     ATOM                X               Y               Z
      1  O         0.6499203345   -0.7476031759   -0.0327218034
      2  O        -1.5423807382   -0.6470088927    0.0802774698
      3  O        -0.3653700216    1.2680402776   -0.1074560555
      4  C        -0.5761181739    0.0703708072   -0.0138534056
      5  C         1.7076416697   -0.1142668447   -0.0871197820
      6  H         1.7768337833    0.8514743987   -0.5820128192
      7  H         2.6150112738   -0.6706269111    0.1456224333
   Point Group: c1    Number of degrees of freedom:    15


   Energy is   -302.992465168

 Hessian Updated using BFGS Update

 15 Hessian modes will be used to form the next step
  Hessian Eigenvalues:
     0.012175    0.025080    0.027809    0.097894    0.155189    0.169595
     0.180426    0.252976    0.325380    0.335247    0.349835    0.363415
     0.529253    0.845480    1.069853

 Minimum Search - Taking Simple RFO Step
 Searching for Lamda that Minimizes Along All modes
 Value Taken    Lamda =  -0.04505904
 Calculated Step too Large.  Step scaled by  0.476588
 Step Taken.  Stepsize is  0.300000

                             Maximum     Tolerance    Cnvgd?
         Gradient           0.064294      0.000300      NO
         Displacement       0.165937      0.001200      NO
         Energy change     -0.027681      0.000001      NO


 New Cartesian Coordinates Obtained by Inverse Iteration

 Displacement from previous Coordinates is:  0.350903
 ----------------------------------------------------------------
             Standard Nuclear Orientation (Angstroms)
    I     Atom           X                Y                Z
 ----------------------------------------------------------------
    1      O       0.6735855508    -0.7516456358    -0.0562866908
    2      O      -1.5406924843    -0.6409899226     0.1653157751
    3      O      -0.3674512050     1.2684001148    -0.1627251833
    4      C      -0.6297036197     0.0814184281    -0.0739638782
    5      C       1.7228671288    -0.1509442710    -0.1362294889
    6      H       1.7706864941     0.8830296670    -0.4777554183
    7      H       2.6362462631    -0.6788887214     0.1443809218
 ----------------------------------------------------------------
 Molecular Point Group                 C1    NOp =  1
 Largest Abelian Subgroup              C1    NOp =  1
 Nuclear Repulsion Energy =   168.2290376721 hartrees
 There are       19 alpha and       19 beta electrons
 Applying Cartesian multipole field
    Component          Value
    ---------          -----
     (2,0,0)        1.00000E-11
     (0,2,0)        2.00000E-11
     (0,0,2)       -3.00000E-11
 Nucleus-field energy     =     0.0000000034 hartrees
 Requested basis set is 6-311++G(d)
 There are 38 shells and 118 basis functions
 A cutoff of  1.0D-12 yielded    716 shell pairs
 There are      7103 function pairs (      7730 Cartesian)
 Smallest overlap matrix eigenvalue = 9.38E-04
 Guess MOs from SCF MO coefficient file
 Reading MOs from coefficient file
 Reading MOs from coefficient file

 -----------------------------------------------------------------------
  General SCF calculation program by
  Eric Jon Sundstrom, Paul Horn, Yuezhi Mao, Dmitri Zuev, Alec White,
  David Stuck, Shaama M.S., Shane Yost, Joonho Lee, David Small,
  Daniel Levine, Susi Lehtola, Hugh Burton, Evgeny Epifanovsky
 -----------------------------------------------------------------------
 Exchange:     0.2220 Hartree-Fock + 1.0000 wB97X-D + LR-HF
 Correlation:  1.0000 wB97X-D
 Using SG-2 standard quadrature grid
 Dispersion:   Grimme D
 using 32 threads for integral computing
 -------------------------------------------------------
 OpenMP Integral computing Module                
 Release: version 1.0, May 2013, Q-Chem Inc. Pittsburgh 
 -------------------------------------------------------
 using 32 threads for integral computing
 -------------------------------------------------------
 OpenMP Integral computing Module                
 Release: version 1.0, May 2013, Q-Chem Inc. Pittsburgh 
 -------------------------------------------------------
 -------------------------------------------------------
 OpenMP BLAS3 based DFT computing Module                
 Release: version 1.0, May 2013, Q-Chem Inc. Pittsburgh 
 -------------------------------------------------------
 A restricted SCF calculation will be
 performed using Roothaan-Hall, GDM
 SCF converges when RMS gradient is below 1.0e-08
 ---------------------------------------
  Cycle       Energy         DIIS error
 ---------------------------------------
    1    -302.9883468397      2.75e-03  Roothaan Step
 ---------------------------------------
  Cycle       Energy        RMS Gradient
 ---------------------------------------
    1    -303.0064696693      8.17e-03   Normal BFGS step
    2    -303.0075272504      8.62e-03   Normal BFGS step
    3    -303.0077014362      5.73e-03   Normal BFGS step
    4    -303.0078299569      9.88e-04   Normal BFGS step
    5    -303.0078372554      5.54e-04   Normal BFGS step
    6    -303.0078394015      2.71e-04   Normal BFGS step
    7    -303.0078396957      1.46e-04   Normal BFGS step
    8    -303.0078398019      3.29e-05   Normal BFGS step
    9    -303.0078398111      1.44e-05   Normal BFGS step
   10    -303.0078398128      7.27e-06   Normal BFGS step
   11    -303.0078398129      5.17e-06   Normal BFGS step
   12    -303.0078398132      1.05e-06   Normal BFGS step
   13    -303.0078398132      4.67e-07   Normal BFGS step
   14    -303.0078398132      1.51e-07   Normal BFGS step
   15    -303.0078398132      4.27e-08   Normal BFGS step
   16    -303.0078398132      1.03e-08   Normal BFGS step
   17    -303.0078398132      2.19e-09  Convergence criterion met
 ---------------------------------------
 SCF time:   CPU 296.15s  wall 10.00s 
 SCF   energy in the final basis set =     -303.0078398132
 
 --------------------------------------------------------------
 
                    Orbital Energies (a.u.)
 --------------------------------------------------------------
 
 Alpha MOs
 -- Occupied --
-19.392 -19.231 -19.229 -10.475 -10.440  -1.316  -1.182  -1.117
 -0.855  -0.743  -0.679  -0.627  -0.589  -0.539  -0.522  -0.505
 -0.412  -0.376  -0.367
 -- Virtual --
 -0.073   0.023   0.057   0.073   0.091   0.120   0.130   0.132
  0.139   0.141   0.150   0.184   0.189   0.203   0.251   0.266
  0.301   0.303   0.310   0.329   0.344   0.353   0.363   0.379
  0.392   0.403   0.410   0.438   0.504   0.528   0.557   0.597
  0.647   0.674   0.700   0.762   0.788   0.836   0.931   0.968
  1.056   1.121   1.149   1.184   1.200   1.230   1.240   1.250
  1.280   1.296   1.338   1.447   1.487   1.510   1.532   1.621
  1.627   1.779   1.818   1.862   1.963   2.196   2.421   2.446
  2.638   2.676   2.771   2.869   2.911   2.936   3.006   3.056
  3.090   3.214   3.236   3.287   3.355   3.451   3.572   3.596
  3.637   3.758   3.880   4.043   4.066   4.980   5.140   5.157
  5.214   5.216   5.257   5.623   5.863   5.964  23.779  24.121
 49.927  50.098  50.155
 --------------------------------------------------------------
 
          Ground-State Mulliken Net Atomic Charges

     Atom                 Charge (a.u.)
  ----------------------------------------
      1 O                     0.056866
      2 O                    -0.324235
      3 O                    -0.399919
      4 C                     0.279335
      5 C                    -0.193990
      6 H                     0.297060
      7 H                     0.284884
  ----------------------------------------
  Sum of atomic charges =     0.000000

 -----------------------------------------------------------------
                    Cartesian Multipole Moments
 -----------------------------------------------------------------
    Charge (ESU x 10^10)
                -0.0000
    Dipole Moment (Debye)
         X       7.0880      Y      -0.9326      Z      -0.5308
       Tot       7.1688
    Quadrupole Moments (Debye-Ang)
        XX     -22.2721     XY      -1.2309     YY     -32.8180
        XZ       0.0071     YZ       0.6619     ZZ     -26.3670
    Octopole Moments (Debye-Ang^2)
       XXX      27.4439    XXY       1.6925    XYY       4.3420
       YYY      -2.2322    XXZ      -0.0757    XYZ      -1.2698
       YYZ       1.6500    XZZ       0.2840    YZZ       0.0731
       ZZZ       4.3268
    Hexadecapole Moments (Debye-Ang^3)
      XXXX    -223.7378   XXXY      -8.3397   XXYY     -61.1552
      XYYY       6.1594   YYYY    -127.1544   XXXZ       8.8166
      XXYZ       0.8632   XYYZ       1.7178   YYYZ       6.5423
      XXZZ     -45.7810   XYZZ       1.4045   YYZZ     -24.4488
      XZZZ       7.1359   YZZZ       6.0716   ZZZZ     -26.0197
 -----------------------------------------------------------------
 Calculating analytic gradient of the SCF energy
 Gradient of SCF Energy
            1           2           3           4           5           6
    1  -0.0395536   0.0022487  -0.0034379   0.0581075  -0.0231501   0.0060324
    2   0.0362589   0.0145669   0.0166213  -0.0661771  -0.0006351  -0.0033389
    3  -0.0029664   0.0063079   0.0097044  -0.0146294   0.0017415  -0.0028689
            7
    1  -0.0002470
    2   0.0027039
    3   0.0027110
 Max gradient component =       6.618E-02
 RMS gradient           =       2.401E-02
 Gradient time:  CPU 29.71 s  wall 1.26 s
 Geometry Optimization Parameters
   NAtoms,    NIC,     NZ,  NCons,   NDum,   NFix, NCnnct, MaxDiis
        7      31       0       0       0       0       0       0

 Cartesian Hessian Update
 Hessian Updated using BFGS Update


** GEOMETRY OPTIMIZATION IN DELOCALIZED INTERNAL COORDINATES **
   Searching for a Minimum

   Optimization Cycle:   5

                       Coordinates (Angstroms)
     ATOM                X               Y               Z
      1  O         0.6735855508   -0.7516456358   -0.0562866908
      2  O        -1.5406924843   -0.6409899226    0.1653157751
      3  O        -0.3674512050    1.2684001148   -0.1627251833
      4  C        -0.6297036197    0.0814184281   -0.0739638782
      5  C         1.7228671288   -0.1509442710   -0.1362294889
      6  H         1.7706864941    0.8830296670   -0.4777554183
      7  H         2.6362462631   -0.6788887214    0.1443809218
   Point Group: c1    Number of degrees of freedom:    15


   Energy is   -303.007839813

 Hessian Updated using BFGS Update

 15 Hessian modes will be used to form the next step
  Hessian Eigenvalues:
     0.012834    0.025167    0.037138    0.133334    0.157824    0.163657
     0.196159    0.258362    0.308542    0.338798    0.350034    0.365227
     0.526193    0.857438    1.083397

 Minimum Search - Taking Simple RFO Step
 Searching for Lamda that Minimizes Along All modes
 Value Taken    Lamda =  -0.04441300
 Calculated Step too Large.  Step scaled by  0.414563
 Step Taken.  Stepsize is  0.300000

                             Maximum     Tolerance    Cnvgd?
         Gradient           0.039394      0.000300      NO
         Displacement       0.159309      0.001200      NO
         Energy change     -0.015375      0.000001      NO


 New Cartesian Coordinates Obtained by Inverse Iteration

 Displacement from previous Coordinates is:  0.371782
 ----------------------------------------------------------------
             Standard Nuclear Orientation (Angstroms)
    I     Atom           X                Y                Z
 ----------------------------------------------------------------
    1      O       0.7095636016    -0.7521189666    -0.0470845072
    2      O      -1.5554905916    -0.6419545407     0.1670969955
    3      O      -0.3914754932     1.2656383378    -0.2673751624
    4      C      -0.6823580834     0.1150089878    -0.0066554330
    5      C       1.7480092758    -0.1765612180    -0.1689967131
    6      H       1.7652203773     0.8972384677    -0.3734010303
    7      H       2.6720690413    -0.6968714089     0.0991518878
 ----------------------------------------------------------------
 Molecular Point Group                 C1    NOp =  1
 Largest Abelian Subgroup              C1    NOp =  1
 Nuclear Repulsion Energy =   166.7426979187 hartrees
 There are       19 alpha and       19 beta electrons
 Applying Cartesian multipole field
    Component          Value
    ---------          -----
     (2,0,0)        1.00000E-11
     (0,2,0)        2.00000E-11
     (0,0,2)       -3.00000E-11
 Nucleus-field energy     =     0.0000000035 hartrees
 Requested basis set is 6-311++G(d)
 There are 38 shells and 118 basis functions
 A cutoff of  1.0D-12 yielded    715 shell pairs
 There are      7098 function pairs (      7724 Cartesian)
 Smallest overlap matrix eigenvalue = 1.10E-03
 Guess MOs from SCF MO coefficient file
 Reading MOs from coefficient file
 Reading MOs from coefficient file

 -----------------------------------------------------------------------
  General SCF calculation program by
  Eric Jon Sundstrom, Paul Horn, Yuezhi Mao, Dmitri Zuev, Alec White,
  David Stuck, Shaama M.S., Shane Yost, Joonho Lee, David Small,
  Daniel Levine, Susi Lehtola, Hugh Burton, Evgeny Epifanovsky
 -----------------------------------------------------------------------
 Exchange:     0.2220 Hartree-Fock + 1.0000 wB97X-D + LR-HF
 Correlation:  1.0000 wB97X-D
 Using SG-2 standard quadrature grid
 Dispersion:   Grimme D
 using 32 threads for integral computing
 -------------------------------------------------------
 OpenMP Integral computing Module                
 Release: version 1.0, May 2013, Q-Chem Inc. Pittsburgh 
 -------------------------------------------------------
 using 32 threads for integral computing
 -------------------------------------------------------
 OpenMP Integral computing Module                
 Release: version 1.0, May 2013, Q-Chem Inc. Pittsburgh 
 -------------------------------------------------------
 -------------------------------------------------------
 OpenMP BLAS3 based DFT computing Module                
 Release: version 1.0, May 2013, Q-Chem Inc. Pittsburgh 
 -------------------------------------------------------
 A restricted SCF calculation will be
 performed using Roothaan-Hall, GDM
 SCF converges when RMS gradient is below 1.0e-08
 ---------------------------------------
  Cycle       Energy         DIIS error
 ---------------------------------------
    1    -302.9943097101      3.09e-03  Roothaan Step
 ---------------------------------------
  Cycle       Energy        RMS Gradient
 ---------------------------------------
    1    -303.0173832567      8.87e-03   Normal BFGS step
    2    -303.0186412401      8.90e-03   Normal BFGS step
    3    -303.0189740251      3.97e-03   Normal BFGS step
    4    -303.0191303998      1.12e-03   Normal BFGS step
    5    -303.0191357521      1.16e-03   Normal BFGS step
    6    -303.0191394002      2.19e-04   Normal BFGS step
    7    -303.0191399270      1.66e-04   Normal BFGS step
    8    -303.0191401556      3.48e-05   Normal BFGS step
    9    -303.0191401612      2.28e-05   Normal BFGS step
   10    -303.0191401690      7.14e-06   Normal BFGS step
   11    -303.0191401693      4.15e-06   Normal BFGS step
   12    -303.0191401694      1.33e-06   Normal BFGS step
   13    -303.0191401694      2.66e-07   Normal BFGS step
   14    -303.0191401694      5.19e-08   Normal BFGS step
   15    -303.0191401694      1.93e-08   Normal BFGS step
   16    -303.0191401694      6.68e-09  Convergence criterion met
 ---------------------------------------
 SCF time:   CPU 283.49s  wall 10.00s 
 SCF   energy in the final basis set =     -303.0191401694
 
 --------------------------------------------------------------
 
                    Orbital Energies (a.u.)
 --------------------------------------------------------------
 
 Alpha MOs
 -- Occupied --
-19.369 -19.246 -19.241 -10.458 -10.443  -1.298  -1.197  -1.133
 -0.830  -0.725  -0.666  -0.610  -0.595  -0.548  -0.531  -0.507
 -0.416  -0.388  -0.382
 -- Virtual --
 -0.055   0.027   0.061   0.076   0.091   0.120   0.130   0.134
  0.137   0.146   0.150   0.178   0.185   0.197   0.254   0.271
  0.295   0.304   0.306   0.328   0.343   0.351   0.356   0.379
  0.392   0.405   0.422   0.438   0.513   0.524   0.572   0.598
  0.665   0.672   0.714   0.758   0.776   0.847   0.942   0.985
  1.055   1.114   1.142   1.178   1.218   1.226   1.242   1.261
  1.271   1.301   1.359   1.452   1.471   1.496   1.542   1.601
  1.608   1.796   1.831   1.845   1.995   2.262   2.421   2.460
  2.656   2.690   2.730   2.856   2.899   2.921   3.003   3.027
  3.109   3.228   3.266   3.323   3.331   3.443   3.540   3.614
  3.655   3.721   3.864   4.006   4.038   4.998   5.132   5.150
  5.183   5.213   5.233   5.643   5.844   5.949  23.832  24.195
 49.961  50.101  50.149
 --------------------------------------------------------------
 
          Ground-State Mulliken Net Atomic Charges

     Atom                 Charge (a.u.)
  ----------------------------------------
      1 O                     0.004652
      2 O                    -0.301171
      3 O                    -0.379854
      4 C                     0.315504
      5 C                    -0.191892
      6 H                     0.282487
      7 H                     0.270275
  ----------------------------------------
  Sum of atomic charges =    -0.000000

 -----------------------------------------------------------------
                    Cartesian Multipole Moments
 -----------------------------------------------------------------
    Charge (ESU x 10^10)
                 0.0000
    Dipole Moment (Debye)
         X       6.2933      Y      -0.7223      Z      -0.1584
       Tot       6.3366
    Quadrupole Moments (Debye-Ang)
        XX     -22.2801     XY      -1.1700     YY     -32.5251
        XZ      -0.1241     YZ       1.0791     ZZ     -26.4994
    Octopole Moments (Debye-Ang^2)
       XXX      24.9652    XXY       1.4672    XYY       3.7763
       YYY      -1.8217    XXZ       0.2641    XYZ      -1.1914
       YYZ       2.2913    XZZ      -0.0043    YZZ      -0.0684
       ZZZ       5.3920
    Hexadecapole Moments (Debye-Ang^3)
      XXXX    -233.6667   XXXY      -6.4131   XXYY     -62.6446
      XYYY       8.7325   YYYY    -126.5567   XXXZ       9.7887
      XXYZ       2.3041   XYYZ       2.1326   YYYZ       8.7056
      XXZZ     -47.7832   XYZZ       1.8947   YYZZ     -24.7628
      XZZZ       7.8832   YZZZ       8.1523   ZZZZ     -27.1943
 -----------------------------------------------------------------
 Calculating analytic gradient of the SCF energy
 Gradient of SCF Energy
            1           2           3           4           5           6
    1  -0.0140550   0.0129566   0.0008378   0.0347685  -0.0348576   0.0023280
    2   0.0494943   0.0221280   0.0212426  -0.0754772  -0.0193676  -0.0018501
    3  -0.0050171  -0.0123402  -0.0118056   0.0298736  -0.0143134   0.0046119
            7
    1  -0.0019783
    2   0.0038299
    3   0.0089909
 Max gradient component =       7.548E-02
 RMS gradient           =       2.563E-02
 Gradient time:  CPU 31.94 s  wall 1.38 s
 Geometry Optimization Parameters
   NAtoms,    NIC,     NZ,  NCons,   NDum,   NFix, NCnnct, MaxDiis
        7      31       0       0       0       0       0       0

 Cartesian Hessian Update
 Hessian Updated using BFGS Update


** GEOMETRY OPTIMIZATION IN DELOCALIZED INTERNAL COORDINATES **
   Searching for a Minimum

   Optimization Cycle:   6

                       Coordinates (Angstroms)
     ATOM                X               Y               Z
      1  O         0.7095636016   -0.7521189666   -0.0470845072
      2  O        -1.5554905916   -0.6419545407    0.1670969955
      3  O        -0.3914754932    1.2656383378   -0.2673751624
      4  C        -0.6823580834    0.1150089878   -0.0066554330
      5  C         1.7480092758   -0.1765612180   -0.1689967131
      6  H         1.7652203773    0.8972384677   -0.3734010303
      7  H         2.6720690413   -0.6968714089    0.0991518878
   Point Group: c1    Number of degrees of freedom:    15


   Energy is   -303.019140169

 Hessian Updated using BFGS Update

 15 Hessian modes will be used to form the next step
  Hessian Eigenvalues:
     0.013938    0.025549    0.076398    0.142195    0.161651    0.189659
     0.258362    0.281451    0.301188    0.341350    0.350097    0.369821
     0.525906    0.843783    1.075002

 Minimum Search - Taking Simple RFO Step
 Searching for Lamda that Minimizes Along All modes
 Value Taken    Lamda =  -0.02677146
 Calculated Step too Large.  Step scaled by  0.636089
 Step Taken.  Stepsize is  0.300000

                             Maximum     Tolerance    Cnvgd?
         Gradient           0.045138      0.000300      NO
         Displacement       0.220387      0.001200      NO
         Energy change     -0.011300      0.000001      NO


 New Cartesian Coordinates Obtained by Inverse Iteration

 Displacement from previous Coordinates is:  0.295807
 ----------------------------------------------------------------
             Standard Nuclear Orientation (Angstroms)
    I     Atom           X                Y                Z
 ----------------------------------------------------------------
    1      O       0.7505634854    -0.7704100781    -0.0281808867
    2      O      -1.5850198994    -0.6329183814     0.1859506241
    3      O      -0.3983206509     1.2593732839    -0.3102758831
    4      C      -0.7565843226     0.1434658878    -0.0268831530
    5      C       1.7757850086    -0.1804383619    -0.1293933712
    6      H       1.7556375433     0.9011309077    -0.3222412863
    7      H       2.7234769633    -0.7098235989     0.0337599935
 ----------------------------------------------------------------
 Molecular Point Group                 C1    NOp =  1
 Largest Abelian Subgroup              C1    NOp =  1
 Nuclear Repulsion Energy =   164.7643870502 hartrees
 There are       19 alpha and       19 beta electrons
 Applying Cartesian multipole field
    Component          Value
    ---------          -----
     (2,0,0)        1.00000E-11
     (0,2,0)        2.00000E-11
     (0,0,2)       -3.00000E-11
 Nucleus-field energy     =     0.0000000036 hartrees
 Requested basis set is 6-311++G(d)
 There are 38 shells and 118 basis functions
 A cutoff of  1.0D-12 yielded    714 shell pairs
 There are      7094 function pairs (      7720 Cartesian)
 Smallest overlap matrix eigenvalue = 1.09E-03
 Guess MOs from SCF MO coefficient file
 Reading MOs from coefficient file
 Reading MOs from coefficient file

 -----------------------------------------------------------------------
  General SCF calculation program by
  Eric Jon Sundstrom, Paul Horn, Yuezhi Mao, Dmitri Zuev, Alec White,
  David Stuck, Shaama M.S., Shane Yost, Joonho Lee, David Small,
  Daniel Levine, Susi Lehtola, Hugh Burton, Evgeny Epifanovsky
 -----------------------------------------------------------------------
 Exchange:     0.2220 Hartree-Fock + 1.0000 wB97X-D + LR-HF
 Correlation:  1.0000 wB97X-D
 Using SG-2 standard quadrature grid
 Dispersion:   Grimme D
 using 32 threads for integral computing
 -------------------------------------------------------
 OpenMP Integral computing Module                
 Release: version 1.0, May 2013, Q-Chem Inc. Pittsburgh 
 -------------------------------------------------------
 using 32 threads for integral computing
 -------------------------------------------------------
 OpenMP Integral computing Module                
 Release: version 1.0, May 2013, Q-Chem Inc. Pittsburgh 
 -------------------------------------------------------
 -------------------------------------------------------
 OpenMP BLAS3 based DFT computing Module                
 Release: version 1.0, May 2013, Q-Chem Inc. Pittsburgh 
 -------------------------------------------------------
 A restricted SCF calculation will be
 performed using Roothaan-Hall, GDM
 SCF converges when RMS gradient is below 1.0e-08
 ---------------------------------------
  Cycle       Energy         DIIS error
 ---------------------------------------
    1    -303.0227347769      2.01e-03  Roothaan Step
 ---------------------------------------
  Cycle       Energy        RMS Gradient
 ---------------------------------------
    1    -303.0326512130      8.70e-03   Normal BFGS step
    2    -303.0330995499      1.24e-02   Normal BFGS step
    3    -303.0335402641      1.21e-03   Normal BFGS step
    4    -303.0335589957      7.83e-04   Normal BFGS step
    5    -303.0335618373      4.31e-04   Normal BFGS step
    6    -303.0335632984      1.54e-04   Normal BFGS step
    7    -303.0335635401      6.96e-05   Normal BFGS step
    8    -303.0335635939      4.18e-05   Normal BFGS step
    9    -303.0335636084      1.20e-05   Normal BFGS step
   10    -303.0335636103      3.55e-06   Normal BFGS step
   11    -303.0335636104      1.50e-06   Normal BFGS step
   12    -303.0335636104      4.23e-07   Normal BFGS step
   13    -303.0335636104      1.19e-07   Normal BFGS step
   14    -303.0335636104      2.66e-08   Normal BFGS step
   15    -303.0335636104      3.86e-09  Convergence criterion met
 ---------------------------------------
 SCF time:   CPU 267.21s  wall 10.00s 
 SCF   energy in the final basis set =     -303.0335636104
 
 --------------------------------------------------------------
 
                    Orbital Energies (a.u.)
 --------------------------------------------------------------
 
 Alpha MOs
 -- Occupied --
-19.343 -19.264 -19.257 -10.446 -10.439  -1.274  -1.212  -1.153
 -0.801  -0.701  -0.648  -0.606  -0.592  -0.561  -0.541  -0.512
 -0.413  -0.403  -0.398
 -- Virtual --
 -0.033   0.031   0.063   0.077   0.095   0.117   0.128   0.134
  0.139   0.144   0.149   0.169   0.182   0.204   0.264   0.271
  0.288   0.305   0.308   0.329   0.337   0.350   0.351   0.377
  0.388   0.404   0.427   0.439   0.505   0.529   0.581   0.612
  0.668   0.684   0.728   0.762   0.797   0.866   0.950   0.989
  1.063   1.111   1.127   1.177   1.210   1.218   1.244   1.255
  1.292   1.298   1.352   1.394   1.466   1.496   1.571   1.576
  1.607   1.747   1.836   1.881   2.019   2.346   2.439   2.466
  2.673   2.698   2.731   2.857   2.884   2.904   2.992   3.000
  3.147   3.239   3.293   3.300   3.354   3.423   3.467   3.611
  3.668   3.691   3.851   3.977   4.008   5.022   5.119   5.147
  5.169   5.201   5.218   5.669   5.823   5.924  23.856  24.281
 49.990  50.102  50.148
 --------------------------------------------------------------
 
          Ground-State Mulliken Net Atomic Charges

     Atom                 Charge (a.u.)
  ----------------------------------------
      1 O                    -0.053649
      2 O                    -0.278100
      3 O                    -0.347280
      4 C                     0.354480
      5 C                    -0.205168
      6 H                     0.264614
      7 H                     0.265103
  ----------------------------------------
  Sum of atomic charges =     0.000000

 -----------------------------------------------------------------
                    Cartesian Multipole Moments
 -----------------------------------------------------------------
    Charge (ESU x 10^10)
                 0.0000
    Dipole Moment (Debye)
         X       5.3151      Y      -0.3824      Z      -0.0753
       Tot       5.3294
    Quadrupole Moments (Debye-Ang)
        XX     -22.2501     XY      -1.0976     YY     -32.2015
        XZ      -0.0364     YZ       1.2097     ZZ     -26.6069
    Octopole Moments (Debye-Ang^2)
       XXX      22.4755    XXY       1.4106    XYY       2.9424
       YYY      -1.0918    XXZ       0.1360    XYZ      -1.0721
       YYZ       2.4109    XZZ      -0.4446    YZZ      -0.0043
       ZZZ       5.4012
    Hexadecapole Moments (Debye-Ang^3)
      XXXX    -246.6286   XXXY      -5.5119   XXYY     -64.6973
      XYYY      10.6225   YYYY    -125.5642   XXXZ       8.3064
      XXYZ       3.1647   XYYZ       1.7178   YYYZ      10.0408
      XXZZ     -50.2729   XYZZ       2.5273   YYZZ     -24.8313
      XZZZ       7.0570   YZZZ       9.3288   ZZZZ     -27.6679
 -----------------------------------------------------------------
 Calculating analytic gradient of the SCF energy
 Gradient of SCF Energy
            1           2           3           4           5           6
    1  -0.0032355   0.0198140   0.0080475   0.0125210  -0.0343278  -0.0019356
    2   0.0497148   0.0281808   0.0221259  -0.0793817  -0.0201032  -0.0003529
    3  -0.0064106  -0.0116801  -0.0104119   0.0261748  -0.0030443   0.0012633
            7
    1  -0.0008834
    2  -0.0001836
    3   0.0041088
 Max gradient component =       7.938E-02
 RMS gradient           =       2.514E-02
 Gradient time:  CPU 31.76 s  wall 1.37 s
 Geometry Optimization Parameters
   NAtoms,    NIC,     NZ,  NCons,   NDum,   NFix, NCnnct, MaxDiis
        7      31       0       0       0       0       0       0

 Cartesian Hessian Update
 Hessian Updated using BFGS Update


** GEOMETRY OPTIMIZATION IN DELOCALIZED INTERNAL COORDINATES **
   Searching for a Minimum

   Optimization Cycle:   7

                       Coordinates (Angstroms)
     ATOM                X               Y               Z
      1  O         0.7505634854   -0.7704100781   -0.0281808867
      2  O        -1.5850198994   -0.6329183814    0.1859506241
      3  O        -0.3983206509    1.2593732839   -0.3102758831
      4  C        -0.7565843226    0.1434658878   -0.0268831530
      5  C         1.7757850086   -0.1804383619   -0.1293933712
      6  H         1.7556375433    0.9011309077   -0.3222412863
      7  H         2.7234769633   -0.7098235989    0.0337599935
   Point Group: c1    Number of degrees of freedom:    15


   Energy is   -303.033563610

 Hessian Updated using BFGS Update

 15 Hessian modes will be used to form the next step
  Hessian Eigenvalues:
     0.015339    0.026524    0.034767    0.144462    0.161321    0.233143
     0.258360    0.292044    0.336737    0.342486    0.350170    0.372095
     0.520464    0.697575    1.028968

 Minimum Search - Taking Simple RFO Step
 Searching for Lamda that Minimizes Along All modes
 Value Taken    Lamda =  -0.03670729
 Calculated Step too Large.  Step scaled by  0.453761
 Step Taken.  Stepsize is  0.300000

                             Maximum     Tolerance    Cnvgd?
         Gradient           0.053072      0.000300      NO
         Displacement       0.218327      0.001200      NO
         Energy change     -0.014423      0.000001      NO


 New Cartesian Coordinates Obtained by Inverse Iteration

 Displacement from previous Coordinates is:  0.287800
 ----------------------------------------------------------------
             Standard Nuclear Orientation (Angstroms)
    I     Atom           X                Y                Z
 ----------------------------------------------------------------
    1      O       0.7853811676    -0.8020258289    -0.0392639309
    2      O      -1.6288395003    -0.6325916700     0.2090589011
    3      O      -0.4391431700     1.2670426618    -0.3126997223
    4      C      -0.8444783318     0.1815787369    -0.0454766169
    5      C       1.8201491501    -0.1946899080    -0.1406846133
    6      H       1.7933987419     0.8953956285    -0.3063307801
    7      H       2.7790700701    -0.7043299612     0.0381327999
 ----------------------------------------------------------------
 Molecular Point Group                 C1    NOp =  1
 Largest Abelian Subgroup              C1    NOp =  1
 Nuclear Repulsion Energy =   161.4727605709 hartrees
 There are       19 alpha and       19 beta electrons
 Applying Cartesian multipole field
    Component          Value
    ---------          -----
     (2,0,0)        1.00000E-11
     (0,2,0)        2.00000E-11
     (0,0,2)       -3.00000E-11
 Nucleus-field energy     =     0.0000000037 hartrees
 Requested basis set is 6-311++G(d)
 There are 38 shells and 118 basis functions
 A cutoff of  1.0D-12 yielded    712 shell pairs
 There are      7070 function pairs (      7692 Cartesian)
 Smallest overlap matrix eigenvalue = 1.14E-03
 Guess MOs from SCF MO coefficient file
 Reading MOs from coefficient file
 Reading MOs from coefficient file

 -----------------------------------------------------------------------
  General SCF calculation program by
  Eric Jon Sundstrom, Paul Horn, Yuezhi Mao, Dmitri Zuev, Alec White,
  David Stuck, Shaama M.S., Shane Yost, Joonho Lee, David Small,
  Daniel Levine, Susi Lehtola, Hugh Burton, Evgeny Epifanovsky
 -----------------------------------------------------------------------
 Exchange:     0.2220 Hartree-Fock + 1.0000 wB97X-D + LR-HF
 Correlation:  1.0000 wB97X-D
 Using SG-2 standard quadrature grid
 Dispersion:   Grimme D
 using 32 threads for integral computing
 -------------------------------------------------------
 OpenMP Integral computing Module                
 Release: version 1.0, May 2013, Q-Chem Inc. Pittsburgh 
 -------------------------------------------------------
 using 32 threads for integral computing
 -------------------------------------------------------
 OpenMP Integral computing Module                
 Release: version 1.0, May 2013, Q-Chem Inc. Pittsburgh 
 -------------------------------------------------------
 -------------------------------------------------------
 OpenMP BLAS3 based DFT computing Module                
 Release: version 1.0, May 2013, Q-Chem Inc. Pittsburgh 
 -------------------------------------------------------
 A restricted SCF calculation will be
 performed using Roothaan-Hall, GDM
 SCF converges when RMS gradient is below 1.0e-08
 ---------------------------------------
  Cycle       Energy         DIIS error
 ---------------------------------------
    1    -303.0392353048      1.82e-03  Roothaan Step
 ---------------------------------------
  Cycle       Energy        RMS Gradient
 ---------------------------------------
    1    -303.0468540859      9.94e-03   Normal BFGS step
    2    -303.0469322683      1.63e-02   Normal BFGS step
    3    -303.0476394052      8.06e-04   Normal BFGS step
[...]
   12    -303.0760263550      1.05e-08   Normal BFGS step
   13    -303.0760263550      3.09e-09  Convergence criterion met
 ---------------------------------------
 SCF time:   CPU 231.13s  wall 8.00s 
 SCF   energy in the final basis set =     -303.0760263550
 
 --------------------------------------------------------------
 
                    Orbital Energies (a.u.)
 --------------------------------------------------------------
 
 Alpha MOs
 -- Occupied --
-19.322 -19.321 -19.277 -10.470 -10.393  -1.265  -1.223  -1.183
 -0.741  -0.653  -0.617  -0.608  -0.607  -0.593  -0.555  -0.504
 -0.454  -0.453  -0.369
 -- Virtual --
  0.014   0.043   0.061   0.078   0.098   0.108   0.117   0.117
  0.119   0.136   0.148   0.169   0.184   0.211   0.228   0.268
  0.270   0.284   0.298   0.301   0.325   0.335   0.336   0.358
  0.363   0.385   0.422   0.448   0.481   0.559   0.600   0.616
  0.643   0.698   0.738   0.756   0.787   0.928   0.950   0.968
  1.077   1.114   1.136   1.140   1.151   1.192   1.221   1.251
  1.277   1.286   1.295   1.350   1.438   1.479   1.487   1.497
  1.569   1.612   1.644   1.972   2.045   2.444   2.465   2.666
  2.707   2.712   2.825   2.829   2.837   2.913   2.943   2.949
  2.963   3.207   3.217   3.237   3.308   3.321   3.407   3.462
  3.773   3.784   3.853   3.904   3.944   5.064   5.078   5.101
  5.143   5.158   5.205   5.696   5.767   5.798  23.838  24.547
 50.016  50.068  50.226
 --------------------------------------------------------------
 
          Ground-State Mulliken Net Atomic Charges

     Atom                 Charge (a.u.)
  ----------------------------------------
      1 O                    -0.205743
      2 O                    -0.220723
      3 O                    -0.248547
      4 C                     0.464392
      5 C                    -0.181070
      6 H                     0.187223
      7 H                     0.204468
  ----------------------------------------
  Sum of atomic charges =     0.000000

 -----------------------------------------------------------------
                    Cartesian Multipole Moments
 -----------------------------------------------------------------
    Charge (ESU x 10^10)
                 0.0000
    Dipole Moment (Debye)
         X       2.1422      Y       1.3676      Z      -0.4083
       Tot       2.5741
    Quadrupole Moments (Debye-Ang)
        XX     -21.5291     XY      -0.8115     YY     -31.8428
        XZ      -0.2485     YZ       1.0613     ZZ     -26.5947
    Octopole Moments (Debye-Ang^2)
       XXX      24.3890    XXY       5.3982    XYY       0.7516
       YYY       2.4943    XXZ      -1.1674    XYZ      -0.2783
       YYZ       1.4658    XZZ       0.0405    YZZ       0.8044
       ZZZ       3.7010
    Hexadecapole Moments (Debye-Ang^3)
      XXXX    -413.3593   XXXY      14.7170   XXYY     -99.1203
      XYYY      39.1673   YYYY    -143.9311   XXXZ       3.8359
      XXYZ       4.3380   XYYZ      -0.3394   YYYZ      11.0576
      XXZZ     -78.5560   XYZZ      10.6484   YYZZ     -27.2130
      XZZZ       3.6476   YZZZ       9.7052   ZZZZ     -26.7093
 -----------------------------------------------------------------
 Calculating analytic gradient of the SCF energy
 Gradient of SCF Energy
            1           2           3           4           5           6
    1  -0.0000644  -0.0001424  -0.0000400   0.0002136   0.0000678  -0.0000196
    2   0.0000758  -0.0000080   0.0000399  -0.0000830  -0.0000126   0.0000054
    3   0.0000114   0.0000411   0.0000492  -0.0000908  -0.0000157   0.0000046
            7
    1  -0.0000152
    2  -0.0000175
    3   0.0000001
 Max gradient component =       2.136E-04
 RMS gradient           =       7.052E-05
 Gradient time:  CPU 30.78 s  wall 1.34 s
 Geometry Optimization Parameters
   NAtoms,    NIC,     NZ,  NCons,   NDum,   NFix, NCnnct, MaxDiis
        7      31       0       0       0       0       0       0

 Cartesian Hessian Update
 Hessian Updated using BFGS Update


** GEOMETRY OPTIMIZATION IN DELOCALIZED INTERNAL COORDINATES **
   Searching for a Minimum

   Optimization Cycle:  25

                       Coordinates (Angstroms)
     ATOM                X               Y               Z
      1  O         1.1641112921   -1.0140905907    0.1059245244
      2  O        -2.0106253085   -0.5434298107    0.1437593935
      3  O        -0.7008222991    1.3163847824   -0.2782164842
      4  C        -1.3388139082    0.3724185459   -0.0652292848
      5  C         2.0874221583   -0.2766756039   -0.1013278903
      6  H         1.9330307702    0.7986892680   -0.3070961382
      7  H         3.1312354228   -0.6429169318   -0.0950780831
   Point Group: c1    Number of degrees of freedom:    15


   Energy is   -303.076026355

 Hessian Updated using BFGS Update

 15 Hessian modes will be used to form the next step
  Hessian Eigenvalues:
     0.004050    0.006323    0.011955    0.066586    0.112469    0.150730
     0.162975    0.189048    0.337258    0.350736    0.353733    0.525764
     0.885198    1.066413    1.285947

 Minimum Search - Taking Simple RFO Step
 Searching for Lamda that Minimizes Along All modes
 Value Taken    Lamda =   0.00000000
 Step Taken.  Stepsize is  0.007498

                             Maximum     Tolerance    Cnvgd?
         Gradient           0.000107      0.000300     YES
         Displacement       0.004282      0.001200      NO
         Energy change     -0.000001      0.000001      NO


 New Cartesian Coordinates Obtained by Inverse Iteration

 Displacement from previous Coordinates is:  0.010727
 ----------------------------------------------------------------
             Standard Nuclear Orientation (Angstroms)
    I     Atom           X                Y                Z
 ----------------------------------------------------------------
    1      O       1.1651210319    -1.0156620614     0.1060581328
    2      O      -2.0099024094    -0.5431235435     0.1449797691
    3      O      -0.7016769202     1.3168994372    -0.2807582959
    4      C      -1.3394610284     0.3732661903    -0.0656810520
    5      C       2.0875674222    -0.2771075035    -0.1008847777
    6      H       1.9321972037     0.7986800646    -0.3036987307
    7      H       3.1316928278    -0.6425729246    -0.0972790083
 ----------------------------------------------------------------
 Molecular Point Group                 C1    NOp =  1
 Largest Abelian Subgroup              C1    NOp =  1
 Nuclear Repulsion Energy =   146.1703508248 hartrees
 There are       19 alpha and       19 beta electrons
 Applying Cartesian multipole field
    Component          Value
    ---------          -----
     (2,0,0)        1.00000E-11
     (0,2,0)        2.00000E-11
     (0,0,2)       -3.00000E-11
 Nucleus-field energy     =     0.0000000053 hartrees
 Requested basis set is 6-311++G(d)
 There are 38 shells and 118 basis functions
 A cutoff of  1.0D-12 yielded    685 shell pairs
 There are      6859 function pairs (      7462 Cartesian)
 Smallest overlap matrix eigenvalue = 9.38E-04
 Guess MOs from SCF MO coefficient file
 Reading MOs from coefficient file
 Reading MOs from coefficient file

 -----------------------------------------------------------------------
  General SCF calculation program by
  Eric Jon Sundstrom, Paul Horn, Yuezhi Mao, Dmitri Zuev, Alec White,
  David Stuck, Shaama M.S., Shane Yost, Joonho Lee, David Small,
  Daniel Levine, Susi Lehtola, Hugh Burton, Evgeny Epifanovsky
 -----------------------------------------------------------------------
 Exchange:     0.2220 Hartree-Fock + 1.0000 wB97X-D + LR-HF
 Correlation:  1.0000 wB97X-D
 Using SG-2 standard quadrature grid
 Dispersion:   Grimme D
 using 32 threads for integral computing
 -------------------------------------------------------
 OpenMP Integral computing Module                
 Release: version 1.0, May 2013, Q-Chem Inc. Pittsburgh 
 -------------------------------------------------------
 using 32 threads for integral computing
 -------------------------------------------------------
 OpenMP Integral computing Module                
 Release: version 1.0, May 2013, Q-Chem Inc. Pittsburgh 
 -------------------------------------------------------
 -------------------------------------------------------
 OpenMP BLAS3 based DFT computing Module                
 Release: version 1.0, May 2013, Q-Chem Inc. Pittsburgh 
 -------------------------------------------------------
 A restricted SCF calculation will be
 performed using Roothaan-Hall, GDM
 SCF converges when RMS gradient is below 1.0e-08
 ---------------------------------------
  Cycle       Energy         DIIS error
 ---------------------------------------
    1    -303.0760190885      5.70e-05  Roothaan Step
 ---------------------------------------
  Cycle       Energy        RMS Gradient
 ---------------------------------------
    1    -303.0760262846      2.95e-04   Normal BFGS step
    2    -303.0760267661      1.75e-04   Normal BFGS step
    3    -303.0760268144      1.67e-04   Normal BFGS step
    4    -303.0760268800      3.21e-05   Normal BFGS step
    5    -303.0760268856      1.75e-05   Normal BFGS step
    6    -303.0760268865      1.20e-05   Normal BFGS step
    7    -303.0760268870      1.56e-06   Normal BFGS step
    8    -303.0760268870      1.73e-06   Normal BFGS step
    9    -303.0760268870      4.61e-07   Normal BFGS step
   10    -303.0760268870      1.22e-07   Normal BFGS step
   11    -303.0760268870      1.68e-08   Normal BFGS step
   12    -303.0760268870      4.55e-09  Convergence criterion met
 ---------------------------------------
 SCF time:   CPU 218.66s  wall 7.00s 
 SCF   energy in the final basis set =     -303.0760268870
 
 --------------------------------------------------------------
 
                    Orbital Energies (a.u.)
 --------------------------------------------------------------
 
 Alpha MOs
 -- Occupied --
-19.322 -19.321 -19.277 -10.470 -10.393  -1.265  -1.223  -1.183
 -0.741  -0.653  -0.617  -0.608  -0.607  -0.593  -0.555  -0.504
 -0.454  -0.453  -0.369
 -- Virtual --
  0.014   0.043   0.061   0.078   0.098   0.108   0.117   0.117
  0.119   0.136   0.148   0.169   0.184   0.211   0.228   0.268
  0.270   0.284   0.298   0.301   0.325   0.335   0.336   0.358
  0.363   0.385   0.422   0.448   0.481   0.559   0.600   0.616
  0.643   0.698   0.738   0.756   0.786   0.928   0.950   0.968
  1.077   1.114   1.136   1.139   1.151   1.192   1.221   1.251
  1.277   1.286   1.296   1.349   1.438   1.479   1.487   1.496
  1.569   1.612   1.644   1.971   2.045   2.444   2.465   2.665
  2.707   2.712   2.825   2.829   2.836   2.913   2.943   2.949
  2.963   3.207   3.216   3.237   3.308   3.321   3.407   3.462
  3.774   3.784   3.853   3.904   3.944   5.064   5.078   5.100
  5.143   5.158   5.204   5.696   5.767   5.798  23.838  24.547
 50.016  50.067  50.226
 --------------------------------------------------------------
 
          Ground-State Mulliken Net Atomic Charges

     Atom                 Charge (a.u.)
  ----------------------------------------
      1 O                    -0.205738
      2 O                    -0.220610
      3 O                    -0.248541
      4 C                     0.464359
      5 C                    -0.181038
      6 H                     0.187147
      7 H                     0.204421
  ----------------------------------------
  Sum of atomic charges =    -0.000000

 -----------------------------------------------------------------
                    Cartesian Multipole Moments
 -----------------------------------------------------------------
    Charge (ESU x 10^10)
                -0.0000
    Dipole Moment (Debye)
         X       2.1370      Y       1.3709      Z      -0.4068
       Tot       2.5713
    Quadrupole Moments (Debye-Ang)
        XX     -21.5247     XY      -0.8071     YY     -31.8482
        XZ      -0.2446     YZ       1.0690     ZZ     -26.5979
    Octopole Moments (Debye-Ang^2)
       XXX      24.3426    XXY       5.4062    XYY       0.7358
       YYY       2.5071    XXZ      -1.1735    XYZ      -0.2821
       YYZ       1.4817    XZZ       0.0394    YZZ       0.8018
       ZZZ       3.7181
    Hexadecapole Moments (Debye-Ang^3)
      XXXX    -413.3918   XXXY      14.8473   XXYY     -99.1760
      XYYY      39.3150   YYYY    -144.1207   XXXZ       3.8198
      XXYZ       4.3753   XYYZ      -0.3507   YYYZ      11.1333
      XXZZ     -78.5811   XYZZ      10.6880   YYZZ     -27.2507
      XZZZ       3.6300   YZZZ       9.7727   ZZZZ     -26.7594
 -----------------------------------------------------------------
 Calculating analytic gradient of the SCF energy
 Gradient of SCF Energy
            1           2           3           4           5           6
    1  -0.0000281   0.0000042   0.0000035   0.0000130   0.0000242  -0.0000133
    2   0.0000521   0.0000171  -0.0000062  -0.0000294  -0.0000282   0.0000064
    3   0.0000169  -0.0000068   0.0000169  -0.0000163  -0.0000224   0.0000148
            7
    1  -0.0000035
    2  -0.0000118
    3  -0.0000031
 Max gradient component =       5.208E-05
 RMS gradient           =       1.984E-05
 Gradient time:  CPU 30.97 s  wall 1.37 s
 Geometry Optimization Parameters
   NAtoms,    NIC,     NZ,  NCons,   NDum,   NFix, NCnnct, MaxDiis
        7      31       0       0       0       0       0       0

 Cartesian Hessian Update
 Hessian Updated using BFGS Update


** GEOMETRY OPTIMIZATION IN DELOCALIZED INTERNAL COORDINATES **
   Searching for a Minimum

   Optimization Cycle:  26

                       Coordinates (Angstroms)
     ATOM                X               Y               Z
      1  O         1.1651210319   -1.0156620614    0.1060581328
      2  O        -2.0099024094   -0.5431235435    0.1449797691
      3  O        -0.7016769202    1.3168994372   -0.2807582959
      4  C        -1.3394610284    0.3732661903   -0.0656810520
      5  C         2.0875674222   -0.2771075035   -0.1008847777
      6  H         1.9321972037    0.7986800646   -0.3036987307
      7  H         3.1316928278   -0.6425729246   -0.0972790083
   Point Group: c1    Number of degrees of freedom:    15


   Energy is   -303.076026887

 Hessian Updated using BFGS Update

 15 Hessian modes will be used to form the next step
  Hessian Eigenvalues:
     0.003990    0.006793    0.008734    0.060718    0.113686    0.149833
     0.164140    0.195698    0.337410    0.350676    0.353759    0.523889
     0.886664    1.067900    1.294085

 Minimum Search - Taking Simple RFO Step
 Searching for Lamda that Minimizes Along All modes
 Value Taken    Lamda =   0.00000000
 Step Taken.  Stepsize is  0.004593

                             Maximum     Tolerance    Cnvgd?
         Gradient           0.000039      0.000300     YES
         Displacement       0.002917      0.001200      NO
         Energy change     -0.000001      0.000001     YES


                       Distance Matrix (Angstroms)
             O (  1)   O (  2)   O (  3)   C (  4)   C (  5)   H (  6)
   O (  2)  3.210231
   O (  3)  3.012541  2.313524
   C (  4)  2.869067  1.154833  1.159082
   C (  5)  1.199665  4.113450  3.217623  3.488373
   H (  6)  2.012000  4.188305  2.684468  3.307775  1.105709
   H (  7)  2.011951  5.148260  4.309051  4.585209  1.106244  1.886428

 
 Final energy is   -303.076026887050     


 ******************************
 **  OPTIMIZATION CONVERGED  **
 ******************************

                       Coordinates (Angstroms)
     ATOM                X               Y               Z
      1  O         1.1651210319   -1.0156620614    0.1060581328
      2  O        -2.0099024094   -0.5431235435    0.1449797691
      3  O        -0.7016769202    1.3168994372   -0.2807582959
      4  C        -1.3394610284    0.3732661903   -0.0656810520
      5  C         2.0875674222   -0.2771075035   -0.1008847777
      6  H         1.9321972037    0.7986800646   -0.3036987307
      7  H         3.1316928278   -0.6425729246   -0.0972790083

Z-matrix Print:
$molecule
0 1
C 
O  1 1.154833
O  1 1.159082 2 177.892881
H  3 2.684468 1 112.600520 2 -179.178545 0
C  4 1.105709 3 108.912284 1 0.036041 0
H  5 1.106244 4 117.042410 3 178.941820 0
O  5 1.199665 4 121.504767 3 -1.054044 0
$end

 
 --------------------------------------------------------------
 
                    Orbital Energies (a.u.)
 --------------------------------------------------------------
 
 Alpha MOs
 -- Occupied --
-19.322 -19.321 -19.277 -10.470 -10.393  -1.265  -1.223  -1.183
 -0.741  -0.653  -0.617  -0.608  -0.607  -0.593  -0.555  -0.504
 -0.454  -0.453  -0.369
 -- Virtual --
  0.014   0.043   0.061   0.078   0.098   0.108   0.117   0.117
  0.119   0.136   0.148   0.169   0.184   0.211   0.228   0.268
  0.270   0.284   0.298   0.301   0.325   0.335   0.336   0.358
  0.363   0.385   0.422   0.448   0.481   0.559   0.600   0.616
  0.643   0.698   0.738   0.756   0.786   0.928   0.950   0.968
  1.077   1.114   1.136   1.139   1.151   1.192   1.221   1.251
  1.277   1.286   1.296   1.349   1.438   1.479   1.487   1.496
  1.569   1.612   1.644   1.971   2.045   2.444   2.465   2.665
  2.707   2.712   2.825   2.829   2.836   2.913   2.943   2.949
  2.963   3.207   3.216   3.237   3.308   3.321   3.407   3.462
  3.774   3.784   3.853   3.904   3.944   5.064   5.078   5.100
  5.143   5.158   5.204   5.696   5.767   5.798  23.838  24.547
 50.016  50.067  50.226
 --------------------------------------------------------------
 
          Ground-State Mulliken Net Atomic Charges

     Atom                 Charge (a.u.)
  ----------------------------------------
      1 O                    -0.205738
      2 O                    -0.220610
      3 O                    -0.248541
      4 C                     0.464359
      5 C                    -0.181038
      6 H                     0.187147
      7 H                     0.204421
  ----------------------------------------
  Sum of atomic charges =    -0.000000

 -----------------------------------------------------------------
                    Cartesian Multipole Moments
 -----------------------------------------------------------------
    Charge (ESU x 10^10)
                -0.0000
    Dipole Moment (Debye)
         X       2.1370      Y       1.3709      Z      -0.4068
       Tot       2.5713
    Quadrupole Moments (Debye-Ang)
        XX     -21.5247     XY      -0.8071     YY     -31.8482
        XZ      -0.2446     YZ       1.0690     ZZ     -26.5979
    Octopole Moments (Debye-Ang^2)
       XXX      24.3426    XXY       5.4062    XYY       0.7358
       YYY       2.5071    XXZ      -1.1735    XYZ      -0.2821
       YYZ       1.4817    XZZ       0.0394    YZZ       0.8018
       ZZZ       3.7181
    Hexadecapole Moments (Debye-Ang^3)
      XXXX    -413.3918   XXXY      14.8473   XXYY     -99.1760
      XYYY      39.3150   YYYY    -144.1207   XXXZ       3.8198
      XXYZ       4.3753   XYYZ      -0.3507   YYYZ      11.1333
      XXZZ     -78.5811   XYZZ      10.6880   YYZZ     -27.2507
      XZZZ       3.6300   YZZZ       9.7727   ZZZZ     -26.7594
 -----------------------------------------------------------------
Archival summary:
1\1\nid02549\OPT\ProcedureUnspecified\BasisUnspecified\322\sblau\FriAug2413:03:202018FriAug2413:03:202018\0\\#,OPT,ProcedureUnspecified,BasisUnspecified,\\0,1\C\O,1,1.15483\O,1,1.15908,2,177.893\H,3,2.68447,1,112.601,2,-179.179,0\C,4,1.10571,3,108.912,1,0.0360411,0\H,5,1.10624,4,117.042,3,178.942,0\O,5,1.19966,4,121.505,3,-1.05404,0\\\@

 Total job time:  288.71s(wall), 8033.56s(cpu) 
 Fri Aug 24 13:03:20 2018

        *************************************************************
        *                                                           *
        *  Thank you very much for using Q-Chem.  Have a nice day.  *
        *                                                           *
        *************************************************************


0 sent ACK to 0 
now end server 0 ... 
cleanup process ... done
