 vasp.5.3.5 31Mar14 (build Apr 25 2014 17:03:44) complex                        
  
 executed on             LinuxIFC date 2014.08.25  12:58:54
 running on   12 total cores
 distrk:  each k-point on   12 cores,    1 groups
 distr:  one band on NCORES_PER_BAND=   1 cores,   12 groups


--------------------------------------------------------------------------------------------------------


 INCAR:
 POTCAR:   PAW_PBE Fe 06Sep2000                   
 POTCAR:   PAW_PBE O 08Apr2002                    

 ----------------------------------------------------------------------------- 
|                                                                             |
|           W    W    AA    RRRRR   N    N  II  N    N   GGGG   !!!           |
|           W    W   A  A   R    R  NN   N  II  NN   N  G    G  !!!           |
|           W    W  A    A  R    R  N N  N  II  N N  N  G       !!!           |
|           W WW W  AAAAAA  RRRRR   N  N N  II  N  N N  G  GGG   !            |
|           WW  WW  A    A  R   R   N   NN  II  N   NN  G    G                |
|           W    W  A    A  R    R  N    N  II  N    N   GGGG   !!!           |
|                                                                             |
|      For optimal performance we recommend to set                            |
|        NCORE= 4 - approx SQRT( number of cores)                             |
|      NCORE specifies how many cores store one orbital (NPAR=cpu/NCORE).     |
|      This setting can  greatly improve the performance of VASP for DFT.     |
|      The default, NPAR=number of cores might be grossly inefficient         |
|      on modern multi-core architectures or massively parallel machines.     |
|      Do your own testing !!!!                                               |
|      Unfortunately you need to use the default for GW and RPA calculations. |
|      (for HF NCORE is supported but not extensively tested yet)             |
|                                                                             |
 ----------------------------------------------------------------------------- 

 POTCAR:   PAW_PBE Fe 06Sep2000                   
   VRHFIN =Fe:  d7 s1                                                           
   LEXCH  = PE                                                                  
   EATOM  =   594.4687 eV,   43.6922 Ry                                         
                                                                                
   TITEL  = PAW_PBE Fe 06Sep2000                                                
   LULTRA =        F    use ultrasoft PP ?                                      
   IUNSCR =        1    unscreen: 0-lin 1-nonlin 2-no                           
   RPACOR =    2.000    partial core radius                                     
   POMASS =   55.847; ZVAL   =    8.000    mass and valenz                      
   RCORE  =    2.300    outmost cutoff radius                                   
   RWIGS  =    2.460; RWIGS  =    1.302    wigner-seitz radius (au A)           
   ENMAX  =  267.883; ENMIN  =  200.912 eV                                      
   RCLOC  =    1.701    cutoff for local pot                                    
   LCOR   =        T    correct aug charges                                     
   LPAW   =        T    paw PP                                                  
   EAUG   =  511.368                                                            
   DEXC   =    -.022                                                            
   RMAX   =    2.817    core radius for proj-oper                               
   RAUG   =    1.300    factor for augmentation sphere                          
   RDEP   =    2.442    radius for radial grids                                 
   QCUT   =   -4.437; QGAM   =    8.874    optimization parameters              
                                                                                
   Description                                                                  
     l     E      TYP  RCUT    TYP  RCUT                                        
     2   .000     23  2.300                                                     
     2   .000     23  2.300                                                     
     0   .000     23  2.300                                                     
     0   .000     23  2.300                                                     
     1  -.200     23  2.300                                                     
     1   .000     23  2.300                                                     
     3   .000      7   .000                                                     
  local pseudopotential read in
  partial core-charges read in
  atomic valenz-charges read in
  non local Contribution for L=           2  read in
    real space projection operators read in
  non local Contribution for L=           2  read in
    real space projection operators read in
  non local Contribution for L=           0  read in
    real space projection operators read in
  non local Contribution for L=           0  read in
    real space projection operators read in
  non local Contribution for L=           1  read in
    real space projection operators read in
  non local Contribution for L=           1  read in
    real space projection operators read in
    PAW grid and wavefunctions read in
 
   number of l-projection  operators is LMAX  =           6
   number of lm-projection operators is LMMAX =          18
 
 POTCAR:   PAW_PBE O 08Apr2002                    
   VRHFIN =O: s2p4                                                              
   LEXCH  = PE                                                                  
   EATOM  =   432.3788 eV,   31.7789 Ry                                         
                                                                                
   TITEL  = PAW_PBE O 08Apr2002                                                 
   LULTRA =        F    use ultrasoft PP ?                                      
   IUNSCR =        0    unscreen: 0-lin 1-nonlin 2-no                           
   RPACOR =     .000    partial core radius                                     
   POMASS =   16.000; ZVAL   =    6.000    mass and valenz                      
   RCORE  =    1.520    outmost cutoff radius                                   
   RWIGS  =    1.550; RWIGS  =     .820    wigner-seitz radius (au A)           
   ENMAX  =  400.000; ENMIN  =  300.000 eV                                      
   ICORE  =        2    local potential                                         
   LCOR   =        T    correct aug charges                                     
   LPAW   =        T    paw PP                                                  
   EAUG   =  605.392                                                            
   DEXC   =     .000                                                            
   RMAX   =    2.264    core radius for proj-oper                               
   RAUG   =    1.300    factor for augmentation sphere                          
   RDEP   =    1.550    radius for radial grids                                 
   QCUT   =   -5.520; QGAM   =   11.041    optimization parameters              
                                                                                
   Description                                                                  
     l     E      TYP  RCUT    TYP  RCUT                                        
     0   .000     23  1.200                                                     
     0  -.700     23  1.200                                                     
     1   .000     23  1.520                                                     
     1   .600     23  1.520                                                     
     2   .000      7  1.500                                                     
  local pseudopotential read in
  atomic valenz-charges read in
  non local Contribution for L=           0  read in
    real space projection operators read in
  non local Contribution for L=           0  read in
    real space projection operators read in
  non local Contribution for L=           1  read in
    real space projection operators read in
  non local Contribution for L=           1  read in
    real space projection operators read in
    PAW grid and wavefunctions read in
 
   number of l-projection  operators is LMAX  =           4
   number of lm-projection operators is LMMAX =           8
 

 ----------------------------------------------------------------------------- 
|                                                                             |
|  ADVICE TO THIS USER RUNNING 'VASP/VAMP'   (HEAR YOUR MASTER'S VOICE ...):  |
|                                                                             |
|      You have a (more or less) 'small supercell' and for smaller cells      |
|      it is recommended  to use the reciprocal-space projection scheme!      |
|      The real space optimization is not  efficient for small cells and it   |
|      is also less accurate ...                                              |
|      Therefore set LREAL=.FALSE. in the  INCAR file                         |
|                                                                             |
 ----------------------------------------------------------------------------- 

 Optimization of the real space projectors (new method)

 maximal supplied QI-value         = 16.25
 optimisation between [QCUT,QGAM] = [ 11.54, 23.24] = [ 37.28,151.24] Ry 
 Optimized for a Real-space Cutoff    1.53 Angstroem

   l    n(q)    QCUT    max X(q) W(low)/X(q) W(high)/X(q)  e(spline) 
   2     10    11.539     4.378    0.86E-05    0.15E-04    0.46E-07
   2     10    11.539    23.237    0.11E-03    0.14E-03    0.22E-06
   0     11    11.539    17.641    0.19E-04    0.14E-05    0.18E-07
   0     11    11.539    50.908    0.43E-04    0.16E-04    0.30E-06
   1     10    11.539     6.148    0.11E-04    0.38E-05    0.26E-07
   1     10    11.539     8.345    0.44E-04    0.25E-04    0.11E-06
 Optimization of the real space projectors (new method)

 maximal supplied QI-value         = 24.76
 optimisation between [QCUT,QGAM] = [ 11.64, 23.27] = [ 37.91,151.63] Ry 
 Optimized for a Real-space Cutoff    1.08 Angstroem

   l    n(q)    QCUT    max X(q) W(low)/X(q) W(high)/X(q)  e(spline) 
   0      7    11.635     4.192    0.54E-04    0.80E-04    0.26E-07
   0      7    11.635     8.473    0.70E-04    0.40E-03    0.21E-06
   1      7    11.635     2.474    0.39E-04    0.14E-03    0.23E-07
   1      7    11.635     3.912    0.25E-03    0.37E-03    0.22E-06
 PAW_PBE Fe 06Sep2000                   :
 energy of atom  1       EATOM= -594.4687
 kinetic energy error for atom=    0.0026 (will be added to EATOM!!)
 PAW_PBE O 08Apr2002                    :
 energy of atom  2       EATOM= -432.3788
 kinetic energy error for atom=    0.0208 (will be added to EATOM!!)
 
 
 POSCAR: Fe2 O2                                  
  positions in direct lattice
  No initial velocities read in
 exchange correlation table for  LEXCH =        8
   RHO(1)=    0.500       N(1)  =     2000
   RHO(2)=  100.500       N(2)  =     4000
 


--------------------------------------------------------------------------------------------------------


 ion  position               nearest neighbor table
   1  0.000  0.000  0.000-   3 2.07   4 2.07   4 2.26   3 2.26   4 2.26   3 2.26   2 3.08   2 3.08
                             2 3.08   2 3.08
   2  0.500  0.000  0.500-   3 2.15   4 2.15   3 2.15   4 2.15   3 2.25   4 2.25   1 3.08   1 3.08
                             1 3.08   1 3.08
   3  0.228  0.456  0.749-   1 2.07   2 2.15   2 2.15   2 2.25   1 2.26   1 2.26
   4  0.772  0.544  0.251-   1 2.07   2 2.15   2 2.15   2 2.25   1 2.26   1 2.26
 
  LATTYP: Found a base centered monoclinic cell.
 ALAT       =     5.3698332063
 B/A-ratio  =     0.5713699505
 C/A-ratio  =     1.1800638612
 COS(beta)  =    -0.5169622510
  
  Lattice vectors:
  
 A1 = (   0.9293180000,   2.5618420000,   1.4613400000)
 A2 = (  -1.7304650000,   2.5618420000,  -0.0680940000)
 A3 = (  -1.8586360000,  -5.1236840000,   3.2322880000)


Analysis of symmetry for initial positions (statically):
=====================================================================
 Subroutine PRICEL returns:
 Original cell was already a primitive cell.
 

 Routine SETGRP: Setting up the symmetry group for a 
 base centered monoclinic supercell.


 Subroutine GETGRP returns: Found  4 space group operations
 (whereof  4 operations were pure point group operations)
 out of a pool of  4 trial point group operations.


The static configuration has the point symmetry C_2h.


Analysis of symmetry for dynamics (positions and initial velocities):
=====================================================================
 Subroutine PRICEL returns:
 Original cell was already a primitive cell.
 

 Routine SETGRP: Setting up the symmetry group for a 
 base centered monoclinic supercell.


 Subroutine GETGRP returns: Found  4 space group operations
 (whereof  4 operations were pure point group operations)
 out of a pool of  4 trial point group operations.


The dynamic configuration has the point symmetry C_2h.


Analysis of magnetic symmetry:
=====================================================================
 Subroutine PRICEL returns:
 Original cell was already a primitive cell.
 

 Subroutine MAGSYM returns: Found  4 space group operations
 (whereof  4 operations were pure point group operations)
 out of a pool of  4 trial space group operations
 (whereof  4 operations were pure point group operations)
 and found also     1 'primitive' translations


The magnetic configuration has the point symmetry C_2h.
 
 
 KPOINTS: pymatgen generated KPOINTS with grid den

Automatic generation of k-mesh.
Space group operators:
 irot       det(A)        alpha          n_x          n_y          n_z        tau_x        tau_y        tau_z
    1     1.000000     0.000000     1.000000     0.000000     0.000000     0.000000     0.000000     0.000000
    2    -1.000000     0.000000     1.000000     0.000000     0.000000     0.000000     0.000000     0.000000
    3     1.000000   180.000000     0.866898     0.000000     0.498485     0.000000     0.000000     0.000000
    4    -1.000000   180.000000     0.866898     0.000000     0.498485     0.000000     0.000000     0.000000
 
 Subroutine IBZKPT returns following result:
 ===========================================
 
 Found      1 irreducible k-points:
 
 Following reciprocal coordinates:
            Coordinates               Weight
  0.000000  0.000000  0.000000      1.000000
 
 Following cartesian coordinates:
            Coordinates               Weight
  0.000000  0.000000  0.000000      1.000000
 


--------------------------------------------------------------------------------------------------------




 Dimension of arrays:
   k-points           NKPTS =      1   k-points in BZ     NKDIM =      1   number of bands    NBANDS=     24
   number of dos      NEDOS =    301   number of ions     NIONS =      4
   non local maximal  LDIM  =      6   non local SUM 2l+1 LMDIM =     18
   total plane-waves  NPLWV =  23040
   max r-space proj   IRMAX =   8353   max aug-charges    IRDMAX=  19767
   dimension x,y,z NGX =    24 NGY =   24 NGZ =   40
   dimension x,y,z NGXF=    48 NGYF=   48 NGZF=   80
   support grid    NGXF=    48 NGYF=   48 NGZF=   80
   ions per type =               2   2
 NGX,Y,Z   is equivalent  to a cutoff of  13.00, 12.90, 12.46 a.u.
 NGXF,Y,Z  is equivalent  to a cutoff of  26.01, 25.81, 24.93 a.u.


 I would recommend the setting:
   dimension x,y,z NGX =    23 NGY =   23 NGZ =   40
 SYSTEM =  unknown system                          
 POSCAR =  Fe2 O2                                  

 Startparameter for this run:
   NWRITE =      2    write-flag & timer
   PREC   = accura    normal or accurate (medium, high low for compatibility)
   ISTART =      0    job   : 0-new  1-cont  2-samecut
   ICHARG =      1    charge: 1-file 2-atom 10-const
   ISPIN  =      2    spin polarized calculation?
   LNONCOLLINEAR =      F non collinear calculations
   LSORBIT =      F    spin-orbit coupling
   INIWAV =      1    electr: 0-lowe 1-rand  2-diag
   LASPH  =      F    aspherical Exc in radial PAW
   METAGGA=      F    non-selfconsistent MetaGGA calc.

 Electronic Relaxation 1
   ENCUT  =  520.0 eV  38.22 Ry    6.18 a.u.   5.70  5.75  9.92*2*pi/ulx,y,z
   ENINI  =  520.0     initial cutoff
   ENAUG  =  605.4 eV  augmentation charge cutoff
   NELM   =    100;   NELMIN=  6; NELMDL=  0     # of ELM steps 
   EDIFF  = 0.2E-03   stopping-criterion for ELM
   LREAL  =      T    real-space projection
   NLSPLINE    = F    spline interpolate recip. space projectors
   LCOMPAT=      F    compatible to vasp.4.4
   GGA_COMPAT  = T    GGA compatible to vasp.4.4-vasp.4.6
   LMAXPAW     = -100 max onsite density
   LMAXMIX     =    4 max onsite mixed and CHGCAR
   VOSKOWN=      0    Vosko Wilk Nusair interpolation
   ROPT   =   -0.00025  -0.00025
 Ionic relaxation
   EDIFFG = 0.2E-02   stopping-criterion for IOM
   NSW    =     99    number of steps for IOM
   NBLOCK =      1;   KBLOCK =     99    inner block; outer block 
   IBRION =      2    ionic relax: 0-MD 1-quasi-New 2-CG
   NFREE  =      1    steps in history (QN), initial steepest desc. (CG)
   ISIF   =      3    stress and relaxation
   IWAVPR =     11    prediction:  0-non 1-charg 2-wave 3-comb
   ISYM   =      2    0-nonsym 1-usesym 2-fastsym
   LCORR  =      T    Harris-Foulkes like correction to forces

   POTIM  = 0.5000    time-step for ionic-motion
   TEIN   =    0.0    initial temperature
   TEBEG  =    0.0;   TEEND  =   0.0 temperature during run
   SMASS  =  -3.00    Nose mass-parameter (am)
   estimated Nose-frequenzy (Omega)   =  0.10E-29 period in steps =****** mass=  -0.215E-27a.u.
   SCALEE = 1.0000    scale energy and forces
   NPACO  =    256;   APACO  = 16.0  distance and # of slots for P.C.
   PSTRESS=    0.0 pullay stress

  Mass of Ions in am
   POMASS =  55.85 16.00
  Ionic Valenz
   ZVAL   =   8.00  6.00
  Atomic Wigner-Seitz radii
   RWIGS  =  -1.00 -1.00
  virtual crystal weights 
   VCA    =   1.00  1.00
   NELECT =      28.0000    total number of electrons
   NUPDOWN=      -1.0000    fix difference up-down

 DOS related values:
   EMIN   =  10.00;   EMAX   =-10.00  energy-range for DOS
   EFERMI =   0.00
   ISMEAR =     0;   SIGMA  =   0.05  broadening in eV -4-tet -1-fermi 0-gaus

 Electronic relaxation 2 (details)
   IALGO  =     68    algorithm
   LDIAG  =      T    sub-space diagonalisation (order eigenvalues)
   LSUBROT=      F    optimize rotation matrix (better conditioning)
   TURBO    =      0    0=normal 1=particle mesh
   IRESTART =      0    0=no restart 2=restart with 2 vectors
   NREBOOT  =      0    no. of reboots
   NMIN     =      0    reboot dimension
   EREF     =   0.00    reference energy to select bands
   IMIX   =      4    mixing-type and parameters
     AMIX     =   0.40;   BMIX     =  1.00
     AMIX_MAG =   1.60;   BMIX_MAG =  1.00
     AMIN     =   0.10
     WC   =   100.;   INIMIX=   1;  MIXPRE=   1;  MAXMIX= -45

 Intra band minimization:
   WEIMIN = 0.0010     energy-eigenvalue tresh-hold
   EBREAK =  0.21E-05  absolut break condition
   DEPER  =   0.30     relativ break condition  

   TIME   =   0.40     timestep for ELM

  volume/ion in A,a.u.               =      10.48        70.76
  Fermi-wavevector in a.u.,A,eV,Ry     =   1.430823  2.703864 27.854607  2.047256
  Thomas-Fermi vector in A             =   2.550627
 
 Write flags
   LWAVE  =      F    write WAVECAR
   LCHARG =      T    write CHGCAR
   LVTOT  =      F    write LOCPOT, total local potential
   LVHAR  =      F    write LOCPOT, Hartree potential only
   LELF   =      F    write electronic localiz. function (ELF)
   LORBIT =     11    0 simple, 1 ext, 2 COOP (PROOUT)


 Dipole corrections
   LMONO  =      F    monopole corrections only (constant potential shift)
   LDIPOL =      F    correct potential (dipole corrections)
   IDIPOL =      0    1-x, 2-y, 3-z, 4-all directions 
   EPSILON=  1.0000000 bulk dielectric constant

 LDA+U is selected, type is set to LDAUTYPE =  2
   angular momentum for each species LDAUL =     2    0
   U (eV)           for each species LDAUU =   4.0  0.0
   J (eV)           for each species LDAUJ =   0.0  0.0
 Exchange correlation treatment:
   GGA     =    --    GGA type
   LEXCH   =     8    internal setting for exchange type
   VOSKOWN=      0    Vosko Wilk Nusair interpolation
   LHFCALC =     F    Hartree Fock is set to
   LHFONE  =     F    Hartree Fock one center treatment
   AEXX    =    0.0000 exact exchange contribution

 Linear response parameters
   LEPSILON=     F    determine dielectric tensor
   LRPA    =     F    only Hartree local field effects (RPA)
   LNABLA  =     F    use nabla operator in PAW spheres
   LVEL    =     F    velocity operator in full k-point grid
   LINTERFAST=   F  fast interpolation
   KINTER  =     0    interpolate to denser k-point grid
   CSHIFT  =0.1000    complex shift for real part using Kramers Kronig
   OMEGAMAX=  -1.0    maximum frequency
   DEG_THRESHOLD= 0.2000000E-02 threshold for treating states as degnerate
   RTIME   =    0.100 relaxation time in fs

 Orbital magnetization related:
   ORBITALMAG=     F  switch on orbital magnetization
   LCHIMAG   =     F  perturbation theory with respect to B field
   DQ        =  0.001000  dq finite difference perturbation B field



--------------------------------------------------------------------------------------------------------


 conjugate gradient relaxation of ions
 charge density and potential will be updated during run
 spin polarized calculation
 RMM-DIIS sequential band-by-band and
  variant of blocked Davidson during initial phase
 perform sub-space diagonalisation
    before iterative eigenvector-optimisation
 modified Broyden-mixing scheme, WC =      100.0
 initial mixing is a Kerker type mixing with AMIX =  0.4000 and BMIX =      1.0000
 Hartree-type preconditioning will be used
 using additional bands           10
 real space projection scheme for non local part
 use partial core corrections
 calculate Harris-corrections to forces 
   (improved forces if not selfconsistent)
 use gradient corrections 
 use of overlap-Matrix (Vanderbilt PP)
 Gauss-broadening in eV      SIGMA  =   0.05


--------------------------------------------------------------------------------------------------------


  energy-cutoff  :      520.00
  volume of cell :       41.94
      direct lattice vectors                 reciprocal lattice vectors
    -2.659783000  0.000000000 -1.529434000    -0.282546461  0.195172060 -0.162470382
     0.929318000  2.561842000  1.461340000     0.000000000  0.390344135  0.000000000
     2.659783000  0.000000000 -4.625534000     0.093424060  0.058787313 -0.162470382

  length of vectors
     3.068161333  3.092277635  5.335729603     0.379896381  0.390344135  0.196419520


 
 k-points in units of 2pi/SCALE and weight: pymatgen generated KPOINTS with grid den
   0.00000000  0.00000000  0.00000000       1.000
 
 k-points in reciprocal lattice and weights: pymatgen generated KPOINTS with grid den
   0.00000000  0.00000000  0.00000000       1.000
 
 position of ions in fractional coordinates (direct lattice) 
   0.00000000  0.00000000  0.00000000
   0.50000000  0.00000000  0.50000000
   0.22793100  0.45586200  0.74854800
   0.77206900  0.54413800  0.25145200
 
 position of ions in cartesian coordinates  (Angst):
   0.00000000  0.00000000  0.00000000
   0.00000000  0.00000000 -3.07748400
   1.80836901  1.16784642 -3.14487027
  -0.87905101  1.39399558 -1.54875773
 


--------------------------------------------------------------------------------------------------------


 k-point  1 :   0.0000 0.0000 0.0000  plane waves:    1119

 maximum and minimum number of plane-waves per node :      1119     1119

 maximum number of plane-waves:      1119
 maximum index in each direction: 
   IXMAX=    5   IYMAX=    5   IZMAX=    9
   IXMIN=   -5   IYMIN=   -5   IZMIN=   -9

 NGX is ok and might be reduce to  22
 NGY is ok and might be reduce to  22
 NGZ is ok and might be reduce to  38

 serial   3D FFT for wavefunctions
 parallel 3D FFT for charge:
    minimum data exchange during FFTs selected (reduces bandwidth)


 total amount of memory used by VASP on root node    37462. kBytes
========================================================================

   base      :      30000. kBytes
   nonlr-proj:       3522. kBytes
   fftplans  :        625. kBytes
   grid      :       3115. kBytes
   one-center:        124. kBytes
   wavefun   :         76. kBytes
 
     INWAV:  cpu time    0.00: real time    0.00
 Broyden mixing: mesh for mixing (old mesh)
   NGX = 11   NGY = 11   NGZ = 19
  (NGX  = 48   NGY  = 48   NGZ  = 80)
  gives a total of   2299 points

 initial charge density was supplied:
 charge density of overlapping atoms calculated
 number of electron      28.0000000 magnetization       1.2000000
 keeping initial charge density in first step


--------------------------------------------------------------------------------------------------------


 Maximum index for non-local projection operator         8087
 Maximum index for augmentation-charges         1663 (set IRDMAX)


--------------------------------------------------------------------------------------------------------


 First call to EWALD:  gamma=   0.510
 Maximum number of real-space cells 3x 4x 2
 Maximum number of reciprocal cells 2x 2x 4

 FEWALD executed in parallel
    FEWALD:  cpu time    0.00: real time    0.00


----------------------------------------- Iteration    1(   1)  ---------------------------------------


    POTLOK:  cpu time    0.11: real time    0.12
    SETDIJ:  cpu time    0.02: real time    0.02
     EDDAV:  cpu time    0.19: real time    0.22
       DOS:  cpu time    0.00: real time    0.02
    --------------------------------------------
      LOOP:  cpu time    0.32: real time    0.37

 eigenvalue-minimisations  :    96
 total energy-change (2. order) : 0.1970352E+03  (-0.1403194E+04)
 number of electron      28.0000000 magnetization       1.2000000
 augmentation part       28.0000000 magnetization       1.2000000

 Free energy of the ion-electron system (eV)
  ---------------------------------------------------
  alpha Z        PSCENC =       146.23189702
  Ewald energy   TEWEN  =     -1849.99285219
  -Hartree energ DENC   =      -411.94114337
  -exchange      EXHF   =         0.00000000
  -V(xc)+E(xc)   XCENC  =        67.70873740
  PAW double counting   =      1443.64007120    -1440.17014874
  entropy T*S    EENTRO =        -0.00000184
  eigenvalues    EBANDS =       187.91045996
  atomic energy  EATOM  =      2053.64813947
  ---------------------------------------------------
  free energy    TOTEN  =       197.03515890 eV

  energy without entropy =      197.03516074  energy(sigma->0) =      197.03515982


--------------------------------------------------------------------------------------------------------




----------------------------------------- Iteration    1(   2)  ---------------------------------------


     EDDAV:  cpu time    0.21: real time    0.21
       DOS:  cpu time    0.00: real time    0.00
    --------------------------------------------
      LOOP:  cpu time    0.21: real time    0.21

 eigenvalue-minimisations  :   108
 total energy-change (2. order) :-0.2157478E+03  (-0.1985608E+03)
 number of electron      28.0000000 magnetization       1.2000000
 augmentation part       28.0000000 magnetization       1.2000000

 Free energy of the ion-electron system (eV)
  ---------------------------------------------------
  alpha Z        PSCENC =       146.23189702
  Ewald energy   TEWEN  =     -1849.99285219
  -Hartree energ DENC   =      -411.94114337
  -exchange      EXHF   =         0.00000000
  -V(xc)+E(xc)   XCENC  =        67.70873740
  PAW double counting   =      1443.64007120    -1440.17014874
  entropy T*S    EENTRO =        -0.00000000
  eigenvalues    EBANDS =       -27.83738005
  atomic energy  EATOM  =      2053.64813947
  ---------------------------------------------------
  free energy    TOTEN  =       -18.71267927 eV

  energy without entropy =      -18.71267927  energy(sigma->0) =      -18.71267927


--------------------------------------------------------------------------------------------------------




----------------------------------------- Iteration    1(   3)  ---------------------------------------


     EDDAV:  cpu time    0.22: real time    0.22
       DOS:  cpu time    0.00: real time    0.00
    --------------------------------------------
      LOOP:  cpu time    0.22: real time    0.22

 eigenvalue-minimisations  :   120
 total energy-change (2. order) :-0.1460806E+02  (-0.1446598E+02)
 number of electron      28.0000000 magnetization       1.2000000
 augmentation part       28.0000000 magnetization       1.2000000

 Free energy of the ion-electron system (eV)
  ---------------------------------------------------
  alpha Z        PSCENC =       146.23189702
  Ewald energy   TEWEN  =     -1849.99285219
  -Hartree energ DENC   =      -411.94114337
  -exchange      EXHF   =         0.00000000
  -V(xc)+E(xc)   XCENC  =        67.70873740
  PAW double counting   =      1443.64007120    -1440.17014874
  entropy T*S    EENTRO =        -0.00000000
  eigenvalues    EBANDS =       -42.44544380
  atomic energy  EATOM  =      2053.64813947
  ---------------------------------------------------
  free energy    TOTEN  =       -33.32074301 eV

  energy without entropy =      -33.32074301  energy(sigma->0) =      -33.32074301


--------------------------------------------------------------------------------------------------------




----------------------------------------- Iteration    1(   4)  ---------------------------------------


     EDDAV:  cpu time    0.24: real time    0.24
       DOS:  cpu time    0.00: real time    0.00
    --------------------------------------------
      LOOP:  cpu time    0.24: real time    0.24

 eigenvalue-minimisations  :   132
 total energy-change (2. order) :-0.1655035E+00  (-0.1654831E+00)
 number of electron      28.0000000 magnetization       1.2000000
 augmentation part       28.0000000 magnetization       1.2000000

 Free energy of the ion-electron system (eV)
  ---------------------------------------------------
  alpha Z        PSCENC =       146.23189702
  Ewald energy   TEWEN  =     -1849.99285219
  -Hartree energ DENC   =      -411.94114337
  -exchange      EXHF   =         0.00000000
  -V(xc)+E(xc)   XCENC  =        67.70873740
  PAW double counting   =      1443.64007120    -1440.17014874
  entropy T*S    EENTRO =        -0.00000000
  eigenvalues    EBANDS =       -42.61094729
  atomic energy  EATOM  =      2053.64813947
  ---------------------------------------------------
  free energy    TOTEN  =       -33.48624650 eV

  energy without entropy =      -33.48624650  energy(sigma->0) =      -33.48624650


--------------------------------------------------------------------------------------------------------




----------------------------------------- Iteration    1(   5)  ---------------------------------------


     EDDAV:  cpu time    0.20: real time    0.20
       DOS:  cpu time    0.00: real time    0.00
    CHARGE:  cpu time    0.03: real time    0.03
    MIXING:  cpu time    0.00: real time    0.00
    --------------------------------------------
      LOOP:  cpu time    0.23: real time    0.23

 eigenvalue-minimisations  :   108
 total energy-change (2. order) :-0.2742716E-02  (-0.2742706E-02)
 number of electron      28.0000006 magnetization       0.0409680
 augmentation part        8.2159850 magnetization       0.0464636

 Broyden mixing:
  rms(total) = 0.24562E+01    rms(broyden)= 0.24557E+01
  rms(prec ) = 0.49178E+01
  weight for this iteration     100.00

 Free energy of the ion-electron system (eV)
  ---------------------------------------------------
  alpha Z        PSCENC =       146.23189702
  Ewald energy   TEWEN  =     -1849.99285219
  -Hartree energ DENC   =      -411.94114337
  -exchange      EXHF   =         0.00000000
  -V(xc)+E(xc)   XCENC  =        67.70873740
  PAW double counting   =      1443.64007120    -1440.17014874
  entropy T*S    EENTRO =        -0.00000000
  eigenvalues    EBANDS =       -42.61369000
  atomic energy  EATOM  =      2053.64813947
  ---------------------------------------------------
  free energy    TOTEN  =       -33.48898922 eV

  energy without entropy =      -33.48898922  energy(sigma->0) =      -33.48898922


--------------------------------------------------------------------------------------------------------




----------------------------------------- Iteration    1(   6)  ---------------------------------------


    POTLOK:  cpu time    0.08: real time    0.08
    SETDIJ:  cpu time    0.02: real time    0.02
    EDDIAG:  cpu time    0.02: real time    0.02
  RMM-DIIS:  cpu time    0.11: real time    0.11
    ORTHCH:  cpu time    0.00: real time    0.00
       DOS:  cpu time    0.00: real time    0.00
    CHARGE:  cpu time    0.03: real time    0.04
    MIXING:  cpu time    0.00: real time    0.00
    --------------------------------------------
      LOOP:  cpu time    0.28: real time    0.28

 eigenvalue-minimisations  :    96
 total energy-change (2. order) : 0.8250804E+01  (-0.7575200E+01)
 number of electron      27.9999997 magnetization      -0.3112385
 augmentation part       13.2812971 magnetization       0.7378448

 Broyden mixing:
  rms(total) = 0.56321E+01    rms(broyden)= 0.56311E+01
  rms(prec ) = 0.96237E+01
  weight for this iteration     100.00

 eigenvalues of (default mixing * dielectric matrix)
  average eigenvalue GAMMA=   0.2291
  0.2291

 Free energy of the ion-electron system (eV)
  ---------------------------------------------------
  alpha Z        PSCENC =       146.23189702
  Ewald energy   TEWEN  =     -1849.99285219
  -Hartree energ DENC   =      -413.47079653
  -exchange      EXHF   =         0.00000000
  -V(xc)+E(xc)   XCENC  =        71.98566954
  PAW double counting   =      1451.03007575    -1439.75532642
  entropy T*S    EENTRO =        -0.03970439
  eigenvalues    EBANDS =       -44.87528747
  atomic energy  EATOM  =      2053.64813947
  ---------------------------------------------------
  free energy    TOTEN  =       -25.23818522 eV

  energy without entropy =      -25.19848084  energy(sigma->0) =      -25.21833303


--------------------------------------------------------------------------------------------------------




----------------------------------------- Iteration    1(   7)  ---------------------------------------


    POTLOK:  cpu time    0.08: real time    0.08
    SETDIJ:  cpu time    0.02: real time    0.02
    EDDIAG:  cpu time    0.02: real time    0.02
  RMM-DIIS:  cpu time    0.11: real time    0.11
    ORTHCH:  cpu time    0.00: real time    0.00
       DOS:  cpu time    0.00: real time    0.00
    CHARGE:  cpu time    0.03: real time    0.03
    MIXING:  cpu time    0.00: real time    0.00
    --------------------------------------------
      LOOP:  cpu time    0.27: real time    0.27

 eigenvalue-minimisations  :    96
 total energy-change (2. order) : 0.4216239E+01  (-0.3275403E+01)
 number of electron      28.0000005 magnetization      -0.2573278
 augmentation part        8.4739014 magnetization      -0.2884933

 Broyden mixing:
  rms(total) = 0.17994E+01    rms(broyden)= 0.17978E+01
  rms(prec ) = 0.29726E+01
  weight for this iteration     100.00

 eigenvalues of (default mixing * dielectric matrix)
  average eigenvalue GAMMA=   0.5089
  0.2537  0.7641

 Free energy of the ion-electron system (eV)
  ---------------------------------------------------
  alpha Z        PSCENC =       146.23189702
  Ewald energy   TEWEN  =     -1849.99285219
  -Hartree energ DENC   =      -419.16087210
  -exchange      EXHF   =         0.00000000
  -V(xc)+E(xc)   XCENC  =        66.66251599
  PAW double counting   =      1496.30152635    -1497.64780651
  entropy T*S    EENTRO =        -0.00000000
  eigenvalues    EBANDS =       -17.06449407
  atomic energy  EATOM  =      2053.64813947
  ---------------------------------------------------
  free energy    TOTEN  =       -21.02194604 eV

  energy without entropy =      -21.02194604  energy(sigma->0) =      -21.02194604


--------------------------------------------------------------------------------------------------------




----------------------------------------- Iteration    1(   8)  ---------------------------------------


    POTLOK:  cpu time    0.08: real time    0.08
    SETDIJ:  cpu time    0.02: real time    0.02
    EDDIAG:  cpu time    0.02: real time    0.02
  RMM-DIIS:  cpu time    0.11: real time    0.11
    ORTHCH:  cpu time    0.00: real time    0.00
       DOS:  cpu time    0.00: real time    0.00
    CHARGE:  cpu time    0.03: real time    0.03
    MIXING:  cpu time    0.00: real time    0.00
    --------------------------------------------
      LOOP:  cpu time    0.26: real time    0.26

 eigenvalue-minimisations  :    97
 total energy-change (2. order) : 0.5541382E+00  (-0.6422739E-01)
 number of electron      28.0000005 magnetization      -0.1977078
 augmentation part        8.6935897 magnetization      -0.2843124

 Broyden mixing:
  rms(total) = 0.12452E+01    rms(broyden)= 0.12451E+01
  rms(prec ) = 0.22103E+01
  weight for this iteration     100.00

 eigenvalues of (default mixing * dielectric matrix)
  average eigenvalue GAMMA=   0.6167
  0.2788  0.7857  0.7857

 Free energy of the ion-electron system (eV)
  ---------------------------------------------------
  alpha Z        PSCENC =       146.23189702
  Ewald energy   TEWEN  =     -1849.99285219
  -Hartree energ DENC   =      -415.37945535
  -exchange      EXHF   =         0.00000000
  -V(xc)+E(xc)   XCENC  =        67.45626874
  PAW double counting   =      1496.84191951    -1497.57167281
  entropy T*S    EENTRO =        -0.00000000
  eigenvalues    EBANDS =       -21.70205222
  atomic energy  EATOM  =      2053.64813947
  ---------------------------------------------------
  free energy    TOTEN  =       -20.46780784 eV

  energy without entropy =      -20.46780784  energy(sigma->0) =      -20.46780784


--------------------------------------------------------------------------------------------------------




----------------------------------------- Iteration    1(   9)  ---------------------------------------


    POTLOK:  cpu time    0.06: real time    0.06
    SETDIJ:  cpu time    0.02: real time    0.01
    EDDIAG:  cpu time    0.02: real time    0.02
  RMM-DIIS:  cpu time    0.11: real time    0.11
    ORTHCH:  cpu time    0.00: real time    0.00
       DOS:  cpu time    0.00: real time    0.00
    CHARGE:  cpu time    0.03: real time    0.03
    MIXING:  cpu time    0.00: real time    0.00
    --------------------------------------------
      LOOP:  cpu time    0.24: real time    0.24

 eigenvalue-minimisations  :    96
 total energy-change (2. order) : 0.6897818E+00  (-0.5992026E-01)
 number of electron      28.0000004 magnetization      -0.2082975
 augmentation part        9.2179724 magnetization      -0.4719792

 Broyden mixing:
  rms(total) = 0.69238E+00    rms(broyden)= 0.69219E+00
  rms(prec ) = 0.12356E+01
  weight for this iteration     100.00

 eigenvalues of (default mixing * dielectric matrix)
  average eigenvalue GAMMA=   0.5218
  0.8584  0.7698  0.2775  0.1814

 Free energy of the ion-electron system (eV)
  ---------------------------------------------------
  alpha Z        PSCENC =       146.23189702
  Ewald energy   TEWEN  =     -1849.99285219
  -Hartree energ DENC   =      -413.16052813
  -exchange      EXHF   =         0.00000000
  -V(xc)+E(xc)   XCENC  =        67.93061888
  PAW double counting   =      1498.14614071    -1499.26726370
  entropy T*S    EENTRO =        -0.00000056
  eigenvalues    EBANDS =       -23.31417753
  atomic energy  EATOM  =      2053.64813947
  ---------------------------------------------------
  free energy    TOTEN  =       -19.77802604 eV

  energy without entropy =      -19.77802548  energy(sigma->0) =      -19.77802576


--------------------------------------------------------------------------------------------------------




----------------------------------------- Iteration    1(  10)  ---------------------------------------


    POTLOK:  cpu time    0.08: real time    0.08
    SETDIJ:  cpu time    0.02: real time    0.02
    EDDIAG:  cpu time    0.02: real time    0.02
  RMM-DIIS:  cpu time    0.11: real time    0.11
    ORTHCH:  cpu time    0.00: real time    0.00
       DOS:  cpu time    0.00: real time    0.00
    CHARGE:  cpu time    0.03: real time    0.03
    MIXING:  cpu time    0.00: real time    0.00
    --------------------------------------------
      LOOP:  cpu time    0.25: real time    0.25

 eigenvalue-minimisations  :    96
 total energy-change (2. order) : 0.5332305E-01  (-0.2641195E-02)
 number of electron      28.0000004 magnetization      -0.2072345
 augmentation part        9.0898707 magnetization      -0.4322788

 Broyden mixing:
  rms(total) = 0.77807E+00    rms(broyden)= 0.77807E+00
  rms(prec ) = 0.13814E+01
  weight for this iteration     100.00

 eigenvalues of (default mixing * dielectric matrix)
  average eigenvalue GAMMA=   0.4737
  0.8929  0.7421  0.2765  0.2286  0.2286

 Free energy of the ion-electron system (eV)
  ---------------------------------------------------
  alpha Z        PSCENC =       146.23189702
  Ewald energy   TEWEN  =     -1849.99285219
  -Hartree energ DENC   =      -412.87183134
  -exchange      EXHF   =         0.00000000
  -V(xc)+E(xc)   XCENC  =        67.92012292
  PAW double counting   =      1497.33602993    -1498.43033893
  entropy T*S    EENTRO =        -0.00000019
  eigenvalues    EBANDS =       -23.56586968
  atomic energy  EATOM  =      2053.64813947
  ---------------------------------------------------
  free energy    TOTEN  =       -19.72470299 eV

  energy without entropy =      -19.72470280  energy(sigma->0) =      -19.72470289


--------------------------------------------------------------------------------------------------------




----------------------------------------- Iteration    1(  11)  ---------------------------------------


    POTLOK:  cpu time    0.06: real time    0.06
    SETDIJ:  cpu time    0.01: real time    0.02
    EDDIAG:  cpu time    0.02: real time    0.02
  RMM-DIIS:  cpu time    0.11: real time    0.11
    ORTHCH:  cpu time    0.00: real time    0.00
       DOS:  cpu time    0.00: real time    0.00
    CHARGE:  cpu time    0.03: real time    0.03
    MIXING:  cpu time    0.00: real time    0.00
    --------------------------------------------
      LOOP:  cpu time    0.24: real time    0.24

 eigenvalue-minimisations  :    92
 total energy-change (2. order) :-0.3087332E-01  (-0.1550857E-03)
 number of electron      28.0000004 magnetization      -0.1724474
 augmentation part        9.1263948 magnetization      -0.4189100

 Broyden mixing:
  rms(total) = 0.76739E+00    rms(broyden)= 0.76739E+00
  rms(prec ) = 0.13620E+01
  weight for this iteration     100.00

 eigenvalues of (default mixing * dielectric matrix)
  average eigenvalue GAMMA=   0.6075
  0.9044  0.7084  0.2748  0.5753  0.5753  0.6069

 Free energy of the ion-electron system (eV)
  ---------------------------------------------------
  alpha Z        PSCENC =       146.23189702
  Ewald energy   TEWEN  =     -1849.99285219
  -Hartree energ DENC   =      -413.29313137
  -exchange      EXHF   =         0.00000000
  -V(xc)+E(xc)   XCENC  =        67.91245021
  PAW double counting   =      1498.29325111    -1499.39579527
  entropy T*S    EENTRO =        -0.00000109
  eigenvalues    EBANDS =       -23.15953418
  atomic energy  EATOM  =      2053.64813947
  ---------------------------------------------------
  free energy    TOTEN  =       -19.75557631 eV

  energy without entropy =      -19.75557522  energy(sigma->0) =      -19.75557576


--------------------------------------------------------------------------------------------------------




----------------------------------------- Iteration    1(  12)  ---------------------------------------


    POTLOK:  cpu time    0.06: real time    0.06
    SETDIJ:  cpu time    0.01: real time    0.01
    EDDIAG:  cpu time    0.02: real time    0.02
  RMM-DIIS:  cpu time    0.14: real time    0.14
    ORTHCH:  cpu time    0.00: real time    0.00
       DOS:  cpu time    0.00: real time    0.00
    CHARGE:  cpu time    0.03: real time    0.03
    MIXING:  cpu time    0.00: real time    0.00
    --------------------------------------------
      LOOP:  cpu time    0.26: real time    0.26

 eigenvalue-minimisations  :    96
 total energy-change (2. order) : 0.2207558E+00  (-0.2132766E-01)
 number of electron      28.0000004 magnetization      -0.1513752
 augmentation part        9.3050995 magnetization      -0.3249904

 Broyden mixing:
  rms(total) = 0.51648E+00    rms(broyden)= 0.51644E+00
  rms(prec ) = 0.92772E+00
  weight for this iteration     100.00

 eigenvalues of (default mixing * dielectric matrix)
  average eigenvalue GAMMA=   0.6734
  0.8064  0.8150  0.8150  0.8770  0.7411  0.2740  0.3856

 Free energy of the ion-electron system (eV)
  ---------------------------------------------------
  alpha Z        PSCENC =       146.23189702
  Ewald energy   TEWEN  =     -1849.99285219
  -Hartree energ DENC   =      -409.52692200
  -exchange      EXHF   =         0.00000000
  -V(xc)+E(xc)   XCENC  =        68.14634111
  PAW double counting   =      1491.40679333    -1492.65893895
  entropy T*S    EENTRO =        -0.00007135
  eigenvalues    EBANDS =       -26.78920696
  atomic energy  EATOM  =      2053.64813947
  ---------------------------------------------------
  free energy    TOTEN  =       -19.53482053 eV

  energy without entropy =      -19.53474918  energy(sigma->0) =      -19.53478486


--------------------------------------------------------------------------------------------------------




----------------------------------------- Iteration    1(  13)  ---------------------------------------


    POTLOK:  cpu time    0.06: real time    0.06
    SETDIJ:  cpu time    0.01: real time    0.01
    EDDIAG:  cpu time    0.02: real time    0.02
  RMM-DIIS:  cpu time    0.13: real time    0.13
    ORTHCH:  cpu time    0.00: real time    0.00
       DOS:  cpu time    0.00: real time    0.00
    CHARGE:  cpu time    0.02: real time    0.03
    MIXING:  cpu time    0.00: real time    0.00
    --------------------------------------------
      LOOP:  cpu time    0.26: real time    0.26

 eigenvalue-minimisations  :    96
 total energy-change (2. order) : 0.2095584E-01  (-0.1594287E-01)
 number of electron      28.0000003 magnetization      -0.2855652
 augmentation part        9.7512195 magnetization       0.2186126

 Broyden mixing:
  rms(total) = 0.66173E+00    rms(broyden)= 0.66104E+00
  rms(prec ) = 0.11445E+01
  weight for this iteration     100.00

 eigenvalues of (default mixing * dielectric matrix)
  average eigenvalue GAMMA=   0.6085
  0.8417  0.8033  0.8033  0.9322  0.7005  0.2748  0.2561  0.2561

 Free energy of the ion-electron system (eV)
  ---------------------------------------------------
  alpha Z        PSCENC =       146.23189702
  Ewald energy   TEWEN  =     -1849.99285219
  -Hartree energ DENC   =      -406.90567844
  -exchange      EXHF   =         0.00000000
  -V(xc)+E(xc)   XCENC  =        68.30602445
  PAW double counting   =      1485.84831858    -1487.36079946
  entropy T*S    EENTRO =        -0.02789118
  eigenvalues    EBANDS =       -29.26102296
  atomic energy  EATOM  =      2053.64813947
  ---------------------------------------------------
  free energy    TOTEN  =       -19.51386470 eV

  energy without entropy =      -19.48597352  energy(sigma->0) =      -19.49991911


--------------------------------------------------------------------------------------------------------




----------------------------------------- Iteration    1(  14)  ---------------------------------------


    POTLOK:  cpu time    0.06: real time    0.06
    SETDIJ:  cpu time    0.01: real time    0.01
    EDDIAG:  cpu time    0.02: real time    0.02
  RMM-DIIS:  cpu time    0.11: real time    0.11
    ORTHCH:  cpu time    0.00: real time    0.00
       DOS:  cpu time    0.00: real time    0.00
    CHARGE:  cpu time    0.02: real time    0.03
    MIXING:  cpu time    0.00: real time    0.00
    --------------------------------------------
      LOOP:  cpu time    0.23: real time    0.23

 eigenvalue-minimisations  :   100
 total energy-change (2. order) :-0.1335056E+00  (-0.6912084E-02)
 number of electron      28.0000002 magnetization      -0.5197449
 augmentation part        9.9289328 magnetization       0.3318441

 Broyden mixing:
  rms(total) = 0.77169E+00    rms(broyden)= 0.77154E+00
  rms(prec ) = 0.12861E+01
  weight for this iteration     100.00

 eigenvalues of (default mixing * dielectric matrix)
  average eigenvalue GAMMA=   0.6775
  0.8177  0.9729  0.9729  0.9899  0.7380  0.2742  0.5049  0.4135  0.4135

 Free energy of the ion-electron system (eV)
  ---------------------------------------------------
  alpha Z        PSCENC =       146.23189702
  Ewald energy   TEWEN  =     -1849.99285219
  -Hartree energ DENC   =      -406.47293688
  -exchange      EXHF   =         0.00000000
  -V(xc)+E(xc)   XCENC  =        68.41255521
  PAW double counting   =      1486.16150694    -1487.71257706
  entropy T*S    EENTRO =        -0.02563460
  eigenvalues    EBANDS =       -29.89746825
  atomic energy  EATOM  =      2053.64813947
  ---------------------------------------------------
  free energy    TOTEN  =       -19.64737035 eV

  energy without entropy =      -19.62173575  energy(sigma->0) =      -19.63455305


--------------------------------------------------------------------------------------------------------




----------------------------------------- Iteration    1(  15)  ---------------------------------------


    POTLOK:  cpu time    0.06: real time    0.06
    SETDIJ:  cpu time    0.01: real time    0.01
    EDDIAG:  cpu time    0.02: real time    0.02
  RMM-DIIS:  cpu time    0.13: real time    0.14
    ORTHCH:  cpu time    0.00: real time    0.00
       DOS:  cpu time    0.00: real time    0.00
    CHARGE:  cpu time    0.02: real time    0.03
    MIXING:  cpu time    0.00: real time    0.00
    --------------------------------------------
      LOOP:  cpu time    0.26: real time    0.26

 eigenvalue-minimisations  :    96
 total energy-change (2. order) :-0.1835724E+00  (-0.8155197E-02)
 number of electron      28.0000002 magnetization      -0.5751909
 augmentation part        9.8679605 magnetization       0.7819542

 Broyden mixing:
  rms(total) = 0.86191E+00    rms(broyden)= 0.86182E+00
  rms(prec ) = 0.14787E+01
  weight for this iteration     100.00

 eigenvalues of (default mixing * dielectric matrix)
  average eigenvalue GAMMA=   0.6195
  0.8157  0.9152  0.9152  0.9770  0.7550  0.2742  0.5144  0.4524  0.4524  0.1232

 Free energy of the ion-electron system (eV)
  ---------------------------------------------------
  alpha Z        PSCENC =       146.23189702
  Ewald energy   TEWEN  =     -1849.99285219
  -Hartree energ DENC   =      -406.11992275
  -exchange      EXHF   =         0.00000000
  -V(xc)+E(xc)   XCENC  =        68.56112311
  PAW double counting   =      1486.99580452    -1488.62747895
  entropy T*S    EENTRO =        -0.00006892
  eigenvalues    EBANDS =       -30.52758403
  atomic energy  EATOM  =      2053.64813947
  ---------------------------------------------------
  free energy    TOTEN  =       -19.83094272 eV

  energy without entropy =      -19.83087380  energy(sigma->0) =      -19.83090826


--------------------------------------------------------------------------------------------------------




----------------------------------------- Iteration    1(  16)  ---------------------------------------


    POTLOK:  cpu time    0.06: real time    0.06
    SETDIJ:  cpu time    0.01: real time    0.01
    EDDIAG:  cpu time    0.02: real time    0.02
  RMM-DIIS:  cpu time    0.09: real time    0.09
    ORTHCH:  cpu time    0.00: real time    0.00
       DOS:  cpu time    0.00: real time    0.00
    CHARGE:  cpu time    0.03: real time    0.03
    MIXING:  cpu time    0.00: real time    0.00
    --------------------------------------------
      LOOP:  cpu time    0.21: real time    0.21

 eigenvalue-minimisations  :    96
 total energy-change (2. order) :-0.2370730E-01  (-0.7103463E-03)
 number of electron      28.0000002 magnetization      -0.5962544
 augmentation part        9.8766401 magnetization       0.7669483

 Broyden mixing:
  rms(total) = 0.85879E+00    rms(broyden)= 0.85878E+00
  rms(prec ) = 0.14700E+01
  weight for this iteration     100.00

 eigenvalues of (default mixing * dielectric matrix)
  average eigenvalue GAMMA=   0.6841
  0.8478  1.1260  1.1260  0.4625  0.4625  0.9293  0.7707  0.5244  0.2743  0.5008
  0.5008

 Free energy of the ion-electron system (eV)
  ---------------------------------------------------
  alpha Z        PSCENC =       146.23189702
  Ewald energy   TEWEN  =     -1849.99285219
  -Hartree energ DENC   =      -405.75283398
  -exchange      EXHF   =         0.00000000
  -V(xc)+E(xc)   XCENC  =        68.58552613
  PAW double counting   =      1486.26535962    -1487.93998913
  entropy T*S    EENTRO =        -0.00000607
  eigenvalues    EBANDS =       -30.89989088
  atomic energy  EATOM  =      2053.64813947
  ---------------------------------------------------
  free energy    TOTEN  =       -19.85465001 eV

  energy without entropy =      -19.85464394  energy(sigma->0) =      -19.85464698


--------------------------------------------------------------------------------------------------------




----------------------------------------- Iteration    1(  17)  ---------------------------------------


    POTLOK:  cpu time    0.06: real time    0.06
    SETDIJ:  cpu time    0.01: real time    0.01
    EDDIAG:  cpu time    0.02: real time    0.02
  RMM-DIIS:  cpu time    0.09: real time    0.09
    ORTHCH:  cpu time    0.00: real time    0.00
       DOS:  cpu time    0.00: real time    0.00
    CHARGE:  cpu time    0.03: real time    0.03
    MIXING:  cpu time    0.00: real time    0.00
    --------------------------------------------
      LOOP:  cpu time    0.21: real time    0.21

 eigenvalue-minimisations  :    96
 total energy-change (2. order) :-0.4846019E-01  (-0.4517286E-02)
 number of electron      28.0000003 magnetization      -0.4858099
 augmentation part        9.9146299 magnetization       0.8928105

 Broyden mixing:
  rms(total) = 0.87618E+00    rms(broyden)= 0.87615E+00
  rms(prec ) = 0.14923E+01
  weight for this iteration     100.00

 eigenvalues of (default mixing * dielectric matrix)
  average eigenvalue GAMMA=   0.7193
  0.8860  1.2012  1.2012  0.5055  0.5055  0.9516  0.7322  0.7322  0.7558  0.2743
  0.4838  0.4023

 Free energy of the ion-electron system (eV)
  ---------------------------------------------------
  alpha Z        PSCENC =       146.23189702
  Ewald energy   TEWEN  =     -1849.99285219
  -Hartree energ DENC   =      -404.03928258
  -exchange      EXHF   =         0.00000000
  -V(xc)+E(xc)   XCENC  =        68.66811963
  PAW double counting   =      1482.98871295    -1484.72645597
  entropy T*S    EENTRO =        -0.00006470
  eigenvalues    EBANDS =       -32.68132383
  atomic energy  EATOM  =      2053.64813947
  ---------------------------------------------------
  free energy    TOTEN  =       -19.90311020 eV

  energy without entropy =      -19.90304550  energy(sigma->0) =      -19.90307785


--------------------------------------------------------------------------------------------------------




----------------------------------------- Iteration    1(  18)  ---------------------------------------


    POTLOK:  cpu time    0.06: real time    0.06
    SETDIJ:  cpu time    0.01: real time    0.01
    EDDIAG:  cpu time    0.02: real time    0.02
  RMM-DIIS:  cpu time    0.09: real time    0.09
    ORTHCH:  cpu time    0.00: real time    0.00
       DOS:  cpu time    0.00: real time    0.00
    CHARGE:  cpu time    0.02: real time    0.03
    MIXING:  cpu time    0.00: real time    0.00
    --------------------------------------------
      LOOP:  cpu time    0.21: real time    0.21

 eigenvalue-minimisations  :    97
 total energy-change (2. order) : 0.7532413E-01  (-0.3081386E-02)
 number of electron      28.0000003 magnetization      -0.5324642
 augmentation part        9.9452464 magnetization       0.8305048

 Broyden mixing:
  rms(total) = 0.95475E+00    rms(broyden)= 0.95472E+00
  rms(prec ) = 0.16312E+01
  weight for this iteration     100.00

 eigenvalues of (default mixing * dielectric matrix)
  average eigenvalue GAMMA=   0.7865
  1.4774  1.4774  0.8704  0.8704  0.5474  0.5474  0.8407  0.8407  0.7153  0.7153
  0.2743  0.5239  0.5239

 Free energy of the ion-electron system (eV)
  ---------------------------------------------------
  alpha Z        PSCENC =       146.23189702
  Ewald energy   TEWEN  =     -1849.99285219
  -Hartree energ DENC   =      -402.81454543
  -exchange      EXHF   =         0.00000000
  -V(xc)+E(xc)   XCENC  =        68.75595340
  PAW double counting   =      1480.40485733    -1482.10025980
  entropy T*S    EENTRO =        -0.00053058
  eigenvalues    EBANDS =       -33.96044529
  atomic energy  EATOM  =      2053.64813947
  ---------------------------------------------------
  free energy    TOTEN  =       -19.82778607 eV

  energy without entropy =      -19.82725549  energy(sigma->0) =      -19.82752078


--------------------------------------------------------------------------------------------------------




----------------------------------------- Iteration    1(  19)  ---------------------------------------


    POTLOK:  cpu time    0.06: real time    0.06
    SETDIJ:  cpu time    0.01: real time    0.01
    EDDIAG:  cpu time    0.02: real time    0.02
  RMM-DIIS:  cpu time    0.09: real time    0.09
    ORTHCH:  cpu time    0.00: real time    0.00
       DOS:  cpu time    0.00: real time    0.00
    CHARGE:  cpu time    0.03: real time    0.03
    MIXING:  cpu time    0.00: real time    0.00
    --------------------------------------------
      LOOP:  cpu time    0.21: real time    0.21

 eigenvalue-minimisations  :    96
 total energy-change (2. order) :-0.1226129E+00  (-0.3215432E-02)
 number of electron      28.0000003 magnetization      -0.6690916
 augmentation part        9.9263227 magnetization       0.6935787

 Broyden mixing:
  rms(total) = 0.87838E+00    rms(broyden)= 0.87835E+00
  rms(prec ) = 0.14986E+01
  weight for this iteration     100.00

 eigenvalues of (default mixing * dielectric matrix)
  average eigenvalue GAMMA=   0.8908
  1.9315  1.9315  1.1082  1.1082  0.5458  0.5458  1.0058  0.8650  0.8650  0.2743
  0.7149  0.5576  0.5085  0.5085

 Free energy of the ion-electron system (eV)
  ---------------------------------------------------
  alpha Z        PSCENC =       146.23189702
  Ewald energy   TEWEN  =     -1849.99285219
  -Hartree energ DENC   =      -404.53474257
  -exchange      EXHF   =         0.00000000
  -V(xc)+E(xc)   XCENC  =        68.69437627
  PAW double counting   =      1484.75336143    -1486.45377284
  entropy T*S    EENTRO =        -0.00005091
  eigenvalues    EBANDS =       -32.29675464
  atomic energy  EATOM  =      2053.64813947
  ---------------------------------------------------
  free energy    TOTEN  =       -19.95039897 eV

  energy without entropy =      -19.95034806  energy(sigma->0) =      -19.95037351


--------------------------------------------------------------------------------------------------------




----------------------------------------- Iteration    1(  20)  ---------------------------------------


    POTLOK:  cpu time    0.06: real time    0.06
    SETDIJ:  cpu time    0.01: real time    0.01
    EDDIAG:  cpu time    0.02: real time    0.02
  RMM-DIIS:  cpu time    0.09: real time    0.09
    ORTHCH:  cpu time    0.00: real time    0.00
       DOS:  cpu time    0.00: real time    0.00
    CHARGE:  cpu time    0.03: real time    0.03
    MIXING:  cpu time    0.00: real time    0.00
    --------------------------------------------
      LOOP:  cpu time    0.21: real time    0.21

 eigenvalue-minimisations  :    96
 total energy-change (2. order) :-0.1820999E+00  (-0.1792608E-01)
 number of electron      28.0000002 magnetization      -1.4165925
 augmentation part        9.9452013 magnetization      -0.0894940

 Broyden mixing:
  rms(total) = 0.74534E+00    rms(broyden)= 0.74518E+00
  rms(prec ) = 0.12581E+01
  weight for this iteration     100.00

 eigenvalues of (default mixing * dielectric matrix)
  average eigenvalue GAMMA=   0.9566
  2.2310  2.2310  1.1964  1.1964  0.5460  0.5460  1.0871  1.0085  1.0085  0.2743
  0.7204  0.6055  0.6055  0.5465  0.5465

 Free energy of the ion-electron system (eV)
  ---------------------------------------------------
  alpha Z        PSCENC =       146.23189702
  Ewald energy   TEWEN  =     -1849.99285219
  -Hartree energ DENC   =      -408.19358131
  -exchange      EXHF   =         0.00000000
  -V(xc)+E(xc)   XCENC  =        68.81726065
  PAW double counting   =      1494.96436643    -1496.42314684
  entropy T*S    EENTRO =        -0.00003547
  eigenvalues    EBANDS =       -29.18454665
  atomic energy  EATOM  =      2053.64813947
  ---------------------------------------------------
  free energy    TOTEN  =       -20.13249891 eV

  energy without entropy =      -20.13246344  energy(sigma->0) =      -20.13248117


--------------------------------------------------------------------------------------------------------




----------------------------------------- Iteration    1(  21)  ---------------------------------------


    POTLOK:  cpu time    0.06: real time    0.06
    SETDIJ:  cpu time    0.01: real time    0.01
    EDDIAG:  cpu time    0.02: real time    0.02
  RMM-DIIS:  cpu time    0.09: real time    0.09
    ORTHCH:  cpu time    0.00: real time    0.00
       DOS:  cpu time    0.00: real time    0.00
    CHARGE:  cpu time    0.04: real time    0.04
    MIXING:  cpu time    0.00: real time    0.00
    --------------------------------------------
      LOOP:  cpu time    0.22: real time    0.22

 eigenvalue-minimisations  :    97
 total energy-change (2. order) :-0.4842753E-01  (-0.4164153E-01)
 number of electron      28.0000002 magnetization      -1.7434246
 augmentation part       10.0402282 magnetization      -0.4759377

 Broyden mixing:
  rms(total) = 0.60263E+00    rms(broyden)= 0.60227E+00
  rms(prec ) = 0.95944E+00
  weight for this iteration     100.00

 eigenvalues of (default mixing * dielectric matrix)
  average eigenvalue GAMMA=   0.9680
  2.2069  2.2069  1.2360  1.2360  0.5463  0.5463  1.1820  1.1820  0.9996  0.2743
  0.7714  0.7714  0.6884  0.5771  0.5315  0.5315

 Free energy of the ion-electron system (eV)
  ---------------------------------------------------
  alpha Z        PSCENC =       146.23189702
  Ewald energy   TEWEN  =     -1849.99285219
  -Hartree energ DENC   =      -412.77638093
  -exchange      EXHF   =         0.00000000
  -V(xc)+E(xc)   XCENC  =        69.18428544
  PAW double counting   =      1506.99810067    -1507.53249202
  entropy T*S    EENTRO =        -0.00000000
  eigenvalues    EBANDS =       -25.94162390
  atomic energy  EATOM  =      2053.64813947
  ---------------------------------------------------
  free energy    TOTEN  =       -20.18092644 eV

  energy without entropy =      -20.18092644  energy(sigma->0) =      -20.18092644


--------------------------------------------------------------------------------------------------------




----------------------------------------- Iteration    1(  22)  ---------------------------------------


    POTLOK:  cpu time    0.06: real time    0.06
    SETDIJ:  cpu time    0.01: real time    0.01
    EDDIAG:  cpu time    0.02: real time    0.02
  RMM-DIIS:  cpu time    0.09: real time    0.09
    ORTHCH:  cpu time    0.00: real time    0.00
       DOS:  cpu time    0.00: real time    0.00
    CHARGE:  cpu time    0.02: real time    0.03
    MIXING:  cpu time    0.00: real time    0.00
    --------------------------------------------
      LOOP:  cpu time    0.21: real time    0.21

 eigenvalue-minimisations  :    96
 total energy-change (2. order) :-0.4987541E-01  (-0.1159018E-01)
 number of electron      28.0000002 magnetization      -1.8561322
 augmentation part       10.0808711 magnetization      -0.6303409

 Broyden mixing:
  rms(total) = 0.55459E+00    rms(broyden)= 0.55452E+00
  rms(prec ) = 0.85968E+00
  weight for this iteration     100.00

 eigenvalues of (default mixing * dielectric matrix)
  average eigenvalue GAMMA=   0.9539
  2.1976  2.1976  1.2509  1.2509  1.1553  1.1553  0.5464  0.5464  1.0510  0.8314
  0.8314  0.2743  0.6931  0.5336  0.5336  0.5836  0.5836

 Free energy of the ion-electron system (eV)
  ---------------------------------------------------
  alpha Z        PSCENC =       146.23189702
  Ewald energy   TEWEN  =     -1849.99285219
  -Hartree energ DENC   =      -414.49307713
  -exchange      EXHF   =         0.00000000
  -V(xc)+E(xc)   XCENC  =        69.18184052
  PAW double counting   =      1511.67438160    -1511.89262369
  entropy T*S    EENTRO =        -0.00000000
  eigenvalues    EBANDS =       -24.58850746
  atomic energy  EATOM  =      2053.64813947
  ---------------------------------------------------
  free energy    TOTEN  =       -20.23080185 eV

  energy without entropy =      -20.23080185  energy(sigma->0) =      -20.23080185


--------------------------------------------------------------------------------------------------------




----------------------------------------- Iteration    1(  23)  ---------------------------------------


    POTLOK:  cpu time    0.06: real time    0.06
    SETDIJ:  cpu time    0.01: real time    0.01
    EDDIAG:  cpu time    0.02: real time    0.02
  RMM-DIIS:  cpu time    0.09: real time    0.09
    ORTHCH:  cpu time    0.00: real time    0.00
       DOS:  cpu time    0.00: real time    0.00
    CHARGE:  cpu time    0.03: real time    0.03
    MIXING:  cpu time    0.00: real time    0.00
    --------------------------------------------
      LOOP:  cpu time    0.21: real time    0.21

 eigenvalue-minimisations  :    97
 total energy-change (2. order) :-0.1847851E-01  (-0.7967524E-02)
 number of electron      28.0000002 magnetization      -1.7773964
 augmentation part       10.1096277 magnetization      -0.6210203

 Broyden mixing:
  rms(total) = 0.52579E+00    rms(broyden)= 0.52576E+00
  rms(prec ) = 0.80122E+00
  weight for this iteration     100.00

 eigenvalues of (default mixing * dielectric matrix)
  average eigenvalue GAMMA=   0.9389
  2.2048  2.2048  1.2400  1.2400  1.2280  1.2280  0.5464  0.5464  1.0325  0.8686
  0.8686  0.2743  0.5344  0.5344  0.7010  0.6066  0.6066  0.4346

 Free energy of the ion-electron system (eV)
  ---------------------------------------------------
  alpha Z        PSCENC =       146.23189702
  Ewald energy   TEWEN  =     -1849.99285219
  -Hartree energ DENC   =      -416.67294229
  -exchange      EXHF   =         0.00000000
  -V(xc)+E(xc)   XCENC  =        69.12954231
  PAW double counting   =      1517.17289873    -1517.05898316
  entropy T*S    EENTRO =        -0.00000000
  eigenvalues    EBANDS =       -22.70698024
  atomic energy  EATOM  =      2053.64813947
  ---------------------------------------------------
  free energy    TOTEN  =       -20.24928036 eV

  energy without entropy =      -20.24928036  energy(sigma->0) =      -20.24928036


--------------------------------------------------------------------------------------------------------




----------------------------------------- Iteration    1(  24)  ---------------------------------------


    POTLOK:  cpu time    0.06: real time    0.06
    SETDIJ:  cpu time    0.01: real time    0.01
    EDDIAG:  cpu time    0.02: real time    0.02
  RMM-DIIS:  cpu time    0.09: real time    0.09
    ORTHCH:  cpu time    0.00: real time    0.00
       DOS:  cpu time    0.00: real time    0.00
    CHARGE:  cpu time    0.02: real time    0.03
    MIXING:  cpu time    0.00: real time    0.00
    --------------------------------------------
      LOOP:  cpu time    0.21: real time    0.21

 eigenvalue-minimisations  :    96
 total energy-change (2. order) : 0.3282199E-01  (-0.6457420E-02)
 number of electron      28.0000002 magnetization      -1.7700615
 augmentation part       10.0852979 magnetization      -0.5305473

 Broyden mixing:
  rms(total) = 0.56816E+00    rms(broyden)= 0.56815E+00
  rms(prec ) = 0.86971E+00
  weight for this iteration     100.00

 eigenvalues of (default mixing * dielectric matrix)
  average eigenvalue GAMMA=   0.9108
  2.2102  2.2102  1.2352  1.2352  1.2442  1.2442  0.5464  0.5464  1.0322  0.8717
  0.8717  0.2743  0.5347  0.5347  0.6994  0.6060  0.6060  0.6338  0.1686

 Free energy of the ion-electron system (eV)
  ---------------------------------------------------
  alpha Z        PSCENC =       146.23189702
  Ewald energy   TEWEN  =     -1849.99285219
  -Hartree energ DENC   =      -414.16118258
  -exchange      EXHF   =         0.00000000
  -V(xc)+E(xc)   XCENC  =        69.26422599
  PAW double counting   =      1510.76715490    -1510.94723450
  entropy T*S    EENTRO =        -0.00000000
  eigenvalues    EBANDS =       -25.02660649
  atomic energy  EATOM  =      2053.64813947
  ---------------------------------------------------
  free energy    TOTEN  =       -20.21645837 eV

  energy without entropy =      -20.21645837  energy(sigma->0) =      -20.21645837


--------------------------------------------------------------------------------------------------------




----------------------------------------- Iteration    1(  25)  ---------------------------------------


    POTLOK:  cpu time    0.06: real time    0.06
    SETDIJ:  cpu time    0.01: real time    0.01
    EDDIAG:  cpu time    0.02: real time    0.02
  RMM-DIIS:  cpu time    0.09: real time    0.09
    ORTHCH:  cpu time    0.00: real time    0.00
       DOS:  cpu time    0.00: real time    0.00
    CHARGE:  cpu time    0.03: real time    0.03
    MIXING:  cpu time    0.00: real time    0.00
    --------------------------------------------
      LOOP:  cpu time    0.21: real time    0.21

 eigenvalue-minimisations  :    96
 total energy-change (2. order) : 0.1647444E-01  (-0.7255299E-03)
 number of electron      28.0000002 magnetization      -1.7698731
 augmentation part       10.0762656 magnetization      -0.5047731

 Broyden mixing:
  rms(total) = 0.57751E+00    rms(broyden)= 0.57751E+00
  rms(prec ) = 0.88264E+00
  weight for this iteration     100.00

 eigenvalues of (default mixing * dielectric matrix)
  average eigenvalue GAMMA=   0.9600
  2.2245  2.2245  1.3523  1.3523  1.1752  1.2662  1.2662  0.5464  0.5464  1.0585
  0.8688  0.8688  0.2743  0.6930  0.6074  0.6074  0.5334  0.5334  0.6003  0.6003

 Free energy of the ion-electron system (eV)
  ---------------------------------------------------
  alpha Z        PSCENC =       146.23189702
  Ewald energy   TEWEN  =     -1849.99285219
  -Hartree energ DENC   =      -413.49280675
  -exchange      EXHF   =         0.00000000
  -V(xc)+E(xc)   XCENC  =        69.31699746
  PAW double counting   =      1508.98952007    -1509.24448294
  entropy T*S    EENTRO =        -0.00000000
  eigenvalues    EBANDS =       -25.65639608
  atomic energy  EATOM  =      2053.64813947
  ---------------------------------------------------
  free energy    TOTEN  =       -20.19998394 eV

  energy without entropy =      -20.19998394  energy(sigma->0) =      -20.19998394


--------------------------------------------------------------------------------------------------------




----------------------------------------- Iteration    1(  26)  ---------------------------------------


    POTLOK:  cpu time    0.06: real time    0.06
    SETDIJ:  cpu time    0.01: real time    0.01
    EDDIAG:  cpu time    0.02: real time    0.02
  RMM-DIIS:  cpu time    0.07: real time    0.07
    ORTHCH:  cpu time    0.00: real time    0.00
       DOS:  cpu time    0.00: real time    0.00
    CHARGE:  cpu time    0.03: real time    0.03
    MIXING:  cpu time    0.00: real time    0.00
    --------------------------------------------
      LOOP:  cpu time    0.19: real time    0.19

 eigenvalue-minimisations  :    61
 total energy-change (2. order) :-0.2144992E-03  (-0.2273151E-04)
 number of electron      28.0000002 magnetization      -1.7672080
 augmentation part       10.0761387 magnetization      -0.5012218

 Broyden mixing:
  rms(total) = 0.57761E+00    rms(broyden)= 0.57761E+00
  rms(prec ) = 0.88270E+00
  weight for this iteration     100.00

 eigenvalues of (default mixing * dielectric matrix)
  average eigenvalue GAMMA=   0.9173
  2.2202  2.2202  1.3525  1.3525  1.1771  1.2436  1.2436  0.5464  0.5464  1.0656
  0.8716  0.8716  0.2743  0.6898  0.6094  0.6094  0.5339  0.5339  0.5646  0.5646
  0.1728

 Free energy of the ion-electron system (eV)
  ---------------------------------------------------
  alpha Z        PSCENC =       146.23189702
  Ewald energy   TEWEN  =     -1849.99285219
  -Hartree energ DENC   =      -413.47851383
  -exchange      EXHF   =         0.00000000
  -V(xc)+E(xc)   XCENC  =        69.31846478
  PAW double counting   =      1508.95206632    -1509.20858633
  entropy T*S    EENTRO =        -0.00000000
  eigenvalues    EBANDS =       -25.67081368
  atomic energy  EATOM  =      2053.64813947
  ---------------------------------------------------
  free energy    TOTEN  =       -20.20019844 eV

  energy without entropy =      -20.20019844  energy(sigma->0) =      -20.20019844


--------------------------------------------------------------------------------------------------------




----------------------------------------- Iteration    1(  27)  ---------------------------------------


    POTLOK:  cpu time    0.06: real time    0.06
    SETDIJ:  cpu time    0.01: real time    0.01
    EDDIAG:  cpu time    0.02: real time    0.02
  RMM-DIIS:  cpu time    0.08: real time    0.08
    ORTHCH:  cpu time    0.00: real time    0.00
       DOS:  cpu time    0.00: real time    0.00
    CHARGE:  cpu time    0.03: real time    0.03
    MIXING:  cpu time    0.00: real time    0.00
    --------------------------------------------
      LOOP:  cpu time    0.21: real time    0.21

 eigenvalue-minimisations  :    86
 total energy-change (2. order) : 0.5909570E-02  (-0.1356802E-03)
 number of electron      28.0000002 magnetization      -1.8632353
 augmentation part       10.0775575 magnetization      -0.5902823

 Broyden mixing:
  rms(total) = 0.58567E+00    rms(broyden)= 0.58567E+00
  rms(prec ) = 0.89411E+00
  weight for this iteration     100.00

 eigenvalues of (default mixing * dielectric matrix)
  average eigenvalue GAMMA=   1.0136
  2.1587  2.1587  1.5521  1.5521  1.3320  1.3320  1.2103  0.5464  0.5464  1.2386
  1.2386  0.2743  1.0023  0.8569  0.8569  0.5349  0.5349  0.7167  0.7167  0.7490
  0.5956  0.5956

 Free energy of the ion-electron system (eV)
  ---------------------------------------------------
  alpha Z        PSCENC =       146.23189702
  Ewald energy   TEWEN  =     -1849.99285219
  -Hartree energ DENC   =      -413.07701314
  -exchange      EXHF   =         0.00000000
  -V(xc)+E(xc)   XCENC  =        69.33978691
  PAW double counting   =      1508.06278810    -1508.32329739
  entropy T*S    EENTRO =        -0.00000000
  eigenvalues    EBANDS =       -26.08373765
  atomic energy  EATOM  =      2053.64813947
  ---------------------------------------------------
  free energy    TOTEN  =       -20.19428887 eV

  energy without entropy =      -20.19428887  energy(sigma->0) =      -20.19428887


--------------------------------------------------------------------------------------------------------




----------------------------------------- Iteration    1(  28)  ---------------------------------------


    POTLOK:  cpu time    0.06: real time    0.06
    SETDIJ:  cpu time    0.01: real time    0.01
    EDDIAG:  cpu time    0.02: real time    0.02
  RMM-DIIS:  cpu time    0.09: real time    0.09
    ORTHCH:  cpu time    0.00: real time    0.00
       DOS:  cpu time    0.00: real time    0.00
    CHARGE:  cpu time    0.02: real time    0.03
    MIXING:  cpu time    0.00: real time    0.00
    --------------------------------------------
      LOOP:  cpu time    0.21: real time    0.21

 eigenvalue-minimisations  :    96
 total energy-change (2. order) :-0.3815618E-02  (-0.1819196E-01)
 number of electron      28.0000002 magnetization      -1.7772760
 augmentation part       10.0858752 magnetization      -0.6070665

 Broyden mixing:
  rms(total) = 0.51968E+00    rms(broyden)= 0.51966E+00
  rms(prec ) = 0.79098E+00
  weight for this iteration     100.00

 eigenvalues of (default mixing * dielectric matrix)
  average eigenvalue GAMMA=   0.9874
  2.1087  2.1087  1.6270  1.6270  1.3772  1.3772  1.2538  1.2821  1.2821  0.5464
  0.5464  0.9506  0.8555  0.8555  0.2743  0.7792  0.7062  0.7062  0.5347  0.5347
  0.5940  0.5940  0.1883

 Free energy of the ion-electron system (eV)
  ---------------------------------------------------
  alpha Z        PSCENC =       146.23189702
  Ewald energy   TEWEN  =     -1849.99285219
  -Hartree energ DENC   =      -417.99463138
  -exchange      EXHF   =         0.00000000
  -V(xc)+E(xc)   XCENC  =        69.24097724
  PAW double counting   =      1518.71584652    -1518.76093098
  entropy T*S    EENTRO =        -0.00000000
  eigenvalues    EBANDS =       -21.28655018
  atomic energy  EATOM  =      2053.64813947
  ---------------------------------------------------
  free energy    TOTEN  =       -20.19810449 eV

  energy without entropy =      -20.19810449  energy(sigma->0) =      -20.19810449


--------------------------------------------------------------------------------------------------------




----------------------------------------- Iteration    1(  29)  ---------------------------------------


    POTLOK:  cpu time    0.06: real time    0.06
    SETDIJ:  cpu time    0.01: real time    0.01
    EDDIAG:  cpu time    0.02: real time    0.02
  RMM-DIIS:  cpu time    0.09: real time    0.09
    ORTHCH:  cpu time    0.00: real time    0.00
       DOS:  cpu time    0.00: real time    0.00
    CHARGE:  cpu time    0.03: real time    0.03
    MIXING:  cpu time    0.00: real time    0.00
    --------------------------------------------
      LOOP:  cpu time    0.21: real time    0.21

 eigenvalue-minimisations  :    96
 total energy-change (2. order) :-0.1518578E-01  (-0.3287044E-02)
 number of electron      28.0000002 magnetization      -1.9525337
 augmentation part       10.0994517 magnetization      -0.8249102

 Broyden mixing:
  rms(total) = 0.54092E+00    rms(broyden)= 0.54091E+00
  rms(prec ) = 0.84469E+00
  weight for this iteration     100.00

 eigenvalues of (default mixing * dielectric matrix)
  average eigenvalue GAMMA=   1.0094
  2.1409  2.1409  1.2824  1.2824  1.6453  1.6453  1.1532  1.1532  0.5464  0.5464
  1.2341  1.2341  0.9636  0.9636  0.8900  0.8900  0.2743  0.5348  0.5348  0.6681
  0.6681  0.6288  0.6288  0.5768

 Free energy of the ion-electron system (eV)
  ---------------------------------------------------
  alpha Z        PSCENC =       146.23189702
  Ewald energy   TEWEN  =     -1849.99285219
  -Hartree energ DENC   =      -419.83476305
  -exchange      EXHF   =         0.00000000
  -V(xc)+E(xc)   XCENC  =        69.26928294
  PAW double counting   =      1521.41059928    -1521.67154219
[...]
  rms(total) = 0.14419E-02    rms(broyden)= 0.14412E-02
  rms(prec ) = 0.20524E-02
  weight for this iteration     100.00

 eigenvalues of (default mixing * dielectric matrix)
  average eigenvalue GAMMA=   1.1525
  2.2850  0.3803  0.6552  1.2894

 Free energy of the ion-electron system (eV)
  ---------------------------------------------------
  alpha Z        PSCENC =       139.17794101
  Ewald energy   TEWEN  =     -1588.41842245
  -Hartree energ DENC   =      -613.06807858
  -exchange      EXHF   =         0.00000000
  -V(xc)+E(xc)   XCENC  =        66.57669228
  PAW double counting   =      1727.40272524    -1728.37064322
  entropy T*S    EENTRO =        -0.00000000
  eigenvalues    EBANDS =       -85.16687077
  atomic energy  EATOM  =      2053.64813947
  ---------------------------------------------------
  free energy    TOTEN  =       -28.21851703 eV

  energy without entropy =      -28.21851703  energy(sigma->0) =      -28.21851703


--------------------------------------------------------------------------------------------------------




----------------------------------------- Iteration   28(   6)  ---------------------------------------


    POTLOK:  cpu time    0.06: real time    0.06
    SETDIJ:  cpu time    0.01: real time    0.01
    EDDIAG:  cpu time    0.02: real time    0.02
  RMM-DIIS:  cpu time    0.05: real time    0.05
    ORTHCH:  cpu time    0.00: real time    0.00
       DOS:  cpu time    0.00: real time    0.00
    --------------------------------------------
      LOOP:  cpu time    0.14: real time    0.14

 eigenvalue-minimisations  :    44
 total energy-change (2. order) : 0.2465652E-05  (-0.9521534E-06)
 number of electron      28.0000001 magnetization       4.0000000
 augmentation part        9.5204269 magnetization       3.3834509

 Free energy of the ion-electron system (eV)
  ---------------------------------------------------
  alpha Z        PSCENC =       139.17794101
  Ewald energy   TEWEN  =     -1588.41842245
  -Hartree energ DENC   =      -613.06116265
  -exchange      EXHF   =         0.00000000
  -V(xc)+E(xc)   XCENC  =        66.57573771
  PAW double counting   =      1727.12621544    -1728.08497495
  entropy T*S    EENTRO =        -0.00000000
  eigenvalues    EBANDS =       -85.18198815
  atomic energy  EATOM  =      2053.64813947
  ---------------------------------------------------
  free energy    TOTEN  =       -28.21851457 eV

  energy without entropy =      -28.21851457  energy(sigma->0) =      -28.21851457


--------------------------------------------------------------------------------------------------------




 average (electrostatic) potential at core
  the test charge radii are     1.0103  0.7215
  (the norm of the test charge is              1.0000)
       1 -45.4311       2 -46.7550       3 -72.8605       4 -72.8605
 
 
 
 E-fermi :   2.4155     XC(G=0): -11.2458     alpha+bet :-10.4394


 spin component 1

 k-point     1 :       0.0000    0.0000    0.0000
  band No.  band energies     occupation 
      1     -17.3307      1.00000
      2     -15.8565      1.00000
      3      -6.0771      1.00000
      4      -2.5338      1.00000
      5      -2.3382      1.00000
      6      -1.2011      1.00000
      7      -0.9753      1.00000
      8      -0.8679      1.00000
      9      -0.4518      1.00000
     10      -0.3445      1.00000
     11      -0.2648      1.00000
     12      -0.1698      1.00000
     13       0.2795      1.00000
     14       0.3901      1.00000
     15       0.7096      1.00000
     16       2.0746      1.00000
     17       3.8708      0.00000
     18       5.9971      0.00000
     19       7.1454      0.00000
     20      10.6775      0.00000
     21      10.9306      0.00000
     22      16.3095      0.00000
     23      17.4367      0.00000
     24      18.2547      0.00000

 spin component 2

 k-point     1 :       0.0000    0.0000    0.0000
  band No.  band energies     occupation 
      1     -17.5364      1.00000
      2     -16.1515      1.00000
      3      -5.7937      1.00000
      4      -1.7886      1.00000
      5      -1.4575      1.00000
      6      -0.9533      1.00000
      7      -0.6359      1.00000
      8      -0.2153      1.00000
      9       0.2356      1.00000
     10       0.4742      1.00000
     11       1.7826      1.00000
     12       1.8155      1.00000
     13       5.0588      0.00000
     14       6.4358      0.00000
     15       7.2242      0.00000
     16       7.2631      0.00000
     17       7.4954      0.00000
     18       8.7832      0.00000
     19       9.0391      0.00000
     20      10.6491      0.00000
     21      11.4023      0.00000
     22      16.9504      0.00000
     23      17.7556      0.00000
     24      18.6220      0.00000


--------------------------------------------------------------------------------------------------------


 soft charge-density along one line, spin component           1
         0         1         2         3         4         5         6         7         8         9
 total charge-density along one line
 
 soft charge-density along one line, spin component           2
         0         1         2         3         4         5         6         7         8         9
 total charge-density along one line
 
 pseudopotential strength for first ion, spin component:           1
 -9.167  -0.004   0.113  -0.013   0.081   0.149  -0.017  -0.025
 -0.004  -9.162  -0.122   0.073  -0.185  -0.017   0.168   0.022
  0.113  -0.122  -8.929  -0.391   0.322  -0.025   0.022   0.124
 -0.013   0.073  -0.391  -8.635   0.187  -0.003  -0.009   0.061
  0.081  -0.185   0.322   0.187  -8.602  -0.018   0.044  -0.064
  0.149  -0.017  -0.025  -0.003  -0.018   0.555  -0.005   0.010
 -0.017   0.168   0.022  -0.009   0.044  -0.005   0.561  -0.013
 -0.025   0.022   0.124   0.061  -0.064   0.010  -0.013   0.586
 -0.003  -0.009   0.061   0.042  -0.081  -0.003   0.009  -0.043
 -0.018   0.044  -0.064  -0.081  -0.002   0.008  -0.016   0.031
  0.011  -0.019   0.044  -0.068  -0.003  -0.002   0.003  -0.007
 -0.001   0.002  -0.005   0.008   0.000   0.000  -0.001   0.001
  0.000  -0.000  -0.000  -0.000  -0.000  -0.000   0.000   0.000
 -0.000   0.000  -0.000   0.000  -0.000  -0.000  -0.000   0.000
  0.000  -0.000  -0.000  -0.000   0.000  -0.000  -0.000   0.000
 -0.000   0.000   0.000   0.000   0.000   0.000  -0.000  -0.000
  0.000  -0.000   0.000  -0.000   0.000  -0.000   0.000  -0.000
 -0.000   0.000   0.000   0.000  -0.000   0.000  -0.000  -0.000
 pseudopotential strength for first ion, spin component:           2
 -2.949   0.337  -0.181   0.118  -0.295  -1.126  -0.079   0.025
  0.337  -3.341   0.404  -0.145   0.462  -0.079  -1.033  -0.069
 -0.181   0.404  -4.228   1.018  -0.862   0.025  -0.069  -0.887
  0.118  -0.145   1.018  -5.615  -1.227  -0.026   0.029  -0.183
 -0.295   0.462  -0.862  -1.227  -5.967   0.047  -0.067   0.143
 -1.126  -0.079   0.025  -0.026   0.047   1.190   0.030  -0.020
 -0.079  -1.033  -0.069   0.029  -0.067   0.030   1.156   0.041
  0.025  -0.069  -0.887  -0.183   0.143  -0.020   0.041   1.064
 -0.026   0.029  -0.183  -0.680   0.164   0.010  -0.014   0.102
  0.047  -0.067   0.143   0.164  -0.654  -0.031   0.051  -0.090
  0.006  -0.011   0.034  -0.056  -0.006  -0.001   0.002  -0.006
 -0.001   0.002  -0.004   0.007   0.001   0.000  -0.000   0.001
  0.000  -0.000  -0.000  -0.000  -0.000  -0.000   0.000   0.000
 -0.000   0.000  -0.000   0.000  -0.000  -0.000  -0.000   0.000
  0.000  -0.000  -0.000  -0.000   0.000  -0.000  -0.000   0.000
 -0.000   0.000   0.000   0.000   0.000   0.000  -0.000  -0.000
  0.000  -0.000   0.000  -0.000   0.000  -0.000   0.000  -0.000
 -0.000   0.000   0.000   0.000  -0.000   0.000  -0.000  -0.000
 total augmentation occupancy for first ion, spin component:           1
  0.952  -0.042   0.046  -0.007   0.074  -0.362  -0.158   0.048  -0.041   0.043  -0.054   0.022   0.000   0.000   0.000   0.000
 -0.042   1.001  -0.082   0.012  -0.128  -0.158  -0.178  -0.089   0.067  -0.072   0.094  -0.039   0.000   0.000   0.000   0.000
  0.046  -0.082   1.182  -0.202   0.189   0.047  -0.088  -0.010  -0.446   0.162  -0.362   0.046   0.000   0.000   0.000   0.000
 -0.007   0.012  -0.202   1.680   0.515  -0.036   0.059  -0.435   0.566   0.374   0.673  -0.193   0.000   0.000   0.000   0.000
  0.074  -0.128   0.189   0.515   1.864   0.048  -0.080   0.175   0.355   0.313   0.156  -0.145   0.000   0.000   0.000   0.000
 -0.362  -0.158   0.047  -0.036   0.048   0.198   0.042   0.023  -0.027   0.008   0.003  -0.015   0.000   0.000   0.000   0.000
 -0.158  -0.178  -0.088   0.059  -0.080   0.042   0.149  -0.039   0.047  -0.014  -0.005   0.027   0.000   0.000   0.000   0.000
  0.048  -0.089  -0.010  -0.435   0.175   0.023  -0.039   0.335  -0.188  -0.009   0.166  -0.125   0.000   0.000   0.000   0.000
 -0.041   0.067  -0.446   0.566   0.355  -0.027   0.047  -0.188   0.500   0.008   0.050   0.061   0.000   0.000   0.000   0.000
  0.043  -0.072   0.162   0.374   0.313   0.008  -0.014  -0.009   0.008   0.208   0.345  -0.145   0.000   0.000   0.000   0.000
 -0.054   0.094  -0.362   0.673   0.156   0.003  -0.005   0.166   0.050   0.345   2.100  -0.644   0.000   0.000   0.000   0.000
  0.022  -0.039   0.046  -0.193  -0.145  -0.015   0.027  -0.125   0.061  -0.145  -0.644   0.308   0.000   0.000   0.000   0.000
  0.000   0.000   0.000   0.000   0.000   0.000   0.000   0.000   0.000   0.000   0.000   0.000   0.022  -0.030   0.017  -0.002
  0.000   0.000   0.000   0.000   0.000   0.000   0.000   0.000   0.000   0.000   0.000   0.000  -0.030   0.251  -0.140   0.003
  0.000   0.000   0.000   0.000   0.000   0.000   0.000   0.000   0.000   0.000   0.000   0.000   0.017  -0.140   0.088  -0.002
  0.000   0.000   0.000   0.000   0.000   0.000   0.000   0.000   0.000   0.000   0.000   0.000  -0.002   0.003  -0.002   0.000
  0.000   0.000   0.000   0.000   0.000   0.000   0.000   0.000   0.000   0.000   0.000   0.000   0.003  -0.027   0.015  -0.000
  0.000   0.000   0.000   0.000   0.000   0.000   0.000   0.000   0.000   0.000   0.000   0.000  -0.002   0.015  -0.009   0.000
 total augmentation occupancy for first ion, spin component:           2
  0.912   0.027  -0.064   0.026  -0.080  -0.388  -0.114  -0.001  -0.002   0.000   0.029   0.008   0.000   0.000   0.000   0.000
  0.027   0.880   0.110  -0.045   0.139  -0.114  -0.255  -0.002   0.002   0.001  -0.050  -0.013   0.000   0.000   0.000   0.000
 -0.064   0.110   0.616   0.264  -0.226   0.001  -0.005  -0.318  -0.088   0.071   0.026  -0.013   0.000   0.000   0.000   0.000
  0.026  -0.045   0.264   0.286  -0.286  -0.005   0.005  -0.096  -0.251   0.029  -0.042   0.033   0.000   0.000   0.000   0.000
 -0.080   0.139  -0.226  -0.286   0.200   0.001   0.001   0.062   0.042  -0.262  -0.003   0.015   0.000   0.000   0.000   0.000
 -0.388  -0.114   0.001  -0.005   0.001   0.175   0.082  -0.010   0.009  -0.011   0.011  -0.004   0.000   0.000   0.000   0.000
 -0.114  -0.255  -0.005   0.005   0.001   0.082   0.079   0.021  -0.014   0.017  -0.019   0.006   0.000   0.000   0.000   0.000
 -0.001  -0.002  -0.318  -0.096   0.062  -0.010   0.021   0.075   0.124  -0.063   0.131  -0.006   0.000   0.000   0.000   0.000
 -0.002   0.002  -0.088  -0.251   0.042   0.009  -0.014   0.124  -0.077  -0.101  -0.170   0.034   0.000   0.000   0.000   0.000
  0.000   0.001   0.071   0.029  -0.262  -0.011   0.017  -0.063  -0.101  -0.031   0.030   0.029   0.000   0.000   0.000   0.000
  0.029  -0.050   0.026  -0.042  -0.003   0.011  -0.019   0.131  -0.170   0.030  -0.007   0.182   0.000   0.000   0.000   0.000
  0.008  -0.013  -0.013   0.033   0.015  -0.004   0.006  -0.006   0.034   0.029   0.182  -0.107   0.000   0.000   0.000   0.000
  0.000   0.000   0.000   0.000   0.000   0.000   0.000   0.000   0.000   0.000   0.000   0.000   0.003  -0.003   0.001   0.000
  0.000   0.000   0.000   0.000   0.000   0.000   0.000   0.000   0.000   0.000   0.000   0.000  -0.003   0.018  -0.010  -0.000
  0.000   0.000   0.000   0.000   0.000   0.000   0.000   0.000   0.000   0.000   0.000   0.000   0.001  -0.010   0.007   0.000
  0.000   0.000   0.000   0.000   0.000   0.000   0.000   0.000   0.000   0.000   0.000   0.000   0.000  -0.000   0.000  -0.000
  0.000   0.000   0.000   0.000   0.000   0.000   0.000   0.000   0.000   0.000   0.000   0.000  -0.000   0.003  -0.002   0.000
  0.000   0.000   0.000   0.000   0.000   0.000   0.000   0.000   0.000   0.000   0.000   0.000   0.000  -0.002   0.001  -0.000


------------------------ aborting loop because EDIFF is reached ----------------------------------------


 


 total charge     
 
# of ion     s       p       d       tot
----------------------------------------
  1        0.738   0.310   6.156   7.204
  2        0.780   0.780   6.625   8.185
  3        1.520   3.628   0.000   5.148
  4        1.520   3.628   0.000   5.148
------------------------------------------------
tot        4.557   8.347  12.780  25.684
 


 magnetization (x)
 
# of ion     s       p       d       tot
----------------------------------------
  1       -0.028   0.016   3.020   3.007
  2       -0.006   0.013   1.390   1.397
  3       -0.011  -0.178   0.000  -0.189
  4       -0.011  -0.178   0.000  -0.189
------------------------------------------------
tot       -0.057  -0.327   4.410   4.026
 
    CHARGE:  cpu time    0.02: real time    0.02
    FORLOC:  cpu time    0.00: real time    0.00
    FORNL :  cpu time    0.13: real time    0.13
    STRESS:  cpu time    0.39: real time    0.39
    FORCOR:  cpu time    0.06: real time    0.06
    FORHAR:  cpu time    0.01: real time    0.01
    MIXING:  cpu time    0.00: real time    0.00
    OFIELD:  cpu time    0.00: real time    0.00

  FORCE on cell =-STRESS in cart. coord.  units (eV):
  Direction    XX          YY          ZZ          XY          YZ          ZX
  --------------------------------------------------------------------------------------
  Alpha Z   139.17794   139.17794   139.17794
  Ewald    -187.14593 -1207.82815  -193.44449    55.20880   -96.01167     5.41079
  Hartree   393.98674  -138.83220   357.91816    24.26288   -42.19474    30.98567
  E(xc)    -141.52089  -141.25416  -140.51084     0.08998    -0.15648    -0.86771
  Local    -606.67047   922.52316  -547.26764   -76.15014   132.43024   -51.03149
  n-local  -101.30662   -97.18080  -103.26165    -0.64336     1.12230     1.67950
  augment    94.30769    92.65774    88.32043    -0.63983     1.10916     5.14352
  Kinetic   409.11686   430.72774   399.06707    -2.11588     3.67966     8.63354
  Fock        0.00000     0.00000     0.00000     0.00000     0.00000     0.00000
  -------------------------------------------------------------------------------------
  Total      -0.05471    -0.00873    -0.00098     0.01240    -0.02157    -0.04616
  in kB      -1.98922    -0.31734    -0.03548     0.45089    -0.78413    -1.67841
  external pressure =       -0.78 kB  Pullay stress =        0.00 kB


 VOLUME and BASIS-vectors are now :
 -----------------------------------------------------------------------------
  energy-cutoff  :      520.00
  volume of cell :       44.07
      direct lattice vectors                 reciprocal lattice vectors
    -2.005591988  0.000000105 -1.153259832    -0.383547572  0.163038174 -0.200093716
     0.696620201  2.999964623  1.109089146    -0.017678276  0.326076369  0.030743673
     3.095944910  0.675474738 -5.384047075     0.078514028  0.032247560 -0.136540872

  length of vectors
     2.313527061  3.273399788  6.247327742     0.462306913  0.327999227  0.160772409


 FORCES acting on ions
    electron-ion (+dipol)            ewald-force                    non-local-force                 convergence-correction
 -----------------------------------------------------------------------------------------------
   0.114E-13 0.155E-14 -.339E-13   -.284E-13 -.142E-13 0.568E-13   -.212E-21 0.000E+00 0.212E-21   0.385E-13 -.190E-13 -.622E-13
   -.106E-11 -.151E-12 0.166E-11   0.000E+00 0.284E-13 -.568E-13   -.926E-22 -.827E-24 -.463E-22   -.246E-13 -.419E-13 0.811E-13
   -.106E+03 -.413E+02 0.184E+03   0.105E+03 0.423E+02 -.183E+03   0.338E+00 -.927E+00 -.587E+00   -.521E-02 -.265E-02 0.906E-02
   0.106E+03 0.413E+02 -.184E+03   -.105E+03 -.423E+02 0.183E+03   -.338E+00 0.927E+00 0.587E+00   0.521E-02 0.265E-02 -.906E-02
 -----------------------------------------------------------------------------------------------
   0.711E-12 -.499E-11 -.310E-11   -.284E-13 -.142E-13 0.568E-13   0.111E-15 0.000E+00 0.000E+00   0.114E-15 -.819E-13 0.111E-13
 
 
 POSITION                                       TOTAL-FORCE (eV/Angst)
 -----------------------------------------------------------------------------------
      0.00000      0.00000      0.00000        -0.000000     -0.000000     -0.000000
      0.54518      0.33774     -3.26865        -0.000000     -0.000000     -0.000000
      2.15851      0.51228     -3.75379        -0.001976      0.009987      0.003437
     -0.37154      3.16316     -1.67443         0.001976     -0.009987     -0.003437
 -----------------------------------------------------------------------------------
    total drift:                                0.000000     -0.000000     -0.000000


--------------------------------------------------------------------------------------------------------



  FREE ENERGIE OF THE ION-ELECTRON SYSTEM (eV)
  ---------------------------------------------------
  free  energy   TOTEN  =       -28.21851457 eV

  energy  without entropy=      -28.21851457  energy(sigma->0) =      -28.21851457
 
 d Force = 0.1116515E-03[-0.178E-04, 0.241E-03]  d Energy = 0.2798883E-03-0.168E-03
 d Force = 0.8610446E+00[ 0.858E+00, 0.864E+00]  d Ewald  =-0.4863363E+00 0.135E+01


--------------------------------------------------------------------------------------------------------


    POTLOK:  cpu time    0.08: real time    0.08


--------------------------------------------------------------------------------------------------------




--------------------------------------------------------------------------------------------------------


  
 reached required accuracy - stopping structural energy minimisation
     LOOP+:  cpu time    1.84: real time    1.84
    4ORBIT:  cpu time    0.00: real time    0.00
 


 total charge     
 
# of ion     s       p       d       tot
----------------------------------------
  1        0.738   0.310   6.156   7.204
  2        0.780   0.780   6.625   8.185
  3        1.520   3.628   0.000   5.148
  4        1.520   3.628   0.000   5.148
------------------------------------------------
tot        4.557   8.347  12.780  25.684
 


 magnetization (x)
 
# of ion     s       p       d       tot
----------------------------------------
  1       -0.028   0.016   3.020   3.007
  2       -0.006   0.013   1.390   1.397
  3       -0.011  -0.178   0.000  -0.189
  4       -0.011  -0.178   0.000  -0.189
------------------------------------------------
tot       -0.057  -0.327   4.410   4.026
 

 total amount of memory used by VASP on root node    37462. kBytes
========================================================================

   base      :      30000. kBytes
   nonlr-proj:       3522. kBytes
   fftplans  :        625. kBytes
   grid      :       3115. kBytes
   one-center:        124. kBytes
   wavefun   :         76. kBytes
 
  
  
 General timing and accounting informations for this job:
 ========================================================
  
                  Total CPU time used (sec):       81.640
                            User time (sec):       74.738
                          System time (sec):        6.902
                         Elapsed time (sec):       82.845
  
                   Maximum memory used (kb):       50848.
                   Average memory used (kb):           0.
  
                          Minor page faults:        11202
                          Major page faults:           54
                 Voluntary context switches:           56
