
Running Job 1 of 1 mol.qin
qchem mol.qin_23134.0 /tmp/qchem260548601/chain_scratch/ 0
/global/project/projectdirs/jcesr/qchem_sblau/qc521_exe/qcprog.LINUX_Ix86_64.20190628.exe mol.qin_23134.0 /tmp/qchem260548601/chain_scratch/
                  Welcome to Q-Chem
     A Quantum Leap Into The Future Of Chemistry


 Q-Chem 5.2, Q-Chem, Inc., Pleasanton, CA (2019)

 License issued to: National Energy Research Scientific Computing Center

 Yihan Shao,  Zhengting Gan,  E. Epifanovsky,  A. T. B. Gilbert,  M. Wormit,  
 J. Kussmann,  A. W. Lange,  A. Behn,  Jia Deng,  Xintian Feng,  D. Ghosh,  
 M. Goldey,  P. R. Horn,  L. D. Jacobson,  I. Kaliman,  T. Kus,  A. Landau,  
 Jie Liu,  E. I. Proynov,  R. M. Richard,  R. P. Steele,  E. J. Sundstrom,  
 H. L. Woodcock III,  P. M. Zimmerman,  D. Zuev,  B. Albrecht,  E. Alguire,  
 S. A. Baeppler,  D. Barton,  Z. Benda,  Y. A. Bernard,  E. J. Berquist,  
 K. B. Bravaya,  H. Burton,  D. Casanova,  Chun-Min Chang,  Yunqing Chen,  
 A. Chien,  K. D. Closser,  M. P. Coons,  S. Coriani,  S. Dasgupta,  
 A. L. Dempwolff,  M. Diedenhofen,  Hainam Do,  R. G. Edgar,  Po-Tung Fang,  
 S. Faraji,  S. Fatehi,  Qingguo Feng,  K. D. Fenk,  J. Fosso-Tande,  
 J. Gayvert,  Qinghui Ge,  A. Ghysels,  G. Gidofalvi,  J. Gomes,  
 J. Gonthier,  A. Gunina,  D. Hait,  M. W. D. Hanson-Heine,  
 P. H. P. Harbach,  A. W. Hauser,  M. F. Herbst,  J. E. Herr,  
 E. G. Hohenstein,  Z. C. Holden,  Kerwin Hui,  B. C. Huynh,  T.-C. Jagau,  
 Hyunjun Ji,  B. Kaduk,  K. Khistyaev,  Jaehoon Kim,  P. Klunzinger,  K. Koh,  
 D. Kosenkov,  L. Koulias,  T. Kowalczyk,  C. M. Krauter,  A. Kunitsa,  
 Ka Un Lao,  A. Laurent,  K. V. Lawler,  Joonho Lee,  D. Lefrancois,  
 S. Lehtola,  D. S. Levine,  Yi-Pei Li,  You-Sheng Lin,  Fenglai Liu,  
 E. Livshits,  A. Luenser,  P. Manohar,  E. Mansoor,  S. F. Manzer,  
 Shan-Ping Mao,  Yuezhi Mao,  N. Mardirossian,  A. V. Marenich,  
 T. Markovich,  L. A. Martinez-Martinez,  S. A. Maurer,  N. J. Mayhall,  
 S. C. McKenzie,  J.-M. Mewes,  P. Morgante,  A. F. Morrison,  
 J. W. Mullinax,  K. Nanda,  T. S. Nguyen-Beck,  R. Olivares-Amaya,  
 J. A. Parkhill,  Zheng Pei,  T. M. Perrine,  F. Plasser,  P. Pokhilko,  
 S. Prager,  A. Prociuk,  E. Ramos,  D. R. Rehn,  F. Rob,  M. Scheurer,  
 M. Schneider,  N. Sergueev,  S. M. Sharada,  S. Sharma,  D. W. Small,  
 T. Stauch,  T. Stein,  Yu-Chuan Su,  A. J. W. Thom,  A. Tkatchenko,  
 T. Tsuchimochi,  N. M. Tubman,  L. Vogt,  M. L. Vidal,  O. Vydrov,  
 M. A. Watson,  J. Wenzel,  M. de Wergifosse,  T. A. Wesolowski,  A. White,  
 J. Witte,  A. Yamada,  Jun Yang,  K. Yao,  S. Yeganeh,  S. R. Yost,  
 Zhi-Qiang You,  A. Zech,  Igor Ying Zhang,  Xing Zhang,  Yan Zhao,  
 Ying Zhu,  B. R. Brooks,  G. K. L. Chan,  C. J. Cramer,  M. S. Gordon,  
 W. J. Hehre,  A. Klamt,  M. W. Schmidt,  C. D. Sherrill,  D. G. Truhlar,  
 A. Aspuru-Guzik,  R. Baer,  A. T. Bell,  N. A. Besley,  Jeng-Da Chai,  
 A. E. DePrince, III,  R. A. DiStasio Jr.,  A. Dreuw,  B. D. Dunietz,  
 T. R. Furlani,  Chao-Ping Hsu,  Yousung Jung,  Jing Kong,  D. S. Lambrecht,  
 WanZhen Liang,  C. Ochsenfeld,  V. A. Rassolov,  L. V. Slipchenko,  
 J. E. Subotnik,  T. Van Voorhis,  J. M. Herbert,  A. I. Krylov,  
 P. M. W. Gill,  M. Head-Gordon

 Contributors to earlier versions of Q-Chem not listed above: 
 R. D. Adamson,  B. Austin,  J. Baker,  G. J. O. Beran,  K. Brandhorst,  
 S. T. Brown,  E. F. C. Byrd,  A. K. Chakraborty,  C.-L. Cheng,  
 Siu Hung Chien,  D. M. Chipman,  D. L. Crittenden,  H. Dachsel,  
 R. J. Doerksen,  A. D. Dutoi,  L. Fusti-Molnar,  W. A. Goddard III,  
 A. Golubeva-Zadorozhnaya,  S. R. Gwaltney,  G. Hawkins,  A. Heyden,  
 S. Hirata,  G. Kedziora,  F. J. Keil,  C. Kelley,  Jihan Kim,  R. A. King,  
 R. Z. Khaliullin,  P. P. Korambath,  W. Kurlancheek,  A. M. Lee,  M. S. Lee,  
 S. V. Levchenko,  Ching Yeh Lin,  D. Liotard,  R. C. Lochan,  I. Lotan,  
 P. E. Maslen,  N. Nair,  D. P. O'Neill,  D. Neuhauser,  E. Neuscamman,  
 C. M. Oana,  R. Olson,  B. Peters,  R. Peverati,  P. A. Pieniazek,  
 Y. M. Rhee,  J. Ritchie,  M. A. Rohrdanz,  E. Rosta,  N. J. Russ,  
 H. F. Schaefer III,  N. E. Schultz,  N. Shenvi,  A. C. Simmonett,  A. Sodt,  
 D. Stuck,  K. S. Thanthiriwatte,  V. Vanovschi,  Tao Wang,  A. Warshel,  
 C. F. Williams,  Q. Wu,  X. Xu,  W. Zhang

 Please cite Q-Chem as follows:
 Y. Shao et al., Mol. Phys. 113, 184-215 (2015)
 DOI: 10.1080/00268976.2014.952696

 Q-Chem 5.2.0 for Intel X86 EM64T Linux

 Parts of Q-Chem use Armadillo 8.300.2 (Tropical Shenanigans).
 http://arma.sourceforge.net/

 Q-Chem begins on Wed Jul 17 13:36:28 2019  

Host: cori09
0

     Scratch files written to /tmp/qchem260548601/chain_scratch//
 Jun2719 |scratch|qcdevops|jenkins|workspace|build_RNUM -1
Processing $rem in /global/common/cori/software/qchem/5.2/config/preferences:
	 MEM_TOTAL  96000 
NAlpha2: 68
NElect   68
Mult     1
Symmetry turned off for PCM/SM12/SMD calculation

Checking the input file for inconsistencies... 	...done.

--------------------------------------------------------------
User input:
--------------------------------------------------------------
$molecule
1 1
O      4.1932969276     -3.1450207386      0.1280169902
C      4.3886711441     -2.0024991258      0.1260760067
O      4.6192463920     -0.8658121206      0.1263661253
O      1.6453877717     -1.2940751415     -0.0635510143
O     -0.8296819042      2.5306464341     -0.1213563397
C     -1.9182583805      2.7736990815      0.0111543686
O     -3.0656862890      3.1534125085      0.1631052179
C      0.3090893533     -0.7883258830     -0.0896524105
C      1.4530724132      0.1210160469     -0.0835129566
H     -3.7807485071      2.4530710654      0.1654423743
H     -0.2280838223     -0.9660215126     -1.0180008594
H     -0.2553886166     -0.9435307594      0.8265019503
H      1.7252112214      0.6320828704      0.8367779302
H      1.7530768217      0.6095318033     -1.0073673855
$end

$rem
job_type = freq
basis = def2-tzvppd
max_scf_cycles = 200
gen_scfman = true
xc_grid = 3
scf_algorithm = diis
resp_charges = true
symmetry = false
sym_ignore = true
method = wb97xv
geom_opt_max_cycles = 100
solvent_method = smd
ideriv = 1
thresh = 14
$end

$smx
solvent other
$end
--------------------------------------------------------------
 ----------------------------------------------------------------
             Standard Nuclear Orientation (Angstroms)
    I     Atom           X                Y                Z
 ----------------------------------------------------------------
    1      O       4.1932969276    -3.1450207386     0.1280169902
    2      C       4.3886711441    -2.0024991258     0.1260760067
    3      O       4.6192463920    -0.8658121206     0.1263661253
    4      O       1.6453877717    -1.2940751415    -0.0635510143
    5      O      -0.8296819042     2.5306464341    -0.1213563397
    6      C      -1.9182583805     2.7736990815     0.0111543686
    7      O      -3.0656862890     3.1534125085     0.1631052179
    8      C       0.3090893533    -0.7883258830    -0.0896524105
    9      C       1.4530724132     0.1210160469    -0.0835129566
   10      H      -3.7807485071     2.4530710654     0.1654423743
   11      H      -0.2280838223    -0.9660215126    -1.0180008594
   12      H      -0.2553886166    -0.9435307594     0.8265019503
   13      H       1.7252112214     0.6320828704     0.8367779302
   14      H       1.7530768217     0.6095318033    -1.0073673855
 ----------------------------------------------------------------
 Nuclear Repulsion Energy =         373.10528550 hartrees
 There are       34 alpha and       34 beta electrons
 Requested basis set is def2-TZVPPD
 There are 157 shells and 433 basis functions

 Total QAlloc Memory Limit  96000 MB
 Mega-Array Size       188 MB
 MEM_STATIC part       192 MB
 
 Citation of the SMD model:
 Marenich, A.V.; Cramer, C.J.; Truhlar, D.G.
 J. Phys. Chem. B 2009, 113, 6378-6396.
 iSolventCode=           0
 Solvent: other                                                           
 
 vradii
            1           2           3           4           5           6
    1   2.2940000   1.8500000   2.2940000   2.2940000   2.2940000   1.8500000
            7           8           9          10          11          12
    1   2.2940000   1.8500000   1.8500000   1.2000000   1.2000000   1.2000000
           13          14
    1   1.2000000   1.2000000
 Changing PCM_VDW_RADII to SMD_RADIUS
 Discretize the solute cavity surface with Lebedev spheres
	Using 110 Lebedev grid points for each H atom
	Using 194 Lebedev grid points for other atoms
	Atomic van der Waals radii will be scaled by 1.20
 Remove points where switching function is < 1.0e-08
 Keep 1146 surface tesserae and discard 1150 interior tesserae
 Molecular Surface Area = 241.458 Angst**2

                       Distance Matrix (Angstroms)
             O (  1)   C (  2)   O (  3)   O (  4)   O (  5)   C (  6)
   C (  2)  1.159108
   O (  3)  2.318669  1.159837
   O (  4)  3.155081  2.839617  3.010534
   O (  5)  7.583251  6.916780  6.425583  4.556074
   C (  6)  8.508584  7.912183  7.483200  5.408506  1.123224
   O (  7)  9.610636  9.063787  8.672584  6.482726  2.338476  1.218139
   C (  8)  4.548457  4.261894  4.316262  1.429041  3.509043  4.202292
   C (  9)  4.268556  3.629185  3.323031  1.428239  3.319445  4.290869
   H ( 10)  9.742968  9.305540  9.031967  6.598219  2.965985  1.896174
   H ( 11)  5.060633  4.868021  4.981589  2.128025  3.659587  4.231000
   H ( 12)  5.012509  4.814489  4.925271  2.127916  3.646664  4.153038
   H ( 13)  4.567308  3.813153  3.335238  2.127686  3.324161  4.306164
   H ( 14)  4.619571  3.879917  3.417151  2.127465  3.338613  4.381747
             O (  7)   C (  8)   C (  9)   H ( 10)   H ( 11)   H ( 12)
   C (  8)  5.195219
   C (  9)  5.447516  1.461382
   H ( 10)  1.000898  5.224797  5.735272
   H ( 11)  5.139721  1.087181  2.209345  5.070716
   H ( 12)  5.012266  1.087227  2.209123  4.939845  1.844842
   H ( 13)  5.455606  2.209352  1.087283  5.838003  3.132013  2.530897
   H ( 14)  5.573313  2.209368  1.087271  5.949567  2.531300  3.131934
             H ( 13)
   H ( 14)  1.844494
 
 A cutoff of  1.0D-14 yielded  10213 shell pairs
 There are     76777 function pairs (     98075 Cartesian)
 Smallest overlap matrix eigenvalue = 5.65E-06
 Guess from superposition of atomic densities
 Warning:  Energy on first SCF cycle will be non-variational
 SAD guess density has 68.075651 electrons

 -----------------------------------------------------------------------
  General SCF calculation program by
  Eric Jon Sundstrom, Paul Horn, Yuezhi Mao, Dmitri Zuev, Alec White,
  David Stuck, Shaama M.S., Shane Yost, Joonho Lee, David Small,
  Daniel Levine, Susi Lehtola, Hugh Burton, Evgeny Epifanovsky,
  Bang C. Huynh
 -----------------------------------------------------------------------
 Exchange:     0.1670 Hartree-Fock + 1.0000 wB97X-V + LR-HF
 Correlation:  1.0000 wB97X-V
 Using SG-3 standard quadrature grid
 Nonlocal Correlation:  VV10 with C = 0.0100 and b = 6.00 and scale = 1.00000
 Grid used for NLC:  SG-1 standard quadrature
 
 Citation of the SMD model:
 Marenich, A.V.; Cramer, C.J.; Truhlar, D.G.
 J. Phys. Chem. B 2009, 113, 6378-6396.
 iSolventCode=           0
 Solvent: other                                                           
 
 vradii
            1           2           3           4           5           6
    1   2.2940000   1.8500000   2.2940000   2.2940000   2.2940000   1.8500000
            7           8           9          10          11          12
    1   2.2940000   1.8500000   1.8500000   1.2000000   1.2000000   1.2000000
           13          14
    1   1.2000000   1.2000000
 using 32 threads for integral computing
 -------------------------------------------------------
 OpenMP Integral computing Module                
 Release: version 1.0, May 2013, Q-Chem Inc. Pittsburgh 
 -------------------------------------------------------
 using 32 threads for integral computing
 -------------------------------------------------------
 OpenMP Integral computing Module                
 Release: version 1.0, May 2013, Q-Chem Inc. Pittsburgh 
 -------------------------------------------------------
 -------------------------------------------------------
 OpenMP BLAS3 based DFT computing Module                
 Release: version 1.0, May 2013, Q-Chem Inc. Pittsburgh 
 -------------------------------------------------------
 -------------------------------------------------------
 OpenMP BLAS3 based DFT computing Module                
 Release: version 1.0, May 2013, Q-Chem Inc. Pittsburgh 
 -------------------------------------------------------
 -------------------------------------------------------
 OpenMP BLAS3 based DFT computing Module                
 Release: version 1.0, May 2013, Q-Chem Inc. Pittsburgh 
 -------------------------------------------------------
 A restricted SCF calculation will be
 performed using DIIS
 SCF converges when DIIS error is below 1.0e-08
 ---------------------------------------
  Cycle       Energy         DIIS error
 ---------------------------------------
    1    -530.3648447396      2.55e-02  
    2    -530.1227283866      9.01e-03  
    3    -530.2812187885      8.31e-03  
    4    -531.3259827186      9.22e-04  
    5    -531.3365572328      4.93e-04  
    6    -531.3401479429      8.22e-05  
    7    -531.3402653466      3.12e-05  
    8    -531.3402816512      1.12e-05  
    9    -531.3402845547      2.54e-06  
   10    -531.3402847839      1.21e-06  
   11    -531.3402848212      3.90e-07  
   12    -531.3402848275      1.52e-07  
   13    -531.3402848285      5.10e-08  
   14    -531.3402848286      3.68e-08  
   15    -531.3402848286      6.01e-09  Convergence criterion met
 ---------------------------------------
 SCF time:   CPU 2874.81s  wall 118.00s 
(3)  G-ENP(liq) elect-nuc-pol free energy of system     -531.340284829 a.u.
(4)  G-CDS(liq) cavity-dispersion-solvent structure 
     free energy                                               -2.3896 kcal/mol
(6)  G-S(liq) free energy of system                     -531.344092942 a.u.
 SCF   energy in the final basis set =     -531.3402848286
 Total energy in the final basis set =     -531.3440929424
 
 --------------------------------------------------------------
 
                    Orbital Energies (a.u.)
 --------------------------------------------------------------
 
 Alpha MOs
 -- Occupied --
-19.4651 -19.4362 -19.2885 -19.2883 -19.2353 -10.6099 -10.4550 -10.3228
-10.3220  -1.4473  -1.4062  -1.2910  -1.2469  -1.2135  -0.9396  -0.8106
 -0.7853  -0.7669  -0.7665  -0.7607  -0.6802  -0.6560  -0.6363  -0.6354
 -0.6336  -0.6318  -0.6242  -0.5954  -0.5092  -0.4900  -0.4759  -0.4751
 -0.4276  -0.3905
 -- Virtual --
 -0.0328  -0.0071   0.0021   0.0447   0.0629   0.0723   0.0794   0.0801
  0.0879   0.0949   0.1048   0.1088   0.1185   0.1200   0.1269   0.1289
  0.1321   0.1358   0.1378   0.1427   0.1526   0.1617   0.1686   0.1728
  0.1805   0.1826   0.1929   0.2000   0.2150   0.2231   0.2283   0.2377
  0.2411   0.2556   0.2563   0.2616   0.2672   0.2734   0.2833   0.2955
  0.3040   0.3063   0.3164   0.3193   0.3207   0.3269   0.3326   0.3388
  0.3437   0.3480   0.3655   0.3672   0.3712   0.3754   0.3820   0.3876
  0.3929   0.3957   0.4004   0.4061   0.4081   0.4125   0.4217   0.4292
  0.4342   0.4379   0.4432   0.4518   0.4601   0.4620   0.4644   0.4810
  0.4881   0.4933   0.4975   0.4992   0.5068   0.5139   0.5313   0.5353
  0.5392   0.5502   0.5520   0.5565   0.5699   0.5737   0.5825   0.5892
  0.5967   0.5997   0.6036   0.6047   0.6228   0.6298   0.6421   0.6595
  0.6730   0.6780   0.6907   0.6983   0.7154   0.7202   0.7290   0.7377
  0.7594   0.7759   0.7815   0.7826   0.7867   0.7900   0.7937   0.8036
  0.8071   0.8131   0.8325   0.8377   0.8664   0.8796   0.8815   0.8941
  0.8977   0.9080   0.9116   0.9271   0.9370   0.9412   0.9583   0.9701
  0.9827   0.9900   0.9920   0.9952   1.0016   1.0126   1.0207   1.0296
  1.0432   1.0680   1.0842   1.0983   1.1179   1.1260   1.1304   1.1483
  1.1720   1.1954   1.2036   1.2086   1.2112   1.2274   1.2369   1.2689
  1.2777   1.2867   1.2875   1.2997   1.3206   1.3394   1.3437   1.3546
  1.3744   1.3841   1.4066   1.4346   1.4503   1.5118   1.5147   1.5592
  1.6330   1.6697   1.6866   1.7017   1.7152   1.7163   1.7312   1.7532
  1.7562   1.7753   1.7869   1.8020   1.8211   1.8305   1.8471   1.8794
  1.8880   1.9010   1.9065   1.9138   1.9191   1.9378   1.9516   1.9768
  1.9832   2.0235   2.0301   2.0652   2.0888   2.0962   2.1044   2.1312
  2.1717   2.2113   2.2218   2.2527   2.3148   2.3444   2.3749   2.3848
  2.4265   2.4628   2.4902   2.5018   2.5115   2.5430   2.5744   2.5772
  2.6372   2.7188   2.7240   2.7473   2.7599   2.7765   2.8014   2.8167
  2.8229   2.8805   2.9191   2.9446   2.9476   2.9671   2.9681   2.9730
  2.9823   2.9909   3.0013   3.0137   3.0292   3.0396   3.0468   3.0511
  3.0661   3.0753   3.1061   3.1246   3.1334   3.1366   3.1551   3.1584
  3.1777   3.1998   3.2051   3.2126   3.2306   3.2909   3.2942   3.3028
  3.3271   3.3411   3.3573   3.3581   3.3898   3.4210   3.4353   3.4601
  3.4837   3.5128   3.5159   3.5283   3.5293   3.5642   3.5836   3.6237
  3.6369   3.6805   3.6922   3.7227   3.7467   3.7637   3.7717   3.7984
  3.8034   3.8153   3.8179   3.8394   3.8753   3.8976   3.9640   4.0000
  4.0395   4.0421   4.0477   4.0625   4.1105   4.1473   4.2017   4.2172
  4.2921   4.3041   4.3276   4.3731   4.3805   4.3869   4.3932   4.4366
  4.4849   4.6395   4.6583   4.7062   4.7350   4.7805   4.7962   4.8120
  4.9612   4.9842   4.9860   5.0633   5.0921   5.1021   5.1167   5.1207
  5.1774   5.1883   5.2022   5.2420   5.2459   5.2523   5.2544   5.2984
  5.3072   5.3245   5.3282   5.3531   5.4179   5.4765   5.5544   5.5811
  5.6218   5.6548   5.6819   5.7132   5.7143   5.7333   5.7745   5.8871
  5.9327   5.9391   5.9738   6.0700   6.0714   6.1560   6.1907   6.2540
  6.2625   6.3282   6.3303   6.4126   6.4157   6.4246   6.4299   6.4517
  6.4840   6.5221   6.5390   6.5437   6.5551   6.5781   6.6005   6.6187
  6.6679   6.7875   6.8588   6.8646   6.8812   6.9597   6.9798   7.0430
  7.0455   7.0529   7.0718   7.0996   7.2122   7.2337   7.2926   7.3237
  7.3349   7.4949   7.5980   7.6558   7.8736   7.8766  23.6673  23.7003
 24.0175  24.3339  44.0681  44.1540  44.3506  44.4050  44.4487
 --------------------------------------------------------------
 
          Ground-State Mulliken Net Atomic Charges

     Atom                 Charge (a.u.)
  ----------------------------------------
      1 O                    -0.304003
      2 C                     0.628569
      3 O                    -0.309781
      4 O                    -0.349787
      5 O                     0.021124
      6 C                     0.705428
      7 O                    -0.106812
      8 C                    -0.051140
      9 C                     0.179118
     10 H                     0.369862
     11 H                     0.059987
     12 H                     0.060794
     13 H                     0.048628
     14 H                     0.048012
  ----------------------------------------
  Sum of atomic charges =     1.000000

  Building new vdw surfaces
         Merz-Kollman RESP Net Atomic Charges

     Atom                 Charge (a.u.)
  ----------------------------------------
      1 O                    -0.391236
      2 C                     0.742852
      3 O                    -0.376098
      4 O                    -0.224792
      5 O                    -0.109513
      6 C                     0.792164
      7 O                    -0.211909
      8 C                    -0.239991
      9 C                    -0.260275
     10 H                     0.523036
     11 H                     0.183641
     12 H                     0.182962
     13 H                     0.194579
     14 H                     0.194579
  ----------------------------------------
  Sum of atomic charges =     1.000000

  Related Dipole Moment =    20.5640 (X -14.9299 Y 14.1385 Z  0.2822)

 -----------------------------------------------------------------
                    Cartesian Multipole Moments
 -----------------------------------------------------------------
    Charge (ESU x 10^10)
                 4.8032
    Dipole Moment (Debye)
         X     -14.9176      Y      14.1571      Z       0.2905
       Tot      20.5680
    Quadrupole Moments (Debye-Ang)
        XX     -11.6958     XY     -27.3519     YY     -23.2291
        XZ      -1.2842     YZ       0.7654     ZZ     -45.8982
    Octopole Moments (Debye-Ang^2)
       XXX    -330.9349    XXY     103.9169    XYY    -163.1124
       YYY     122.1535    XXZ       3.6833    XYZ      -2.9468
       YYZ       0.4342    XZZ     -57.9080    YZZ       2.3360
       ZZZ      -2.5787
    Hexadecapole Moments (Debye-Ang^3)
      XXXX   -1960.5550   XXXY     334.0496   XXYY    -457.4810
      XYYY     590.7074   YYYY   -1144.1228   XXXZ     -35.5859
      XXYZ      11.7161   XYYZ     -12.3041   YYYZ      11.8645
      XXZZ    -402.6351   XYZZ     222.8285   YYZZ    -215.8431
      XZZZ     -13.7274   YZZZ       4.9750   ZZZZ     -55.6137
 -----------------------------------------------------------------
 Calculating analytic gradient of the SCF energy
 Gradient of CDS energy
            1           2           3           4           5           6
    1  -0.0007167   0.0012331  -0.0006592  -0.0000280   0.0001158   0.0006276
    2  -0.0000434  -0.0002435   0.0002266   0.0004273  -0.0001240   0.0002403
    3  -0.0000466   0.0000843  -0.0000470   0.0000120   0.0000127  -0.0000390
            7           8           9          10          11          12
    1  -0.0003428  -0.0011189   0.0011067  -0.0003184   0.0001402   0.0001473
    2  -0.0006455  -0.0010521   0.0009346   0.0004128   0.0000464   0.0000405
    3  -0.0000294  -0.0000035  -0.0000212   0.0000725   0.0002423  -0.0002391
           13          14
    1  -0.0001084  -0.0000783
    2  -0.0000924  -0.0001274
    3  -0.0002390   0.0002410
 Gradient of SCF Energy
            1           2           3           4           5           6
    1  -0.0057954  -0.0023297   0.0072449   0.0045912   0.1554296  -0.0490380
    2  -0.0323448  -0.0002359   0.0334969  -0.0072563  -0.0265795   0.0020758
    3  -0.0000407   0.0000388  -0.0000725   0.0001441  -0.0181008   0.0042738
            7           8           9          10          11          12
    1  -0.0457105   0.0272356  -0.0124105  -0.0590511  -0.0175337  -0.0189646
    2   0.0671662   0.0195694  -0.0282019  -0.0435437  -0.0087562  -0.0069308
    3   0.0120424   0.0006246   0.0000719   0.0016676  -0.0333241   0.0328978
           13          14
    1   0.0077681   0.0085641
    2   0.0163683   0.0151724
    3   0.0303843  -0.0306071
 Max gradient component =       1.554E-01
 RMS gradient           =       3.438E-02
 Computing fast CPCM-SWIG gradient
 Updating gradient with PCM contributions...
 -- total gradient after adding PCM contribution --
---------------------------------------------------
  Atom         X              Y              Z     
---------------------------------------------------
   1       0.000003      -0.000001      -0.000001
   2       0.000001       0.000006       0.000002
   3       0.000007      -0.000004      -0.000002
   4      -0.000002      -0.000002      -0.000026
   5       0.000000       0.000002       0.000016
   6      -0.000004      -0.000003       0.000002
   7      -0.000002      -0.000003       0.000002
   8       0.000000      -0.000003       0.000002
   9       0.000018       0.000009       0.000020
  10      -0.000003      -0.000003      -0.000002
  11      -0.000006      -0.000008      -0.000004
  12       0.000004       0.000001       0.000001
  13      -0.000047       0.000047      -0.000008
  14       0.000031      -0.000039      -0.000000
---------------------------------------------------
 Number of fixed atoms: 0
 Gradient time:  CPU 515.72 s  wall 26.27 s
 ######################################################
 ######################################################
 # Starting finite difference calculation for IDERIV  #
 Finite diff step size:  1.88973e-03 a.u.
 ----------------------------------------------------------------
             Standard Nuclear Orientation (Angstroms)
    I     Atom           X                Y                Z
 ----------------------------------------------------------------
    1      O       4.1942969276    -3.1450207386     0.1280169902
    2      C       4.3886711441    -2.0024991258     0.1260760067
    3      O       4.6192463920    -0.8658121206     0.1263661253
    4      O       1.6453877717    -1.2940751415    -0.0635510143
    5      O      -0.8296819042     2.5306464341    -0.1213563397
    6      C      -1.9182583805     2.7736990815     0.0111543686
    7      O      -3.0656862890     3.1534125085     0.1631052179
    8      C       0.3090893533    -0.7883258830    -0.0896524105
    9      C       1.4530724132     0.1210160469    -0.0835129566
   10      H      -3.7807485071     2.4530710654     0.1654423743
   11      H      -0.2280838223    -0.9660215126    -1.0180008594
   12      H      -0.2553886166    -0.9435307594     0.8265019503
   13      H       1.7252112214     0.6320828704     0.8367779302
   14      H       1.7530768217     0.6095318033    -1.0073673855
 ----------------------------------------------------------------
 Nuclear Repulsion Energy =         373.10346668 hartrees
 There are       34 alpha and       34 beta electrons
 Discretize the solute cavity surface with Lebedev spheres
	Using 110 Lebedev grid points for each H atom
	Using 194 Lebedev grid points for other atoms
	Atomic van der Waals radii will be scaled by 1.20
 Remove points where switching function is < 1.0e-08
 Keep 1146 surface tesserae and discard 1150 interior tesserae
 Molecular Surface Area = 241.464 Angst**2

                       Distance Matrix (Angstroms)
             O (  1)   C (  2)   O (  3)   O (  4)   O (  5)   C (  6)
   C (  2)  1.158939
   O (  3)  2.318486  1.159837
   O (  4)  3.155889  2.839617  3.010534
   O (  5)  7.583914  6.916780  6.425583  4.556074
   C (  6)  8.509303  7.912183  7.483200  5.408506  1.123224
   O (  7)  9.611392  9.063787  8.672584  6.482726  2.338476  1.218139
   C (  8)  4.549311  4.261894  4.316262  1.429041  3.509043  4.202292
   C (  9)  4.269198  3.629185  3.323031  1.428239  3.319445  4.290869
   H ( 10)  9.743787  9.305540  9.031967  6.598219  2.965985  1.896174
   H ( 11)  5.061506  4.868021  4.981589  2.128025  3.659587  4.231000
   H ( 12)  5.013396  4.814489  4.925271  2.127916  3.646664  4.153038
   H ( 13)  4.567848  3.813153  3.335238  2.127686  3.324161  4.306164
   H ( 14)  4.620099  3.879917  3.417151  2.127465  3.338613  4.381747
             O (  7)   C (  8)   C (  9)   H ( 10)   H ( 11)   H ( 12)
   C (  8)  5.195219
   C (  9)  5.447516  1.461382
   H ( 10)  1.000898  5.224797  5.735272
   H ( 11)  5.139721  1.087181  2.209345  5.070716
   H ( 12)  5.012266  1.087227  2.209123  4.939845  1.844842
   H ( 13)  5.455606  2.209352  1.087283  5.838003  3.132013  2.530897
   H ( 14)  5.573313  2.209368  1.087271  5.949567  2.531300  3.131934
             H ( 13)
   H ( 14)  1.844494
 
 Requested basis set is def2-TZVPPD
 There are 157 shells and 433 basis functions
 A cutoff of  1.0D-14 yielded  10213 shell pairs
 There are     76777 function pairs (     98075 Cartesian)
 Smallest overlap matrix eigenvalue = 5.65E-06
 Guess MOs from SCF MO coefficient file

 -----------------------------------------------------------------------
  General SCF calculation program by
  Eric Jon Sundstrom, Paul Horn, Yuezhi Mao, Dmitri Zuev, Alec White,
  David Stuck, Shaama M.S., Shane Yost, Joonho Lee, David Small,
  Daniel Levine, Susi Lehtola, Hugh Burton, Evgeny Epifanovsky,
  Bang C. Huynh
 -----------------------------------------------------------------------
 Exchange:     0.1670 Hartree-Fock + 1.0000 wB97X-V + LR-HF
 Correlation:  1.0000 wB97X-V
 Using SG-3 standard quadrature grid
 Nonlocal Correlation:  VV10 with C = 0.0100 and b = 6.00 and scale = 1.00000
 Grid used for NLC:  SG-1 standard quadrature
 
 Citation of the SMD model:
 Marenich, A.V.; Cramer, C.J.; Truhlar, D.G.
 J. Phys. Chem. B 2009, 113, 6378-6396.
 iSolventCode=           0
 Solvent: other                                                           
 
 vradii
            1           2           3           4           5           6
    1   2.2940000   1.8500000   2.2940000   2.2940000   2.2940000   1.8500000
            7           8           9          10          11          12
    1   2.2940000   1.8500000   1.8500000   1.2000000   1.2000000   1.2000000
           13          14
    1   1.2000000   1.2000000
 using 32 threads for integral computing
 -------------------------------------------------------
 OpenMP Integral computing Module                
 Release: version 1.0, May 2013, Q-Chem Inc. Pittsburgh 
 -------------------------------------------------------
 using 32 threads for integral computing
 -------------------------------------------------------
 OpenMP Integral computing Module                
 Release: version 1.0, May 2013, Q-Chem Inc. Pittsburgh 
 -------------------------------------------------------
 -------------------------------------------------------
 OpenMP BLAS3 based DFT computing Module                
 Release: version 1.0, May 2013, Q-Chem Inc. Pittsburgh 
 -------------------------------------------------------
 -------------------------------------------------------
 OpenMP BLAS3 based DFT computing Module                
 Release: version 1.0, May 2013, Q-Chem Inc. Pittsburgh 
 -------------------------------------------------------
 -------------------------------------------------------
 OpenMP BLAS3 based DFT computing Module                
 Release: version 1.0, May 2013, Q-Chem Inc. Pittsburgh 
 -------------------------------------------------------
 A restricted SCF calculation will be
 performed using Roothaan-Hall, DIIS
 SCF converges when DIIS error is below 1.0e-08
 ---------------------------------------
  Cycle       Energy         DIIS error
 ---------------------------------------
    1    -539.2787766228      2.91e-04  Roothaan Step
 ---------------------------------------
  Cycle       Energy         DIIS error
 ---------------------------------------
    1    -531.3350749090      4.09e-04  
    2    -531.3363130084      5.08e-04  
    3    -531.3401928904      5.03e-05  
    4    -531.3402570062      3.49e-05  
    5    -531.3402781372      1.49e-05  
    6    -531.3402831298      2.39e-06  
    7    -531.3402832932      1.52e-06  
    8    -531.3402833380      3.15e-07  
    9    -531.3402833415      1.70e-07  
   10    -531.3402833421      6.15e-08  
   11    -531.3402833422      1.93e-08  
   12    -531.3402833422      4.57e-09  Convergence criterion met
 ---------------------------------------
 SCF time:   CPU 2523.41s  wall 103.00s 
(3)  G-ENP(liq) elect-nuc-pol free energy of system     -531.340283342 a.u.
(4)  G-CDS(liq) cavity-dispersion-solvent structure 
     free energy                                               -2.3905 kcal/mol
(6)  G-S(liq) free energy of system                     -531.344092809 a.u.
 SCF   energy in the final basis set =     -531.3402833422
 Total energy in the final basis set =     -531.3440928092
 
 --------------------------------------------------------------
 
                    Orbital Energies (a.u.)
 --------------------------------------------------------------
 
 Alpha MOs
 -- Occupied --
-19.4651 -19.4362 -19.2885 -19.2883 -19.2354 -10.6099 -10.4549 -10.3228
-10.3220  -1.4473  -1.4062  -1.2911  -1.2469  -1.2135  -0.9396  -0.8107
 -0.7853  -0.7669  -0.7665  -0.7607  -0.6802  -0.6560  -0.6363  -0.6354
 -0.6336  -0.6319  -0.6242  -0.5954  -0.5092  -0.4900  -0.4759  -0.4751
 -0.4276  -0.3905
 -- Virtual --
 -0.0328  -0.0071   0.0021   0.0447   0.0629   0.0723   0.0794   0.0801
  0.0879   0.0949   0.1048   0.1088   0.1185   0.1200   0.1269   0.1289
  0.1322   0.1358   0.1378   0.1427   0.1526   0.1617   0.1686   0.1728
  0.1805   0.1826   0.1929   0.2000   0.2150   0.2231   0.2283   0.2377
  0.2411   0.2556   0.2563   0.2616   0.2672   0.2734   0.2833   0.2955
  0.3040   0.3063   0.3164   0.3193   0.3207   0.3269   0.3326   0.3388
  0.3437   0.3480   0.3655   0.3672   0.3712   0.3754   0.3820   0.3875
  0.3929   0.3957   0.4004   0.4061   0.4081   0.4125   0.4217   0.4292
  0.4342   0.4379   0.4432   0.4518   0.4601   0.4620   0.4644   0.4810
  0.4881   0.4933   0.4975   0.4992   0.5069   0.5139   0.5313   0.5353
  0.5392   0.5502   0.5520   0.5565   0.5699   0.5737   0.5825   0.5892
  0.5967   0.5997   0.6036   0.6047   0.6229   0.6298   0.6421   0.6595
  0.6730   0.6779   0.6907   0.6983   0.7154   0.7202   0.7290   0.7377
  0.7594   0.7758   0.7815   0.7826   0.7867   0.7900   0.7937   0.8036
  0.8071   0.8131   0.8324   0.8377   0.8664   0.8796   0.8815   0.8941
  0.8977   0.9080   0.9117   0.9271   0.9370   0.9411   0.9583   0.9701
  0.9827   0.9900   0.9920   0.9952   1.0016   1.0126   1.0207   1.0296
  1.0432   1.0680   1.0843   1.0983   1.1179   1.1260   1.1304   1.1483
  1.1720   1.1954   1.2036   1.2086   1.2112   1.2273   1.2369   1.2690
  1.2777   1.2867   1.2875   1.2997   1.3206   1.3394   1.3437   1.3546
  1.3744   1.3841   1.4065   1.4346   1.4502   1.5118   1.5146   1.5592
  1.6330   1.6697   1.6866   1.7017   1.7152   1.7163   1.7312   1.7532
  1.7562   1.7753   1.7869   1.8019   1.8211   1.8306   1.8471   1.8794
  1.8880   1.9010   1.9064   1.9137   1.9191   1.9378   1.9516   1.9769
  1.9832   2.0235   2.0302   2.0652   2.0889   2.0963   2.1045   2.1311
  2.1716   2.2113   2.2217   2.2527   2.3147   2.3444   2.3749   2.3848
  2.4264   2.4627   2.4903   2.5018   2.5115   2.5430   2.5744   2.5772
  2.6373   2.7188   2.7240   2.7473   2.7598   2.7765   2.8014   2.8167
  2.8229   2.8805   2.9191   2.9446   2.9476   2.9671   2.9681   2.9729
  2.9823   2.9910   3.0013   3.0137   3.0292   3.0397   3.0468   3.0513
  3.0662   3.0753   3.1062   3.1246   3.1334   3.1366   3.1551   3.1584
  3.1777   3.1998   3.2051   3.2126   3.2306   3.2909   3.2942   3.3028
  3.3271   3.3411   3.3573   3.3581   3.3897   3.4210   3.4354   3.4601
  3.4837   3.5128   3.5159   3.5285   3.5293   3.5642   3.5836   3.6236
  3.6369   3.6805   3.6922   3.7227   3.7467   3.7639   3.7717   3.7984
  3.8034   3.8153   3.8180   3.8395   3.8753   3.8976   3.9640   4.0000
  4.0395   4.0421   4.0478   4.0625   4.1105   4.1473   4.2017   4.2172
  4.2921   4.3041   4.3276   4.3731   4.3805   4.3869   4.3932   4.4366
  4.4849   4.6395   4.6583   4.7062   4.7350   4.7805   4.7962   4.8120
  4.9612   4.9842   4.9864   5.0633   5.0921   5.1021   5.1167   5.1207
  5.1774   5.1882   5.2022   5.2420   5.2459   5.2523   5.2544   5.2984
  5.3072   5.3246   5.3283   5.3527   5.4179   5.4765   5.5544   5.5811
  5.6218   5.6548   5.6819   5.7132   5.7143   5.7333   5.7745   5.8871
  5.9328   5.9392   5.9738   6.0700   6.0714   6.1563   6.1907   6.2544
  6.2631   6.3282   6.3303   6.4126   6.4157   6.4246   6.4299   6.4517
  6.4840   6.5221   6.5390   6.5437   6.5551   6.5782   6.6004   6.6187
  6.6680   6.7875   6.8588   6.8646   6.8812   6.9596   6.9798   7.0429
  7.0453   7.0529   7.0719   7.0997   7.2124   7.2339   7.2926   7.3237
  7.3349   7.4949   7.5983   7.6558   7.8737   7.8770  23.6672  23.7003
 24.0175  24.3346  44.0681  44.1542  44.3506  44.4050  44.4487
 --------------------------------------------------------------
 
          Ground-State Mulliken Net Atomic Charges

     Atom                 Charge (a.u.)
  ----------------------------------------
      1 O                    -0.303746
      2 C                     0.628328
      3 O                    -0.309807
      4 O                    -0.349846
      5 O                     0.021124
      6 C                     0.705429
      7 O                    -0.106812
      8 C                    -0.051094
      9 C                     0.179171
     10 H                     0.369862
     11 H                     0.059987
     12 H                     0.060799
     13 H                     0.048611
     14 H                     0.047995
  ----------------------------------------
  Sum of atomic charges =     1.000000

  Building new vdw surfaces
         Merz-Kollman RESP Net Atomic Charges

     Atom                 Charge (a.u.)
  ----------------------------------------
      1 O                    -0.391191
      2 C                     0.742948
      3 O                    -0.376203
      4 O                    -0.224914
      5 O                    -0.109513
      6 C                     0.792150
      7 O                    -0.211896
      8 C                    -0.239875
      9 C                    -0.260237
     10 H                     0.523031
     11 H                     0.183622
     12 H                     0.182940
     13 H                     0.194569
     14 H                     0.194569
  ----------------------------------------
  Sum of atomic charges =     1.000000

  Related Dipole Moment =    20.5649 (X -14.9318 Y 14.1378 Z  0.2822)

 -----------------------------------------------------------------
                    Cartesian Multipole Moments
 -----------------------------------------------------------------
    Charge (ESU x 10^10)
                 4.8032
    Dipole Moment (Debye)
         X     -14.9194      Y      14.1564      Z       0.2905
       Tot      20.5688
    Quadrupole Moments (Debye-Ang)
        XX     -11.7095     XY     -27.3504     YY     -23.2261
        XZ      -1.2844     YZ       0.7653     ZZ     -45.8976
    Octopole Moments (Debye-Ang^2)
       XXX    -331.0332    XXY     103.9418    XYY    -163.1185
       YYY     122.1425    XXZ       3.6816    XYZ      -2.9467
       YYZ       0.4346    XZZ     -57.9115    YZZ       2.3343
       ZZZ      -2.5785
    Hexadecapole Moments (Debye-Ang^3)
      XXXX   -1961.2628   XXXY     334.2777   XXYY    -457.5812
      XYYY     590.7471   YYYY   -1144.0795   XXXZ     -35.5981
      XXYZ      11.7189   XYYZ     -12.3046   YYYZ      11.8628
      XXZZ    -402.6720   XYZZ     222.8381   YYZZ    -215.8373
      XZZZ     -13.7287   YZZZ       4.9743   ZZZZ     -55.6126
 -----------------------------------------------------------------
 Calculating analytic gradient of the SCF energy
 Gradient of CDS energy
            1           2           3           4           5           6
    1  -0.0007155   0.0012323  -0.0006592  -0.0000283   0.0001158   0.0006276
    2  -0.0000436  -0.0002438   0.0002266   0.0004278  -0.0001240   0.0002403
    3  -0.0000465   0.0000843  -0.0000470   0.0000119   0.0000127  -0.0000390
            7           8           9          10          11          12
    1  -0.0003428  -0.0011189   0.0011067  -0.0003184   0.0001402   0.0001473
    2  -0.0006455  -0.0010521   0.0009346   0.0004128   0.0000464   0.0000405
    3  -0.0000294  -0.0000035  -0.0000212   0.0000725   0.0002423  -0.0002391
           13          14
    1  -0.0001084  -0.0000783
    2  -0.0000924  -0.0001274
    3  -0.0002390   0.0002410
 Gradient of SCF Energy
            1           2           3           4           5           6
    1  -0.0056163  -0.0025770   0.0073184   0.0045867   0.1554308  -0.0490381
    2  -0.0320141  -0.0005071   0.0334316  -0.0072503  -0.0265797   0.0020755
    3  -0.0000406   0.0000393  -0.0000726   0.0001440  -0.0181010   0.0042738
            7           8           9          10          11          12
    1  -0.0457110   0.0272380  -0.0124119  -0.0590515  -0.0175348  -0.0189656
    2   0.0671668   0.0195687  -0.0282029  -0.0435441  -0.0087563  -0.0069310
    3   0.0120425   0.0006246   0.0000716   0.0016677  -0.0333259   0.0328994
           13          14
    1   0.0077680   0.0085643
    2   0.0163695   0.0151735
    3   0.0303849  -0.0306076
 Max gradient component =       1.554E-01
 RMS gradient           =       3.437E-02
 Computing fast CPCM-SWIG gradient
 Updating gradient with PCM contributions...
 -- total gradient after adding PCM contribution --
---------------------------------------------------
  Atom         X              Y              Z     
---------------------------------------------------
   1       0.000138       0.000328      -0.000001
   2      -0.000189      -0.000279       0.000002
   3       0.000067      -0.000053      -0.000002
   4      -0.000006       0.000002      -0.000026
   5       0.000000       0.000002       0.000016
   6      -0.000004      -0.000003       0.000002
   7      -0.000002      -0.000003       0.000002
   8       0.000002      -0.000003       0.000001
   9       0.000017       0.000009       0.000020
  10      -0.000003      -0.000003      -0.000002
  11      -0.000007      -0.000008      -0.000004
  12       0.000004       0.000001       0.000001
  13      -0.000047       0.000047      -0.000008
  14       0.000031      -0.000039      -0.000000
---------------------------------------------------
 Number of fixed atoms: 0
 Gradient time:  CPU 513.40 s  wall 25.86 s
 ----------------------------------------------------------------
             Standard Nuclear Orientation (Angstroms)
    I     Atom           X                Y                Z
 ----------------------------------------------------------------
    1      O       4.1922969276    -3.1450207386     0.1280169902
    2      C       4.3886711441    -2.0024991258     0.1260760067
    3      O       4.6192463920    -0.8658121206     0.1263661253
    4      O       1.6453877717    -1.2940751415    -0.0635510143
    5      O      -0.8296819042     2.5306464341    -0.1213563397
    6      C      -1.9182583805     2.7736990815     0.0111543686
    7      O      -3.0656862890     3.1534125085     0.1631052179
    8      C       0.3090893533    -0.7883258830    -0.0896524105
    9      C       1.4530724132     0.1210160469    -0.0835129566
   10      H      -3.7807485071     2.4530710654     0.1654423743
   11      H      -0.2280838223    -0.9660215126    -1.0180008594
   12      H      -0.2553886166    -0.9435307594     0.8265019503
   13      H       1.7252112214     0.6320828704     0.8367779302
   14      H       1.7530768217     0.6095318033    -1.0073673855
 ----------------------------------------------------------------
 Nuclear Repulsion Energy =         373.10708853 hartrees
 There are       34 alpha and       34 beta electrons
 Discretize the solute cavity surface with Lebedev spheres
	Using 110 Lebedev grid points for each H atom
	Using 194 Lebedev grid points for other atoms
	Atomic van der Waals radii will be scaled by 1.20
 Remove points where switching function is < 1.0e-08
 Keep 1146 surface tesserae and discard 1150 interior tesserae
 Molecular Surface Area = 241.453 Angst**2

                       Distance Matrix (Angstroms)
             O (  1)   C (  2)   O (  3)   O (  4)   O (  5)   C (  6)
   C (  2)  1.159277
   O (  3)  2.318853  1.159837
   O (  4)  3.154274  2.839617  3.010534
   O (  5)  7.582589  6.916780  6.425583  4.556074
   C (  6)  8.507866  7.912183  7.483200  5.408506  1.123224
   O (  7)  9.609881  9.063787  8.672584  6.482726  2.338476  1.218139
   C (  8)  4.547603  4.261894  4.316262  1.429041  3.509043  4.202292
   C (  9)  4.267914  3.629185  3.323031  1.428239  3.319445  4.290869
   H ( 10)  9.742150  9.305540  9.031967  6.598219  2.965985  1.896174
   H ( 11)  5.059759  4.868021  4.981589  2.128025  3.659587  4.231000
   H ( 12)  5.011621  4.814489  4.925271  2.127916  3.646664  4.153038
   H ( 13)  4.566768  3.813153  3.335238  2.127686  3.324161  4.306164
   H ( 14)  4.619043  3.879917  3.417151  2.127465  3.338613  4.381747
             O (  7)   C (  8)   C (  9)   H ( 10)   H ( 11)   H ( 12)
   C (  8)  5.195219
   C (  9)  5.447516  1.461382
   H ( 10)  1.000898  5.224797  5.735272
   H ( 11)  5.139721  1.087181  2.209345  5.070716
   H ( 12)  5.012266  1.087227  2.209123  4.939845  1.844842
   H ( 13)  5.455606  2.209352  1.087283  5.838003  3.132013  2.530897
   H ( 14)  5.573313  2.209368  1.087271  5.949567  2.531300  3.131934
             H ( 13)
   H ( 14)  1.844494
 
 Requested basis set is def2-TZVPPD
 There are 157 shells and 433 basis functions
 A cutoff of  1.0D-14 yielded  10213 shell pairs
 There are     76777 function pairs (     98075 Cartesian)
 Smallest overlap matrix eigenvalue = 5.65E-06
 Guess MOs from SCF MO coefficient file

 -----------------------------------------------------------------------
  General SCF calculation program by
  Eric Jon Sundstrom, Paul Horn, Yuezhi Mao, Dmitri Zuev, Alec White,
  David Stuck, Shaama M.S., Shane Yost, Joonho Lee, David Small,
  Daniel Levine, Susi Lehtola, Hugh Burton, Evgeny Epifanovsky,
  Bang C. Huynh
 -----------------------------------------------------------------------
 Exchange:     0.1670 Hartree-Fock + 1.0000 wB97X-V + LR-HF
 Correlation:  1.0000 wB97X-V
 Using SG-3 standard quadrature grid
 Nonlocal Correlation:  VV10 with C = 0.0100 and b = 6.00 and scale = 1.00000
 Grid used for NLC:  SG-1 standard quadrature
 
 Citation of the SMD model:
 Marenich, A.V.; Cramer, C.J.; Truhlar, D.G.
 J. Phys. Chem. B 2009, 113, 6378-6396.
 iSolventCode=           0
 Solvent: other                                                           
 
 vradii
            1           2           3           4           5           6
    1   2.2940000   1.8500000   2.2940000   2.2940000   2.2940000   1.8500000
            7           8           9          10          11          12
    1   2.2940000   1.8500000   1.8500000   1.2000000   1.2000000   1.2000000
           13          14
    1   1.2000000   1.2000000
 using 32 threads for integral computing
 -------------------------------------------------------
 OpenMP Integral computing Module                
 Release: version 1.0, May 2013, Q-Chem Inc. Pittsburgh 
 -------------------------------------------------------
 using 32 threads for integral computing
 -------------------------------------------------------
 OpenMP Integral computing Module                
 Release: version 1.0, May 2013, Q-Chem Inc. Pittsburgh 
 -------------------------------------------------------
 -------------------------------------------------------
 OpenMP BLAS3 based DFT computing Module                
 Release: version 1.0, May 2013, Q-Chem Inc. Pittsburgh 
 -------------------------------------------------------
 -------------------------------------------------------
 OpenMP BLAS3 based DFT computing Module                
 Release: version 1.0, May 2013, Q-Chem Inc. Pittsburgh 
 -------------------------------------------------------
 -------------------------------------------------------
 OpenMP BLAS3 based DFT computing Module                
 Release: version 1.0, May 2013, Q-Chem Inc. Pittsburgh 
 -------------------------------------------------------
 A restricted SCF calculation will be
 performed using Roothaan-Hall, DIIS
 SCF converges when DIIS error is below 1.0e-08
 ---------------------------------------
  Cycle       Energy         DIIS error
 ---------------------------------------
    1    -539.2787934962      2.91e-04  Roothaan Step
 ---------------------------------------
  Cycle       Energy         DIIS error
 ---------------------------------------
    1    -531.3350738765      4.09e-04  
    2    -531.3363075511      5.08e-04  
    3    -531.3401955442      5.03e-05  
    4    -531.3402596678      3.50e-05  
    5    -531.3402808566      1.49e-05  
    6    -531.3402858497      2.39e-06  
    7    -531.3402860131      1.53e-06  
    8    -531.3402860580      3.16e-07  
    9    -531.3402860615      1.71e-07  
   10    -531.3402860622      6.12e-08  
   11    -531.3402860623      1.93e-08  
   12    -531.3402860623      4.56e-09  Convergence criterion met
 ---------------------------------------
 SCF time:   CPU 2588.41s  wall 106.00s 
(3)  G-ENP(liq) elect-nuc-pol free energy of system     -531.340286062 a.u.
(4)  G-CDS(liq) cavity-dispersion-solvent structure 
     free energy                                               -2.3888 kcal/mol
(6)  G-S(liq) free energy of system                     -531.344092821 a.u.
 SCF   energy in the final basis set =     -531.3402860623
 Total energy in the final basis set =     -531.3440928207
 
 --------------------------------------------------------------
 
                    Orbital Energies (a.u.)
 --------------------------------------------------------------
 
 Alpha MOs
 -- Occupied --
-19.4651 -19.4362 -19.2886 -19.2883 -19.2353 -10.6099 -10.4550 -10.3228
-10.3220  -1.4473  -1.4062  -1.2910  -1.2468  -1.2135  -0.9396  -0.8106
 -0.7853  -0.7669  -0.7665  -0.7607  -0.6802  -0.6560  -0.6362  -0.6354
 -0.6336  -0.6318  -0.6242  -0.5954  -0.5092  -0.4900  -0.4759  -0.4751
 -0.4276  -0.3905
 -- Virtual --
 -0.0328  -0.0071   0.0021   0.0447   0.0629   0.0723   0.0794   0.0801
  0.0879   0.0949   0.1048   0.1088   0.1185   0.1200   0.1269   0.1289
  0.1321   0.1357   0.1378   0.1427   0.1526   0.1617   0.1686   0.1728
  0.1805   0.1826   0.1929   0.2000   0.2150   0.2231   0.2283   0.2377
  0.2411   0.2556   0.2563   0.2616   0.2672   0.2734   0.2833   0.2955
  0.3040   0.3063   0.3164   0.3193   0.3207   0.3269   0.3326   0.3388
  0.3437   0.3480   0.3655   0.3672   0.3712   0.3754   0.3821   0.3876
  0.3929   0.3957   0.4004   0.4061   0.4081   0.4125   0.4217   0.4292
  0.4342   0.4379   0.4432   0.4517   0.4601   0.4620   0.4645   0.4810
  0.4881   0.4933   0.4975   0.4992   0.5068   0.5138   0.5313   0.5352
  0.5392   0.5502   0.5520   0.5565   0.5699   0.5737   0.5825   0.5892
  0.5967   0.5997   0.6036   0.6047   0.6228   0.6297   0.6421   0.6595
  0.6730   0.6780   0.6908   0.6984   0.7154   0.7202   0.7290   0.7377
  0.7594   0.7759   0.7815   0.7825   0.7867   0.7900   0.7937   0.8036
  0.8071   0.8131   0.8325   0.8377   0.8664   0.8796   0.8815   0.8941
  0.8977   0.9080   0.9116   0.9271   0.9370   0.9412   0.9583   0.9701
  0.9827   0.9900   0.9919   0.9952   1.0016   1.0127   1.0207   1.0297
  1.0432   1.0680   1.0841   1.0982   1.1179   1.1261   1.1305   1.1483
  1.1720   1.1954   1.2036   1.2086   1.2112   1.2274   1.2369   1.2688
  1.2776   1.2866   1.2875   1.2996   1.3206   1.3394   1.3437   1.3546
  1.3744   1.3841   1.4066   1.4347   1.4504   1.5118   1.5147   1.5592
  1.6330   1.6697   1.6866   1.7017   1.7152   1.7164   1.7312   1.7532
  1.7562   1.7753   1.7869   1.8021   1.8211   1.8305   1.8470   1.8794
  1.8880   1.9010   1.9065   1.9138   1.9191   1.9377   1.9516   1.9768
  1.9831   2.0235   2.0300   2.0652   2.0888   2.0962   2.1044   2.1312
  2.1717   2.2113   2.2218   2.2527   2.3148   2.3444   2.3749   2.3848
  2.4265   2.4628   2.4901   2.5019   2.5115   2.5431   2.5744   2.5772
  2.6371   2.7188   2.7240   2.7473   2.7599   2.7765   2.8014   2.8167
  2.8229   2.8805   2.9191   2.9446   2.9476   2.9671   2.9681   2.9730
  2.9823   2.9909   3.0013   3.0137   3.0293   3.0395   3.0468   3.0508
  3.0660   3.0752   3.1061   3.1246   3.1334   3.1366   3.1551   3.1584
  3.1778   3.1998   3.2051   3.2125   3.2306   3.2909   3.2942   3.3028
  3.3271   3.3411   3.3573   3.3581   3.3898   3.4210   3.4352   3.4601
  3.4837   3.5128   3.5159   3.5282   3.5293   3.5642   3.5836   3.6238
  3.6369   3.6805   3.6922   3.7226   3.7467   3.7636   3.7717   3.7984
  3.8034   3.8152   3.8179   3.8393   3.8753   3.8976   3.9640   3.9999
  4.0395   4.0421   4.0477   4.0625   4.1105   4.1473   4.2017   4.2172
  4.2921   4.3041   4.3276   4.3731   4.3805   4.3869   4.3932   4.4366
  4.4849   4.6395   4.6583   4.7062   4.7350   4.7805   4.7962   4.8120
  4.9612   4.9842   4.9856   5.0633   5.0921   5.1021   5.1167   5.1207
  5.1774   5.1883   5.2022   5.2420   5.2458   5.2523   5.2544   5.2984
  5.3072   5.3243   5.3281   5.3534   5.4180   5.4765   5.5544   5.5811
  5.6218   5.6548   5.6819   5.7132   5.7143   5.7333   5.7745   5.8871
  5.9325   5.9389   5.9738   6.0700   6.0714   6.1557   6.1907   6.2536
  6.2619   6.3282   6.3303   6.4126   6.4157   6.4246   6.4300   6.4517
  6.4840   6.5221   6.5390   6.5437   6.5551   6.5781   6.6005   6.6187
  6.6679   6.7875   6.8588   6.8646   6.8812   6.9598   6.9798   7.0431
  7.0456   7.0529   7.0718   7.0995   7.2120   7.2335   7.2926   7.3237
  7.3349   7.4949   7.5977   7.6558   7.8736   7.8762  23.6673  23.7003
 24.0175  24.3331  44.0681  44.1537  44.3507  44.4051  44.4486
 --------------------------------------------------------------
 
          Ground-State Mulliken Net Atomic Charges

     Atom                 Charge (a.u.)
  ----------------------------------------
      1 O                    -0.304260
      2 C                     0.628810
      3 O                    -0.309754
      4 O                    -0.349728
      5 O                     0.021124
      6 C                     0.705427
      7 O                    -0.106812
      8 C                    -0.051183
      9 C                     0.179065
     10 H                     0.369862
     11 H                     0.059986
     12 H                     0.060790
     13 H                     0.048645
     14 H                     0.048028
  ----------------------------------------
  Sum of atomic charges =     1.000000

  Building new vdw surfaces
         Merz-Kollman RESP Net Atomic Charges

     Atom                 Charge (a.u.)
  ----------------------------------------
      1 O                    -0.391282
      2 C                     0.742757
      3 O                    -0.375993
      4 O                    -0.224671
      5 O                    -0.109514
      6 C                     0.792178
      7 O                    -0.211922
      8 C                    -0.240105
      9 C                    -0.260313
     10 H                     0.523041
     11 H                     0.183660
     12 H                     0.182985
     13 H                     0.194590
     14 H                     0.194590
  ----------------------------------------
  Sum of atomic charges =     1.000000

  Related Dipole Moment =    20.5632 (X -14.9280 Y 14.1393 Z  0.2822)

 -----------------------------------------------------------------
                    Cartesian Multipole Moments
 -----------------------------------------------------------------
    Charge (ESU x 10^10)
                 4.8032
    Dipole Moment (Debye)
         X     -14.9158      Y      14.1578      Z       0.2906
       Tot      20.5672
    Quadrupole Moments (Debye-Ang)
        XX     -11.6821     XY     -27.3535     YY     -23.2322
        XZ      -1.2840     YZ       0.7655     ZZ     -45.8987
    Octopole Moments (Debye-Ang^2)
       XXX    -330.8367    XXY     103.8922    XYY    -163.1064
       YYY     122.1647    XXZ       3.6850    XYZ      -2.9468
       YYZ       0.4337    XZZ     -57.9045    YZZ       2.3378
       ZZZ      -2.5788
    Hexadecapole Moments (Debye-Ang^3)
      XXXX   -1959.8475   XXXY     333.8219   XXYY    -457.3813
      XYYY     590.6683   YYYY   -1144.1666   XXXZ     -35.5737
      XXYZ      11.7133   XYYZ     -12.3036   YYYZ      11.8662
      XXZZ    -402.5982   XYZZ     222.8190   YYZZ    -215.8489
      XZZZ     -13.7261   YZZZ       4.9757   ZZZZ     -55.6148
 -----------------------------------------------------------------
 Calculating analytic gradient of the SCF energy
 Gradient of CDS energy
            1           2           3           4           5           6
    1  -0.0007178   0.0012340  -0.0006592  -0.0000278   0.0001158   0.0006276
    2  -0.0000432  -0.0002432   0.0002266   0.0004267  -0.0001240   0.0002403
    3  -0.0000466   0.0000844  -0.0000470   0.0000120   0.0000127  -0.0000390
            7           8           9          10          11          12
    1  -0.0003428  -0.0011189   0.0011067  -0.0003184   0.0001402   0.0001473
    2  -0.0006455  -0.0010521   0.0009346   0.0004128   0.0000464   0.0000405
    3  -0.0000294  -0.0000035  -0.0000212   0.0000725   0.0002423  -0.0002391
           13          14
    1  -0.0001084  -0.0000783
    2  -0.0000924  -0.0001274
    3  -0.0002390   0.0002410
 Gradient of SCF Energy
            1           2           3           4           5           6
    1  -0.0059752  -0.0020818   0.0071716   0.0045957   0.1554283  -0.0490375
    2  -0.0326766   0.0000362   0.0335625  -0.0072623  -0.0265792   0.0020759
    3  -0.0000407   0.0000383  -0.0000725   0.0001442  -0.0181007   0.0042737
            7           8           9          10          11          12
    1  -0.0457100   0.0272331  -0.0124091  -0.0590508  -0.0175327  -0.0189636
    2   0.0671658   0.0195702  -0.0282007  -0.0435434  -0.0087561  -0.0069306
    3   0.0120423   0.0006246   0.0000723   0.0016676  -0.0333223   0.0328961
           13          14
    1   0.0077681   0.0085639
    2   0.0163670   0.0151712
    3   0.0303836  -0.0306066
 Max gradient component =       1.554E-01
 RMS gradient           =       3.439E-02
 Computing fast CPCM-SWIG gradient
 Updating gradient with PCM contributions...
 -- total gradient after adding PCM contribution --
---------------------------------------------------
  Atom         X              Y              Z     
---------------------------------------------------
   1      -0.000132      -0.000330      -0.000001
   2       0.000191       0.000291       0.000001
   3      -0.000053       0.000045      -0.000002
   4       0.000003      -0.000006      -0.000026
   5       0.000000       0.000002       0.000016
   6      -0.000004      -0.000003       0.000002
   7      -0.000002      -0.000003       0.000002
   8      -0.000001      -0.000004       0.000002
   9       0.000019       0.000010       0.000020
  10      -0.000003      -0.000003      -0.000002
  11      -0.000006      -0.000008      -0.000004
  12       0.000004       0.000001       0.000000
  13      -0.000047       0.000047      -0.000008
  14       0.000031      -0.000039       0.000000
---------------------------------------------------
 Number of fixed atoms: 0
 Gradient time:  CPU 571.12 s  wall 28.48 s
 ----------------------------------------------------------------
             Standard Nuclear Orientation (Angstroms)
    I     Atom           X                Y                Z
 ----------------------------------------------------------------
    1      O       4.1932969276    -3.1440207386     0.1280169902
    2      C       4.3886711441    -2.0024991258     0.1260760067
    3      O       4.6192463920    -0.8658121206     0.1263661253
    4      O       1.6453877717    -1.2940751415    -0.0635510143
    5      O      -0.8296819042     2.5306464341    -0.1213563397
    6      C      -1.9182583805     2.7736990815     0.0111543686
    7      O      -3.0656862890     3.1534125085     0.1631052179
    8      C       0.3090893533    -0.7883258830    -0.0896524105
    9      C       1.4530724132     0.1210160469    -0.0835129566
   10      H      -3.7807485071     2.4530710654     0.1654423743
   11      H      -0.2280838223    -0.9660215126    -1.0180008594
   12      H      -0.2553886166    -0.9435307594     0.8265019503
   13      H       1.7252112214     0.6320828704     0.8367779302
   14      H       1.7530768217     0.6095318033    -1.0073673855
 ----------------------------------------------------------------
 Nuclear Repulsion Energy =         373.13525513 hartrees
 There are       34 alpha and       34 beta electrons
 Discretize the solute cavity surface with Lebedev spheres
	Using 110 Lebedev grid points for each H atom
	Using 194 Lebedev grid points for other atoms
	Atomic van der Waals radii will be scaled by 1.20
 Remove points where switching function is < 1.0e-08
 Keep 1146 surface tesserae and discard 1150 interior tesserae
 Molecular Surface Area = 241.443 Angst**2

                       Distance Matrix (Angstroms)
             O (  1)   C (  2)   O (  3)   O (  4)   O (  5)   C (  6)
   C (  2)  1.158122
   O (  3)  2.317686  1.159837
   O (  4)  3.154495  2.839617  3.010534
   O (  5)  7.582503  6.916780  6.425583  4.556074
   C (  6)  8.507889  7.912183  7.483200  5.408506  1.123224
   O (  7)  9.609981  9.063787  8.672584  6.482726  2.338476  1.218139
   C (  8)  4.547939  4.261894  4.316262  1.429041  3.509043  4.202292
   C (  9)  4.267791  3.629185  3.323031  1.428239  3.319445  4.290869
   H ( 10)  9.742394  9.305540  9.031967  6.598219  2.965985  1.896174
   H ( 11)  5.060202  4.868021  4.981589  2.128025  3.659587  4.231000
   H ( 12)  5.012069  4.814489  4.925271  2.127916  3.646664  4.153038
   H ( 13)  4.566481  3.813153  3.335238  2.127686  3.324161  4.306164
   H ( 14)  4.618758  3.879917  3.417151  2.127465  3.338613  4.381747
             O (  7)   C (  8)   C (  9)   H ( 10)   H ( 11)   H ( 12)
   C (  8)  5.195219
   C (  9)  5.447516  1.461382
   H ( 10)  1.000898  5.224797  5.735272
   H ( 11)  5.139721  1.087181  2.209345  5.070716
   H ( 12)  5.012266  1.087227  2.209123  4.939845  1.844842
   H ( 13)  5.455606  2.209352  1.087283  5.838003  3.132013  2.530897
   H ( 14)  5.573313  2.209368  1.087271  5.949567  2.531300  3.131934
             H ( 13)
   H ( 14)  1.844494
 
 Requested basis set is def2-TZVPPD
 There are 157 shells and 433 basis functions
 A cutoff of  1.0D-14 yielded  10213 shell pairs
 There are     76777 function pairs (     98075 Cartesian)
 Smallest overlap matrix eigenvalue = 5.65E-06
 Guess MOs from SCF MO coefficient file

 -----------------------------------------------------------------------
  General SCF calculation program by
  Eric Jon Sundstrom, Paul Horn, Yuezhi Mao, Dmitri Zuev, Alec White,
  David Stuck, Shaama M.S., Shane Yost, Joonho Lee, David Small,
  Daniel Levine, Susi Lehtola, Hugh Burton, Evgeny Epifanovsky,
  Bang C. Huynh
 -----------------------------------------------------------------------
 Exchange:     0.1670 Hartree-Fock + 1.0000 wB97X-V + LR-HF
 Correlation:  1.0000 wB97X-V
 Using SG-3 standard quadrature grid
 Nonlocal Correlation:  VV10 with C = 0.0100 and b = 6.00 and scale = 1.00000
 Grid used for NLC:  SG-1 standard quadrature
 
 Citation of the SMD model:
 Marenich, A.V.; Cramer, C.J.; Truhlar, D.G.
 J. Phys. Chem. B 2009, 113, 6378-6396.
 iSolventCode=           0
 Solvent: other                                                           
 
 vradii
            1           2           3           4           5           6
    1   2.2940000   1.8500000   2.2940000   2.2940000   2.2940000   1.8500000
            7           8           9          10          11          12
    1   2.2940000   1.8500000   1.8500000   1.2000000   1.2000000   1.2000000
           13          14
    1   1.2000000   1.2000000
 using 32 threads for integral computing
 -------------------------------------------------------
 OpenMP Integral computing Module                
 Release: version 1.0, May 2013, Q-Chem Inc. Pittsburgh 
 -------------------------------------------------------
 using 32 threads for integral computing
 -------------------------------------------------------
 OpenMP Integral computing Module                
 Release: version 1.0, May 2013, Q-Chem Inc. Pittsburgh 
 -------------------------------------------------------
 -------------------------------------------------------
 OpenMP BLAS3 based DFT computing Module                
 Release: version 1.0, May 2013, Q-Chem Inc. Pittsburgh 
 -------------------------------------------------------
 -------------------------------------------------------
 OpenMP BLAS3 based DFT computing Module                
 Release: version 1.0, May 2013, Q-Chem Inc. Pittsburgh 
 -------------------------------------------------------
 -------------------------------------------------------
 OpenMP BLAS3 based DFT computing Module                
 Release: version 1.0, May 2013, Q-Chem Inc. Pittsburgh 
 -------------------------------------------------------
 A restricted SCF calculation will be
 performed using Roothaan-Hall, DIIS
 SCF converges when DIIS error is below 1.0e-08
 ---------------------------------------
  Cycle       Energy         DIIS error
 ---------------------------------------
    1    -539.2787634449      2.91e-04  Roothaan Step
 ---------------------------------------
  Cycle       Energy         DIIS error
 ---------------------------------------
    1    -531.3350782308      4.09e-04  
    2    -531.3363218574      5.07e-04  
    3    -531.3401925156      5.03e-05  
    4    -531.3402566380      3.49e-05  
    5    -531.3402776903      1.50e-05  
    6    -531.3402826859      2.38e-06  
    7    -531.3402828495      1.52e-06  
    8    -531.3402828940      3.13e-07  
    9    -531.3402828974      1.66e-07  
   10    -531.3402828981      6.20e-08  
   11    -531.3402828982      1.94e-08  
   12    -531.3402828982      4.59e-09  Convergence criterion met
 ---------------------------------------
 SCF time:   CPU 2510.34s  wall 102.00s 
(3)  G-ENP(liq) elect-nuc-pol free energy of system     -531.340282898 a.u.
(4)  G-CDS(liq) cavity-dispersion-solvent structure 
     free energy                                               -2.3897 kcal/mol
(6)  G-S(liq) free energy of system                     -531.344091090 a.u.
 SCF   energy in the final basis set =     -531.3402828982
 Total energy in the final basis set =     -531.3440910903
 
 --------------------------------------------------------------
 
                    Orbital Energies (a.u.)
 --------------------------------------------------------------
 
 Alpha MOs
 -- Occupied --
-19.4651 -19.4362 -19.2883 -19.2883 -19.2353 -10.6099 -10.4547 -10.3228
-10.3220  -1.4473  -1.4062  -1.2913  -1.2471  -1.2135  -0.9396  -0.8106
 -0.7853  -0.7669  -0.7665  -0.7607  -0.6801  -0.6560  -0.6364  -0.6355
 -0.6337  -0.6319  -0.6242  -0.5954  -0.5092  -0.4900  -0.4759  -0.4751
 -0.4276  -0.3905
 -- Virtual --
 -0.0328  -0.0071   0.0021   0.0447   0.0629   0.0723   0.0794   0.0801
  0.0879   0.0949   0.1048   0.1088   0.1185   0.1200   0.1269   0.1290
  0.1323   0.1360   0.1379   0.1427   0.1526   0.1617   0.1686   0.1728
  0.1805   0.1827   0.1929   0.2000   0.2150   0.2231   0.2283   0.2377
  0.2411   0.2556   0.2563   0.2616   0.2672   0.2734   0.2833   0.2955
  0.3040   0.3063   0.3164   0.3193   0.3207   0.3269   0.3326   0.3389
  0.3437   0.3480   0.3655   0.3672   0.3712   0.3754   0.3820   0.3876
  0.3929   0.3957   0.4005   0.4062   0.4081   0.4125   0.4217   0.4292
  0.4343   0.4379   0.4432   0.4518   0.4601   0.4620   0.4645   0.4810
  0.4881   0.4933   0.4975   0.4993   0.5069   0.5139   0.5313   0.5353
  0.5392   0.5502   0.5520   0.5565   0.5699   0.5737   0.5825   0.5892
  0.5968   0.5997   0.6037   0.6047   0.6229   0.6298   0.6421   0.6595
  0.6730   0.6780   0.6907   0.6983   0.7154   0.7203   0.7290   0.7377
  0.7595   0.7759   0.7815   0.7826   0.7867   0.7900   0.7937   0.8036
  0.8071   0.8131   0.8325   0.8377   0.8664   0.8796   0.8816   0.8941
  0.8977   0.9081   0.9117   0.9271   0.9370   0.9411   0.9583   0.9701
  0.9827   0.9900   0.9920   0.9952   1.0016   1.0126   1.0208   1.0296
  1.0433   1.0680   1.0846   1.0988   1.1179   1.1261   1.1305   1.1483
  1.1720   1.1954   1.2036   1.2086   1.2113   1.2274   1.2369   1.2690
  1.2780   1.2868   1.2875   1.2997   1.3206   1.3394   1.3437   1.3546
  1.3744   1.3841   1.4066   1.4347   1.4503   1.5118   1.5147   1.5592
  1.6330   1.6697   1.6866   1.7017   1.7152   1.7164   1.7313   1.7532
  1.7562   1.7754   1.7869   1.8020   1.8211   1.8306   1.8470   1.8794
  1.8884   1.9010   1.9063   1.9138   1.9191   1.9378   1.9518   1.9769
  1.9832   2.0236   2.0306   2.0652   2.0889   2.0965   2.1046   2.1312
  2.1712   2.2113   2.2218   2.2527   2.3148   2.3444   2.3749   2.3848
  2.4265   2.4628   2.4905   2.5020   2.5116   2.5432   2.5744   2.5772
  2.6382   2.7188   2.7240   2.7473   2.7599   2.7765   2.8014   2.8167
  2.8229   2.8805   2.9191   2.9446   2.9476   2.9673   2.9682   2.9730
  2.9824   2.9910   3.0013   3.0138   3.0298   3.0400   3.0469   3.0514
  3.0662   3.0754   3.1062   3.1246   3.1334   3.1366   3.1551   3.1585
  3.1778   3.1998   3.2051   3.2126   3.2307   3.2909   3.2942   3.3028
  3.3271   3.3411   3.3573   3.3583   3.3898   3.4211   3.4356   3.4602
  3.4837   3.5129   3.5161   3.5292   3.5294   3.5642   3.5842   3.6237
  3.6369   3.6806   3.6922   3.7227   3.7467   3.7640   3.7718   3.7994
  3.8034   3.8156   3.8183   3.8396   3.8753   3.8976   3.9640   4.0000
  4.0395   4.0421   4.0477   4.0626   4.1106   4.1473   4.2017   4.2172
  4.2921   4.3041   4.3276   4.3731   4.3805   4.3869   4.3932   4.4366
  4.4849   4.6395   4.6583   4.7062   4.7350   4.7805   4.7962   4.8120
  4.9612   4.9842   4.9889   5.0633   5.0921   5.1021   5.1167   5.1207
  5.1773   5.1882   5.2022   5.2420   5.2460   5.2524   5.2545   5.2984
  5.3073   5.3249   5.3286   5.3523   5.4179   5.4765   5.5544   5.5811
  5.6218   5.6548   5.6819   5.7132   5.7143   5.7333   5.7745   5.8871
  5.9340   5.9404   5.9738   6.0700   6.0714   6.1582   6.1907   6.2562
  6.2647   6.3282   6.3303   6.4126   6.4157   6.4246   6.4300   6.4517
  6.4840   6.5223   6.5392   6.5437   6.5554   6.5784   6.5999   6.6187
  6.6677   6.7875   6.8588   6.8646   6.8812   6.9595   6.9798   7.0431
  7.0462   7.0529   7.0719   7.0992   7.2133   7.2348   7.2926   7.3237
  7.3349   7.4949   7.5996   7.6560   7.8737   7.8790  23.6673  23.7003
 24.0175  24.3392  44.0681  44.1558  44.3507  44.4051  44.4489
 --------------------------------------------------------------
 
          Ground-State Mulliken Net Atomic Charges

     Atom                 Charge (a.u.)
  ----------------------------------------
      1 O                    -0.302406
      2 C                     0.627329
      3 O                    -0.310126
      4 O                    -0.349748
      5 O                     0.021125
      6 C                     0.705428
      7 O                    -0.106813
      8 C                    -0.051176
      9 C                     0.179175
     10 H                     0.369862
     11 H                     0.059985
     12 H                     0.060789
     13 H                     0.048593
     14 H                     0.047985
  ----------------------------------------
  Sum of atomic charges =     1.000000

  Building new vdw surfaces
         Merz-Kollman RESP Net Atomic Charges

     Atom                 Charge (a.u.)
  ----------------------------------------
      1 O                    -0.391114
      2 C                     0.743568
      3 O                    -0.376930
      4 O                    -0.224786
      5 O                    -0.109517
      6 C                     0.792167
      7 O                    -0.211910
      8 C                    -0.240029
      9 C                    -0.260268
     10 H                     0.523036
     11 H                     0.183645
     12 H                     0.182968
     13 H                     0.194584
     14 H                     0.194584
  ----------------------------------------
  Sum of atomic charges =     1.000000

  Related Dipole Moment =    20.5597 (X -14.9307 Y 14.1315 Z  0.2822)

 -----------------------------------------------------------------
                    Cartesian Multipole Moments
 -----------------------------------------------------------------
    Charge (ESU x 10^10)
                 4.8032
    Dipole Moment (Debye)
         X     -14.9183      Y      14.1501      Z       0.2906
       Tot      20.5637
    Quadrupole Moments (Debye-Ang)
        XX     -11.7014     XY     -27.3816     YY     -23.1987
        XZ      -1.2843     YZ       0.7645     ZZ     -45.8956
    Octopole Moments (Debye-Ang^2)
       XXX    -330.9613    XXY     103.7769    XYY    -162.9811
       YYY     122.0195    XXZ       3.6827    XYZ      -2.9506
       YYZ       0.4382    XZZ     -57.8973    YZZ       2.3200
       ZZZ      -2.5776
    Hexadecapole Moments (Debye-Ang^3)
      XXXX   -1960.6528   XXXY     333.3341   XXYY    -456.8511
      XYYY     590.1290   YYYY   -1143.4812   XXXZ     -35.5888
      XXYZ      11.6979   XYYZ     -12.2871   YYYZ      11.8472
      XXZZ    -402.5912   XYZZ     222.7607   YYZZ    -215.7748
      XZZZ     -13.7233   YZZZ       4.9688   ZZZZ     -55.6090
 -----------------------------------------------------------------
 Calculating analytic gradient of the SCF energy
 Gradient of CDS energy
            1           2           3           4           5           6
    1  -0.0007169   0.0012332  -0.0006592  -0.0000279   0.0001158   0.0006276
    2  -0.0000395  -0.0002473   0.0002266   0.0004271  -0.0001240   0.0002403
    3  -0.0000466   0.0000844  -0.0000470   0.0000120   0.0000127  -0.0000390
            7           8           9          10          11          12
    1  -0.0003428  -0.0011189   0.0011067  -0.0003184   0.0001402   0.0001473
    2  -0.0006455  -0.0010521   0.0009346   0.0004128   0.0000464   0.0000405
    3  -0.0000294  -0.0000035  -0.0000212   0.0000725   0.0002423  -0.0002391
           13          14
    1  -0.0001084  -0.0000783
    2  -0.0000924  -0.0001274
    3  -0.0002390   0.0002410
 Gradient of SCF Energy
            1           2           3           4           5           6
    1  -0.0054671  -0.0026004   0.0071869   0.0045944   0.1554245  -0.0490363
    2  -0.0303615  -0.0019776   0.0332519  -0.0072564  -0.0265786   0.0020753
    3  -0.0000431   0.0000409  -0.0000722   0.0001441  -0.0181002   0.0042735
            7           8           9          10          11          12
    1  -0.0457085   0.0272366  -0.0124117  -0.0590505  -0.0175328  -0.0189636
    2   0.0671652   0.0195652  -0.0281883  -0.0435433  -0.0087557  -0.0069305
    3   0.0120421   0.0006248   0.0000712   0.0016676  -0.0333233   0.0328971
           13          14
    1   0.0077661   0.0085624
    2   0.0163649   0.0151692
    3   0.0303779  -0.0306003
 Max gradient component =       1.554E-01
 RMS gradient           =       3.433E-02
 Computing fast CPCM-SWIG gradient
 Updating gradient with PCM contributions...
 -- total gradient after adding PCM contribution --
---------------------------------------------------
  Atom         X              Y              Z     
---------------------------------------------------
   1       0.000333       0.001963      -0.000004
   2      -0.000280      -0.001762       0.000004
   3      -0.000044      -0.000202      -0.000002
   4       0.000001      -0.000003      -0.000026
   5       0.000000       0.000002       0.000016
   6      -0.000004      -0.000003       0.000002
   7      -0.000002      -0.000003       0.000002
   8       0.000000      -0.000003       0.000002
   9       0.000017       0.000012       0.000020
  10      -0.000003      -0.000003      -0.000002
  11      -0.000006      -0.000008      -0.000004
  12       0.000004       0.000001       0.000001
  13      -0.000048       0.000047      -0.000008
  14       0.000030      -0.000039      -0.000000
---------------------------------------------------
 Number of fixed atoms: 0
 Gradient time:  CPU 531.30 s  wall 25.88 s
 ----------------------------------------------------------------
             Standard Nuclear Orientation (Angstroms)
    I     Atom           X                Y                Z
 ----------------------------------------------------------------
    1      O       4.1932969276    -3.1460207386     0.1280169902
    2      C       4.3886711441    -2.0024991258     0.1260760067
    3      O       4.6192463920    -0.8658121206     0.1263661253
    4      O       1.6453877717    -1.2940751415    -0.0635510143
    5      O      -0.8296819042     2.5306464341    -0.1213563397
    6      C      -1.9182583805     2.7736990815     0.0111543686
    7      O      -3.0656862890     3.1534125085     0.1631052179
    8      C       0.3090893533    -0.7883258830    -0.0896524105
    9      C       1.4530724132     0.1210160469    -0.0835129566
   10      H      -3.7807485071     2.4530710654     0.1654423743
   11      H      -0.2280838223    -0.9660215126    -1.0180008594
   12      H      -0.2553886166    -0.9435307594     0.8265019503
   13      H       1.7252112214     0.6320828704     0.8367779302
   14      H       1.7530768217     0.6095318033    -1.0073673855
 ----------------------------------------------------------------
 Nuclear Repulsion Energy =         373.07535263 hartrees
 There are       34 alpha and       34 beta electrons
 Discretize the solute cavity surface with Lebedev spheres
	Using 110 Lebedev grid points for each H atom
	Using 194 Lebedev grid points for other atoms
	Atomic van der Waals radii will be scaled by 1.20
 Remove points where switching function is < 1.0e-08
 Keep 1146 surface tesserae and discard 1150 interior tesserae
 Molecular Surface Area = 241.473 Angst**2

                       Distance Matrix (Angstroms)
             O (  1)   C (  2)   O (  3)   O (  4)   O (  5)   C (  6)
   C (  2)  1.160093
   O (  3)  2.319652  1.159837
   O (  4)  3.155668  2.839617  3.010534
   O (  5)  7.584000  6.916780  6.425583  4.556074
   C (  6)  8.509280  7.912183  7.483200  5.408506  1.123224
   O (  7)  9.611292  9.063787  8.672584  6.482726  2.338476  1.218139
   C (  8)  4.548975  4.261894  4.316262  1.429041  3.509043  4.202292
   C (  9)  4.269321  3.629185  3.323031  1.428239  3.319445  4.290869
   H ( 10)  9.743543  9.305540  9.031967  6.598219  2.965985  1.896174
   H ( 11)  5.061063  4.868021  4.981589  2.128025  3.659587  4.231000
   H ( 12)  5.012948  4.814489  4.925271  2.127916  3.646664  4.153038
   H ( 13)  4.568135  3.813153  3.335238  2.127686  3.324161  4.306164
   H ( 14)  4.620384  3.879917  3.417151  2.127465  3.338613  4.381747
             O (  7)   C (  8)   C (  9)   H ( 10)   H ( 11)   H ( 12)
   C (  8)  5.195219
   C (  9)  5.447516  1.461382
   H ( 10)  1.000898  5.224797  5.735272
   H ( 11)  5.139721  1.087181  2.209345  5.070716
   H ( 12)  5.012266  1.087227  2.209123  4.939845  1.844842
   H ( 13)  5.455606  2.209352  1.087283  5.838003  3.132013  2.530897
   H ( 14)  5.573313  2.209368  1.087271  5.949567  2.531300  3.131934
             H ( 13)
   H ( 14)  1.844494
 
 Requested basis set is def2-TZVPPD
 There are 157 shells and 433 basis functions
 A cutoff of  1.0D-14 yielded  10213 shell pairs
 There are     76777 function pairs (     98075 Cartesian)
 Smallest overlap matrix eigenvalue = 5.65E-06
 Guess MOs from SCF MO coefficient file

 -----------------------------------------------------------------------
  General SCF calculation program by
  Eric Jon Sundstrom, Paul Horn, Yuezhi Mao, Dmitri Zuev, Alec White,
  David Stuck, Shaama M.S., Shane Yost, Joonho Lee, David Small,
  Daniel Levine, Susi Lehtola, Hugh Burton, Evgeny Epifanovsky,
  Bang C. Huynh
 -----------------------------------------------------------------------
 Exchange:     0.1670 Hartree-Fock + 1.0000 wB97X-V + LR-HF
 Correlation:  1.0000 wB97X-V
 Using SG-3 standard quadrature grid
 Nonlocal Correlation:  VV10 with C = 0.0100 and b = 6.00 and scale = 1.00000
 Grid used for NLC:  SG-1 standard quadrature
 
 Citation of the SMD model:
 Marenich, A.V.; Cramer, C.J.; Truhlar, D.G.
 J. Phys. Chem. B 2009, 113, 6378-6396.
 iSolventCode=           0
 Solvent: other                                                           
 
 vradii
            1           2           3           4           5           6
    1   2.2940000   1.8500000   2.2940000   2.2940000   2.2940000   1.8500000
            7           8           9          10          11          12
    1   2.2940000   1.8500000   1.8500000   1.2000000   1.2000000   1.2000000
           13          14
    1   1.2000000   1.2000000
 using 32 threads for integral computing
 -------------------------------------------------------
 OpenMP Integral computing Module                
 Release: version 1.0, May 2013, Q-Chem Inc. Pittsburgh 
 -------------------------------------------------------
 using 32 threads for integral computing
[...]
 Red. Mass:       6.1312                 7.9139                 7.2302
 IR Active:          YES                    YES                    YES
 IR Intens:        2.415                  6.271                  5.539
 Raman Active:       YES                    YES                    YES
               X      Y      Z        X      Y      Z        X      Y      Z
 O          0.227 -0.085  0.030   -0.244  0.100 -0.013   -0.206  0.120 -0.019
 C          0.132 -0.069 -0.044   -0.204  0.092 -0.064    0.108  0.065 -0.008
 O          0.023 -0.047 -0.119   -0.144  0.081 -0.115    0.411  0.005 -0.000
 O         -0.175 -0.002 -0.109    0.212 -0.112  0.079   -0.132 -0.006  0.178
 O          0.006 -0.013  0.275    0.037  0.077  0.299    0.057 -0.073  0.171
 C         -0.022  0.003  0.012   -0.006  0.029  0.032    0.051 -0.035  0.043
 O         -0.052  0.022 -0.262   -0.058 -0.021 -0.243    0.048  0.007 -0.091
 C         -0.119  0.167  0.157    0.208 -0.127  0.073   -0.150 -0.067 -0.102
 C         -0.007  0.024  0.102    0.199 -0.115 -0.018   -0.190 -0.017 -0.172
 H         -0.068  0.038 -0.465   -0.035 -0.045 -0.465    0.018  0.036 -0.200
 H         -0.281  0.351  0.215    0.190 -0.200  0.098   -0.027 -0.301 -0.128
 H          0.000  0.121  0.223    0.231 -0.068  0.097   -0.258  0.118 -0.136
 H          0.180 -0.117  0.126    0.219 -0.050 -0.060   -0.293  0.184 -0.254
 H         -0.085  0.107  0.120    0.176 -0.179 -0.059   -0.102 -0.215 -0.248
 TransDip   0.016  0.022 -0.042   -0.024  0.001 -0.076    0.010 -0.018 -0.073

 Mode:                10                     11                     12
 Frequency:       115.67                 137.69                 542.07
 Force Cnst:      0.0411                 0.0132                 0.6948
 Red. Mass:       5.2129                 1.1816                 4.0132
 IR Active:          YES                    YES                    YES
 IR Intens:        6.182                249.964                 51.828
 Raman Active:       YES                    YES                    YES
               X      Y      Z        X      Y      Z        X      Y      Z
 O         -0.171  0.098 -0.011   -0.000 -0.001 -0.007   -0.000  0.000  0.000
 C          0.028  0.063  0.006   -0.001 -0.001  0.001    0.000 -0.000 -0.000
 O          0.219  0.026  0.025   -0.001 -0.001  0.009   -0.000  0.000 -0.000
 O         -0.108 -0.206 -0.168    0.001  0.001 -0.005   -0.000  0.001  0.000
 O         -0.050  0.061 -0.117    0.002  0.001  0.018   -0.037 -0.195 -0.013
 C         -0.048  0.032 -0.036    0.004 -0.003  0.039    0.111  0.433  0.028
 O         -0.048 -0.001  0.049   -0.010  0.008 -0.098   -0.077 -0.086 -0.000
 C         -0.003  0.095  0.096    0.000 -0.000 -0.010   -0.000 -0.000  0.000
 C          0.195 -0.159  0.159   -0.001  0.001  0.000   -0.000  0.000 -0.000
 H         -0.024 -0.026  0.133    0.100 -0.101  0.984    0.497 -0.696 -0.118
 H         -0.151  0.409  0.121    0.005  0.004 -0.013    0.000 -0.001 -0.000
 H          0.073  0.024  0.130   -0.004 -0.006 -0.013   -0.001 -0.001 -0.000
 H          0.375 -0.390  0.236   -0.005 -0.003  0.004    0.002 -0.000 -0.000
 H          0.200 -0.027  0.231    0.003  0.006  0.004   -0.001 -0.000 -0.001
 TransDip   0.021  0.028  0.072    0.051 -0.051  0.501    0.224  0.050 -0.019

 Mode:                13                     14                     15
 Frequency:       592.45                 670.72                 679.84
 Force Cnst:      1.7866                 3.4205                 3.5043
 Red. Mass:       8.6393                12.9049                12.8687
 IR Active:          YES                    YES                    YES
 IR Intens:       21.977                 74.086                 43.076
 Raman Active:       YES                    YES                    YES
               X      Y      Z        X      Y      Z        X      Y      Z
 O         -0.000 -0.000  0.000   -0.333  0.045 -0.015    0.014 -0.003 -0.329
 C          0.000 -0.000 -0.000    0.863 -0.161  0.038   -0.038  0.008  0.884
 O         -0.000 -0.000  0.000   -0.328  0.078 -0.015    0.014 -0.003 -0.330
 O          0.000 -0.001 -0.001    0.000  0.013  0.000    0.000  0.000 -0.004
 O         -0.029  0.027 -0.288   -0.000  0.000  0.000   -0.000  0.000 -0.000
 C          0.072 -0.065  0.713   -0.000 -0.000 -0.000    0.000 -0.000  0.000
 O         -0.023  0.020 -0.211   -0.000  0.000  0.000   -0.000  0.000 -0.000
 C          0.000  0.001  0.001    0.009 -0.015  0.001    0.000 -0.000 -0.001
 C          0.001 -0.001  0.001    0.009 -0.004  0.000    0.000  0.000  0.000
 H         -0.053  0.050 -0.589    0.000 -0.000 -0.000    0.000 -0.000  0.000
 H         -0.003  0.002  0.002    0.002 -0.011  0.002    0.002 -0.003 -0.002
 H          0.003  0.001  0.003    0.003 -0.013 -0.001   -0.002  0.002 -0.002
 H         -0.007  0.004  0.001    0.006  0.005 -0.003   -0.004 -0.003  0.003
 H          0.002 -0.000  0.002    0.001  0.004  0.000    0.004  0.003  0.003
 TransDip   0.016 -0.014  0.149    0.266 -0.072  0.012   -0.008  0.001  0.210

 Mode:                16                     17                     18
 Frequency:       817.21                 891.35                 920.49
 Force Cnst:      0.4026                 4.4902                 1.7265
 Red. Mass:       1.0233                 9.5921                 3.4584
 IR Active:          YES                    YES                    YES
 IR Intens:        1.761                 21.470                143.196
 Raman Active:       YES                    YES                    YES
               X      Y      Z        X      Y      Z        X      Y      Z
 O         -0.000 -0.000  0.000    0.001  0.000  0.000    0.003  0.000  0.000
 C          0.000 -0.000 -0.001    0.001  0.001  0.000   -0.007  0.001 -0.000
 O         -0.000  0.000  0.000   -0.000 -0.001 -0.000    0.005 -0.001  0.000
 O         -0.002  0.002 -0.024   -0.325 -0.273 -0.003   -0.197  0.231 -0.008
 O          0.000 -0.000  0.001   -0.000 -0.000 -0.000    0.000  0.001 -0.001
 C          0.000  0.000 -0.000    0.000  0.000  0.000   -0.000 -0.002  0.000
 O          0.001 -0.000  0.000    0.000  0.000 -0.000   -0.003  0.002  0.000
 C          0.001 -0.004 -0.017    0.478 -0.198  0.011   -0.035 -0.215  0.005
 C         -0.001  0.003 -0.017   -0.104  0.507 -0.005    0.223 -0.003  0.007
 H          0.001 -0.000  0.001    0.001 -0.001 -0.000    0.007 -0.006 -0.002
 H         -0.214 -0.419  0.195    0.251  0.117  0.055    0.006 -0.422  0.007
 H          0.209  0.412  0.190    0.244  0.066 -0.061    0.004 -0.490 -0.005
 H         -0.426 -0.132  0.191    0.106  0.252  0.047    0.430 -0.060 -0.009
 H          0.446  0.124  0.200    0.096  0.215 -0.068    0.436 -0.119  0.002
 TransDip   0.007 -0.005  0.042    0.111  0.099  0.001    0.250 -0.290  0.006

 Mode:                19                     20                     21
 Frequency:      1043.42                1072.11                1171.62
 Force Cnst:      0.9101                 0.6992                 1.1884
 Red. Mass:       1.4188                 1.0325                 1.4693
 IR Active:          YES                    YES                    YES
 IR Intens:      326.393                  0.143                  1.641
 Raman Active:       YES                    YES                    YES
               X      Y      Z        X      Y      Z        X      Y      Z
 O          0.000 -0.000  0.000   -0.000 -0.000 -0.000    0.001  0.000 -0.000
 C         -0.000  0.000 -0.000    0.000 -0.000  0.000   -0.002  0.000  0.000
 O          0.000 -0.000 -0.000   -0.000  0.000 -0.000    0.001 -0.000 -0.000
 O          0.001 -0.001  0.000    0.010 -0.003  0.007   -0.043  0.073  0.029
 O          0.010  0.019  0.001   -0.000 -0.000  0.001    0.000  0.000  0.000
 C         -0.016 -0.123 -0.011    0.000 -0.000 -0.000    0.000  0.000 -0.000
 O         -0.042  0.116  0.016    0.001 -0.000 -0.000    0.000 -0.000  0.000
 C          0.000  0.001  0.000   -0.005  0.003 -0.035    0.071 -0.103 -0.076
 C         -0.001  0.000 -0.000   -0.017  0.006  0.021    0.041 -0.085  0.027
 H          0.696 -0.682 -0.138    0.002 -0.001 -0.000   -0.000  0.000 -0.000
 H          0.000  0.002 -0.000   -0.354  0.390  0.089   -0.283  0.465  0.018
 H         -0.000  0.003  0.000    0.338 -0.377  0.107    0.251  0.543  0.136
 H         -0.002 -0.000  0.000   -0.243  0.327 -0.089   -0.107 -0.028  0.033
 H         -0.003  0.001 -0.000    0.341 -0.386 -0.067   -0.514  0.081 -0.063
 TransDip   0.452 -0.352 -0.080   -0.005  0.006 -0.009    0.023 -0.012 -0.032

 Mode:                22                     23                     24
 Frequency:      1174.04                1179.26                1203.04
 Force Cnst:      1.1389                 1.0499                 1.1052
 Red. Mass:       1.4023                 1.2813                 1.2960
 IR Active:          YES                    YES                    YES
 IR Intens:        0.429                  6.278                  2.817
 Raman Active:       YES                    YES                    YES
               X      Y      Z        X      Y      Z        X      Y      Z
 O          0.000  0.000  0.000    0.000  0.000  0.000   -0.000 -0.000 -0.000
 C         -0.001  0.000 -0.000   -0.000  0.000 -0.000    0.001 -0.000  0.000
 O          0.000 -0.000  0.000    0.000 -0.000  0.000   -0.000  0.000 -0.000
 O         -0.008  0.029  0.019    0.020  0.033 -0.072    0.056 -0.003  0.044
 O         -0.000  0.000  0.000   -0.000 -0.000  0.000    0.004 -0.001 -0.002
 C          0.000  0.000 -0.000    0.000 -0.000  0.000    0.001 -0.000  0.000
 O          0.000 -0.000 -0.000    0.000 -0.000 -0.000   -0.006  0.001  0.001
 C          0.020 -0.044  0.107    0.006 -0.073  0.063   -0.044 -0.050 -0.050
 C          0.002 -0.028 -0.140   -0.052 -0.006  0.061   -0.094  0.054 -0.025
 H          0.000 -0.000 -0.000    0.000 -0.000  0.000   -0.008  0.003  0.001
 H          0.188  0.598 -0.110    0.236  0.156 -0.107   -0.320  0.219  0.049
 H         -0.228 -0.153 -0.063   -0.390  0.542 -0.069    0.068  0.135  0.048
 H         -0.397 -0.337  0.141    0.047  0.238 -0.097    0.701 -0.431  0.009
 H          0.299  0.292  0.120    0.329 -0.504 -0.069    0.324  0.061  0.108
 TransDip   0.010 -0.001 -0.018    0.013  0.008  0.079    0.009  0.020 -0.049

 Mode:                25                     26                     27
 Frequency:      1288.61                1328.39                1392.54
 Force Cnst:      8.1822                 2.2505                18.2703
 Red. Mass:       8.3634                 2.1646                15.9912
 IR Active:          YES                    YES                    YES
 IR Intens:       11.869                 25.782                  0.197
 Raman Active:       YES                    YES                    YES
               X      Y      Z        X      Y      Z        X      Y      Z
 O         -0.000 -0.000  0.000    0.000  0.000  0.000    0.120  0.696 -0.001
 C          0.000 -0.000  0.000   -0.000  0.000  0.000    0.026 -0.003  0.002
 O         -0.000 -0.000  0.000    0.000 -0.001  0.000   -0.140 -0.694 -0.000
 O          0.004 -0.001  0.003   -0.067  0.087  0.001    0.001 -0.000  0.000
 O         -0.437  0.107  0.053   -0.003  0.001 -0.000   -0.000  0.000  0.000
 C         -0.141  0.040  0.018   -0.002  0.000  0.000    0.000  0.000 -0.000
 O          0.501 -0.121 -0.061    0.004 -0.001 -0.000    0.000 -0.000 -0.000
 C         -0.007 -0.008 -0.003    0.167  0.122 -0.002   -0.001 -0.000  0.000
 C         -0.000  0.006 -0.001   -0.166 -0.136 -0.002    0.000  0.000  0.000
 H          0.652 -0.253 -0.091    0.005 -0.002 -0.001   -0.000  0.000 -0.000
 H         -0.029  0.012  0.004    0.429 -0.144 -0.078   -0.004 -0.001  0.002
 H         -0.013  0.014 -0.002    0.443 -0.137  0.098   -0.004 -0.001 -0.002
 H          0.057 -0.017 -0.005    0.112 -0.491  0.089    0.002  0.003 -0.002
 H          0.019  0.026  0.014    0.062 -0.440 -0.064    0.002  0.003  0.002
 TransDip  -0.109  0.010  0.009    0.101 -0.128  0.001    0.014 -0.001  0.001

 Mode:                28                     29                     30
 Frequency:      1497.05                1538.99                2406.81
 Force Cnst:      1.4197                 2.0066                43.9371
 Red. Mass:       1.0752                 1.4380                12.8736
 IR Active:          YES                    YES                    YES
 IR Intens:        2.201                  4.938                959.702
 Raman Active:       YES                    YES                    YES
               X      Y      Z        X      Y      Z        X      Y      Z
 O         -0.000 -0.000  0.000    0.000 -0.000  0.000   -0.058 -0.327  0.000
 C          0.000  0.000 -0.000   -0.001 -0.000 -0.000    0.162  0.869 -0.001
 O         -0.000 -0.000 -0.000    0.001  0.000  0.000   -0.064 -0.323  0.000
 O         -0.013 -0.013 -0.000   -0.024  0.028 -0.001   -0.001  0.000  0.000
 O          0.000 -0.000  0.000    0.001 -0.000  0.000    0.001 -0.000 -0.000
 C          0.000 -0.000 -0.000    0.000 -0.000 -0.000   -0.002  0.000  0.000
 O         -0.000  0.000  0.000   -0.001  0.000  0.000    0.000 -0.000 -0.000
 C         -0.056 -0.020 -0.000    0.129  0.036  0.002   -0.000 -0.000 -0.000
 C         -0.024 -0.040  0.000   -0.065 -0.123  0.001    0.001 -0.002  0.000
 H         -0.000  0.000  0.000   -0.000 -0.000  0.000    0.000 -0.001 -0.000
 H          0.423  0.082 -0.282   -0.353 -0.067  0.295   -0.002 -0.000  0.002
 H          0.413  0.088  0.292   -0.345 -0.076 -0.303   -0.002  0.000 -0.002
 H          0.154  0.374 -0.268    0.154  0.367 -0.329    0.003  0.001  0.002
 H          0.159  0.370  0.262    0.157  0.364  0.323    0.003  0.001 -0.001
 TransDip   0.034  0.033  0.001    0.044 -0.056  0.002    0.159  0.979 -0.002

 Mode:                31                     32                     33
 Frequency:      2474.56                3118.20                3127.19
 Force Cnst:     43.5902                 5.9878                 6.1043
 Red. Mass:      12.0821                 1.0452                 1.0594
 IR Active:          YES                    YES                    YES
 IR Intens:      653.890                 36.106                 18.503
 Raman Active:       YES                    YES                    YES
               X      Y      Z        X      Y      Z        X      Y      Z
 O         -0.000 -0.001  0.000    0.000  0.000  0.000   -0.000 -0.000 -0.000
 C          0.000  0.002 -0.000   -0.000 -0.000  0.000    0.000  0.000  0.000
 O         -0.000 -0.001  0.000   -0.000  0.000  0.000   -0.000 -0.000 -0.000
 O          0.000 -0.001  0.000   -0.001 -0.001 -0.000    0.000 -0.000  0.000
 O         -0.422  0.091  0.051    0.000 -0.000  0.000   -0.000 -0.000 -0.000
 C          0.813 -0.181 -0.099   -0.000  0.000  0.000    0.000 -0.000 -0.000
 O         -0.178  0.031  0.021   -0.000 -0.000 -0.000   -0.000  0.000  0.000
 C          0.001  0.001 -0.000   -0.039 -0.014 -0.000   -0.045 -0.016 -0.000
 C         -0.001 -0.000 -0.000   -0.022 -0.034  0.000    0.026  0.041 -0.000
 H         -0.154  0.220  0.037    0.001  0.001 -0.000   -0.000 -0.000 -0.000
 H          0.000  0.001  0.001    0.239  0.082  0.436    0.232  0.078  0.426
 H          0.000  0.001 -0.001    0.254  0.072 -0.433    0.246  0.069 -0.423
 H          0.002 -0.002  0.002    0.119  0.223  0.422   -0.120 -0.228 -0.432
 H         -0.001  0.000 -0.000    0.134  0.213 -0.425   -0.135 -0.217  0.437
 TransDip   0.800 -0.151 -0.092   -0.153 -0.117 -0.001   -0.090  0.104 -0.002

 Mode:                34                     35                     36
 Frequency:      3208.79                3220.74                3345.32
 Force Cnst:      6.8044                 6.8529                 7.0295
 Red. Mass:       1.1217                 1.1213                 1.0661
 IR Active:          YES                    YES                    YES
 IR Intens:        0.057                 35.663                858.494
 Raman Active:       YES                    YES                    YES
               X      Y      Z        X      Y      Z        X      Y      Z
 O         -0.000 -0.000 -0.000    0.000  0.000 -0.000    0.000 -0.000  0.000
 C          0.000  0.000  0.000   -0.000 -0.000 -0.000   -0.000  0.000 -0.000
 O          0.000 -0.000 -0.000   -0.000  0.000  0.000    0.000 -0.000 -0.000
 O          0.000  0.000  0.000   -0.000  0.000  0.002    0.000 -0.000  0.000
 O         -0.000  0.000 -0.000    0.000 -0.000  0.000    0.006 -0.002 -0.001
 C          0.000 -0.000 -0.000   -0.000  0.000 -0.000   -0.010  0.001  0.001
 O         -0.000  0.000  0.000    0.000 -0.000 -0.000   -0.045 -0.042  0.000
 C          0.001 -0.001 -0.074    0.001 -0.001 -0.070    0.000  0.000  0.000
 C         -0.001  0.001  0.070    0.001 -0.001 -0.073   -0.000  0.000  0.000
 H         -0.000 -0.000 -0.000    0.000  0.000 -0.000    0.732  0.678 -0.006
 H          0.249  0.084  0.438    0.239  0.089  0.416   -0.000 -0.000 -0.000
 H         -0.260 -0.073  0.429   -0.249 -0.078  0.408   -0.000  0.000  0.000
 H         -0.120 -0.227 -0.414    0.135  0.236  0.431   -0.000 -0.000 -0.001
 H          0.133  0.215 -0.413   -0.148 -0.224  0.431   -0.000 -0.000  0.001
 TransDip   0.000 -0.000 -0.008    0.003 -0.003 -0.191    0.847  0.401 -0.043

 STANDARD THERMODYNAMIC QUANTITIES AT   298.15 K  AND     1.00 ATM

   This Molecule has  1 Imaginary Frequencies
   Zero point vibrational energy:       58.010 kcal/mol

   Atom    1 Element O  Has Mass   15.99491
   Atom    2 Element C  Has Mass   12.00000
   Atom    3 Element O  Has Mass   15.99491
   Atom    4 Element O  Has Mass   15.99491
   Atom    5 Element O  Has Mass   15.99491
   Atom    6 Element C  Has Mass   12.00000
   Atom    7 Element O  Has Mass   15.99491
   Atom    8 Element C  Has Mass   12.00000
   Atom    9 Element C  Has Mass   12.00000
   Atom   10 Element H  Has Mass    1.00783
   Atom   11 Element H  Has Mass    1.00783
   Atom   12 Element H  Has Mass    1.00783
   Atom   13 Element H  Has Mass    1.00783
   Atom   14 Element H  Has Mass    1.00783
   Molecular Mass:   133.013700 amu
   Principal axes and moments of inertia in amu*Bohr^2:
                             1           2           3
    Eigenvalues --      319.89335  5370.81886  5655.69985
          X               0.79074     0.61179    -0.02104
          Y              -0.61211     0.79063    -0.01514
          Z               0.00737     0.02485     0.99966
   Rotational Symmetry Number is   1
   The Molecule is an Asymmetric Top
   Translational Enthalpy:        0.889 kcal/mol
   Rotational Enthalpy:           0.889 kcal/mol
   Vibrational Enthalpy:         63.641 kcal/mol
   gas constant (RT):             0.592 kcal/mol
   Translational Entropy:        40.568  cal/mol.K
   Rotational Entropy:           30.653  cal/mol.K
   Vibrational Entropy:          49.864  cal/mol.K

   Total Enthalpy:               66.011 kcal/mol
   Total Entropy:               121.085  cal/mol.K
Archival summary:
1\1\nid01744\FREQ\ProcedureUnspecified\BasisUnspecified\545(1+,1)\sblau\WedJul1716:43:562019WedJul1716:43:562019\0\\#,FREQ,ProcedureUnspecified,BasisUnspecified,\\1,1\O\C,1,1.42824\H,2,1.08727,1,114.828\H,2,1.08728,1,114.846,3,-138.349,0\C,1,1.42904,2,61.5222,3,-110.831,0\H,5,1.08718,1,114.821,2,110.825,0\H,5,1.08723,1,114.808,2,-110.803,0\C,1,2.83962,2,112.222,3,72.2216,0\O,8,1.15911,1,94.7716,2,179.524,0\O,8,1.15984,1,86.9948,2,-0.483978,0\O,2,3.31945,1,144.291,3,111.582,0\C,11,1.12322,2,145.307,1,12.4662,0\O,12,1.21814,11,174.305,2,164.666,0\H,13,1.0009,12,117.073,11,-179.951,0\\\@

 Total job time:  11247.18s(wall), 264791.24s(cpu) 
 Wed Jul 17 16:43:56 2019

        *************************************************************
        *                                                           *
        *  Thank you very much for using Q-Chem.  Have a nice day.  *
        *                                                           *
        *************************************************************


