
Running Job 1 of 1 mol.qin
qchem mol.qin_29281.0 /tmp/qchem288122015/chain_scratch/ 0
/global/project/projectdirs/jcesr/qchem_sblau/qc521_exe/qcprog.LINUX_Ix86_64.20190628.exe mol.qin_29281.0 /tmp/qchem288122015/chain_scratch/
                  Welcome to Q-Chem
     A Quantum Leap Into The Future Of Chemistry


 Q-Chem 5.2, Q-Chem, Inc., Pleasanton, CA (2019)

 License issued to: National Energy Research Scientific Computing Center

 Yihan Shao,  Zhengting Gan,  E. Epifanovsky,  A. T. B. Gilbert,  M. Wormit,  
 J. Kussmann,  A. W. Lange,  A. Behn,  Jia Deng,  Xintian Feng,  D. Ghosh,  
 M. Goldey,  P. R. Horn,  L. D. Jacobson,  I. Kaliman,  T. Kus,  A. Landau,  
 Jie Liu,  E. I. Proynov,  R. M. Richard,  R. P. Steele,  E. J. Sundstrom,  
 H. L. Woodcock III,  P. M. Zimmerman,  D. Zuev,  B. Albrecht,  E. Alguire,  
 S. A. Baeppler,  D. Barton,  Z. Benda,  Y. A. Bernard,  E. J. Berquist,  
 K. B. Bravaya,  H. Burton,  D. Casanova,  Chun-Min Chang,  Yunqing Chen,  
 A. Chien,  K. D. Closser,  M. P. Coons,  S. Coriani,  S. Dasgupta,  
 A. L. Dempwolff,  M. Diedenhofen,  Hainam Do,  R. G. Edgar,  Po-Tung Fang,  
 S. Faraji,  S. Fatehi,  Qingguo Feng,  K. D. Fenk,  J. Fosso-Tande,  
 J. Gayvert,  Qinghui Ge,  A. Ghysels,  G. Gidofalvi,  J. Gomes,  
 J. Gonthier,  A. Gunina,  D. Hait,  M. W. D. Hanson-Heine,  
 P. H. P. Harbach,  A. W. Hauser,  M. F. Herbst,  J. E. Herr,  
 E. G. Hohenstein,  Z. C. Holden,  Kerwin Hui,  B. C. Huynh,  T.-C. Jagau,  
 Hyunjun Ji,  B. Kaduk,  K. Khistyaev,  Jaehoon Kim,  P. Klunzinger,  K. Koh,  
 D. Kosenkov,  L. Koulias,  T. Kowalczyk,  C. M. Krauter,  A. Kunitsa,  
 Ka Un Lao,  A. Laurent,  K. V. Lawler,  Joonho Lee,  D. Lefrancois,  
 S. Lehtola,  D. S. Levine,  Yi-Pei Li,  You-Sheng Lin,  Fenglai Liu,  
 E. Livshits,  A. Luenser,  P. Manohar,  E. Mansoor,  S. F. Manzer,  
 Shan-Ping Mao,  Yuezhi Mao,  N. Mardirossian,  A. V. Marenich,  
 T. Markovich,  L. A. Martinez-Martinez,  S. A. Maurer,  N. J. Mayhall,  
 S. C. McKenzie,  J.-M. Mewes,  P. Morgante,  A. F. Morrison,  
 J. W. Mullinax,  K. Nanda,  T. S. Nguyen-Beck,  R. Olivares-Amaya,  
 J. A. Parkhill,  Zheng Pei,  T. M. Perrine,  F. Plasser,  P. Pokhilko,  
 S. Prager,  A. Prociuk,  E. Ramos,  D. R. Rehn,  F. Rob,  M. Scheurer,  
 M. Schneider,  N. Sergueev,  S. M. Sharada,  S. Sharma,  D. W. Small,  
 T. Stauch,  T. Stein,  Yu-Chuan Su,  A. J. W. Thom,  A. Tkatchenko,  
 T. Tsuchimochi,  N. M. Tubman,  L. Vogt,  M. L. Vidal,  O. Vydrov,  
 M. A. Watson,  J. Wenzel,  M. de Wergifosse,  T. A. Wesolowski,  A. White,  
 J. Witte,  A. Yamada,  Jun Yang,  K. Yao,  S. Yeganeh,  S. R. Yost,  
 Zhi-Qiang You,  A. Zech,  Igor Ying Zhang,  Xing Zhang,  Yan Zhao,  
 Ying Zhu,  B. R. Brooks,  G. K. L. Chan,  C. J. Cramer,  M. S. Gordon,  
 W. J. Hehre,  A. Klamt,  M. W. Schmidt,  C. D. Sherrill,  D. G. Truhlar,  
 A. Aspuru-Guzik,  R. Baer,  A. T. Bell,  N. A. Besley,  Jeng-Da Chai,  
 A. E. DePrince, III,  R. A. DiStasio Jr.,  A. Dreuw,  B. D. Dunietz,  
 T. R. Furlani,  Chao-Ping Hsu,  Yousung Jung,  Jing Kong,  D. S. Lambrecht,  
 WanZhen Liang,  C. Ochsenfeld,  V. A. Rassolov,  L. V. Slipchenko,  
 J. E. Subotnik,  T. Van Voorhis,  J. M. Herbert,  A. I. Krylov,  
 P. M. W. Gill,  M. Head-Gordon

 Contributors to earlier versions of Q-Chem not listed above: 
 R. D. Adamson,  B. Austin,  J. Baker,  G. J. O. Beran,  K. Brandhorst,  
 S. T. Brown,  E. F. C. Byrd,  A. K. Chakraborty,  C.-L. Cheng,  
 Siu Hung Chien,  D. M. Chipman,  D. L. Crittenden,  H. Dachsel,  
 R. J. Doerksen,  A. D. Dutoi,  L. Fusti-Molnar,  W. A. Goddard III,  
 A. Golubeva-Zadorozhnaya,  S. R. Gwaltney,  G. Hawkins,  A. Heyden,  
 S. Hirata,  G. Kedziora,  F. J. Keil,  C. Kelley,  Jihan Kim,  R. A. King,  
 R. Z. Khaliullin,  P. P. Korambath,  W. Kurlancheek,  A. M. Lee,  M. S. Lee,  
 S. V. Levchenko,  Ching Yeh Lin,  D. Liotard,  R. C. Lochan,  I. Lotan,  
 P. E. Maslen,  N. Nair,  D. P. O'Neill,  D. Neuhauser,  E. Neuscamman,  
 C. M. Oana,  R. Olson,  B. Peters,  R. Peverati,  P. A. Pieniazek,  
 Y. M. Rhee,  J. Ritchie,  M. A. Rohrdanz,  E. Rosta,  N. J. Russ,  
 H. F. Schaefer III,  N. E. Schultz,  N. Shenvi,  A. C. Simmonett,  A. Sodt,  
 D. Stuck,  K. S. Thanthiriwatte,  V. Vanovschi,  Tao Wang,  A. Warshel,  
 C. F. Williams,  Q. Wu,  X. Xu,  W. Zhang

 Please cite Q-Chem as follows:
 Y. Shao et al., Mol. Phys. 113, 184-215 (2015)
 DOI: 10.1080/00268976.2014.952696

 Q-Chem 5.2.0 for Intel X86 EM64T Linux

 Parts of Q-Chem use Armadillo 8.300.2 (Tropical Shenanigans).
 http://arma.sourceforge.net/

 Q-Chem begins on Wed Jul 17 16:53:49 2019  

Host: cori09
0

     Scratch files written to /tmp/qchem288122015/chain_scratch//
 Jun2719 |scratch|qcdevops|jenkins|workspace|build_RNUM -1
Processing $rem in /global/common/cori/software/qchem/5.2/config/preferences:
	 MEM_TOTAL  96000 
NAlpha2: 68
NElect   68
Mult     1
Symmetry turned off for PCM/SM12/SMD calculation

Checking the input file for inconsistencies... 	...done.

--------------------------------------------------------------
User input:
--------------------------------------------------------------
$molecule
1 1
O      4.1712271795     -3.1562385377      0.1998843533
C      4.3844203556     -2.0177777943      0.1553095852
O      4.6330917865     -0.8856509879      0.1137096543
O      1.6571532799     -1.2819956910     -0.1018112096
O     -0.8400732524      2.5262831195     -0.1056926170
C     -1.9286236660      2.7693813293      0.0269577646
O     -3.0760478912      3.1491387622      0.1788238902
C      0.3185675202     -0.7818118052     -0.1074051817
C      1.4587592415      0.1323382909     -0.1080819702
H     -3.7909336755      2.4486257367      0.1830546612
H     -0.2291402043     -0.9543596430     -1.0305456289
H     -0.2340220213     -0.9466492831      0.8142734138
H      1.7397897322      0.6370621379      0.8130189506
H      1.7450361406      0.6298288944     -1.0314956684
$end

$rem
job_type = freq
basis = def2-tzvppd
max_scf_cycles = 200
gen_scfman = true
xc_grid = 3
scf_algorithm = diis
resp_charges = true
symmetry = false
sym_ignore = true
method = wb97xv
geom_opt_max_cycles = 100
solvent_method = smd
ideriv = 1
thresh = 14
$end

$smx
solvent other
$end
--------------------------------------------------------------
 ----------------------------------------------------------------
             Standard Nuclear Orientation (Angstroms)
    I     Atom           X                Y                Z
 ----------------------------------------------------------------
    1      O       4.1712271795    -3.1562385377     0.1998843533
    2      C       4.3844203556    -2.0177777943     0.1553095852
    3      O       4.6330917865    -0.8856509879     0.1137096543
    4      O       1.6571532799    -1.2819956910    -0.1018112096
    5      O      -0.8400732524     2.5262831195    -0.1056926170
    6      C      -1.9286236660     2.7693813293     0.0269577646
    7      O      -3.0760478912     3.1491387622     0.1788238902
    8      C       0.3185675202    -0.7818118052    -0.1074051817
    9      C       1.4587592415     0.1323382909    -0.1080819702
   10      H      -3.7909336755     2.4486257367     0.1830546612
   11      H      -0.2291402043    -0.9543596430    -1.0305456289
   12      H      -0.2340220213    -0.9466492831     0.8142734138
   13      H       1.7397897322     0.6370621379     0.8130189506
   14      H       1.7450361406     0.6298288944    -1.0314956684
 ----------------------------------------------------------------
 Nuclear Repulsion Energy =         372.97852860 hartrees
 There are       34 alpha and       34 beta electrons
 Requested basis set is def2-TZVPPD
 There are 157 shells and 433 basis functions

 Total QAlloc Memory Limit  96000 MB
 Mega-Array Size       188 MB
 MEM_STATIC part       192 MB
 
 Citation of the SMD model:
 Marenich, A.V.; Cramer, C.J.; Truhlar, D.G.
 J. Phys. Chem. B 2009, 113, 6378-6396.
 iSolventCode=           0
 Solvent: other                                                           
 
 vradii
            1           2           3           4           5           6
    1   2.2940000   1.8500000   2.2940000   2.2940000   2.2940000   1.8500000
            7           8           9          10          11          12
    1   2.2940000   1.8500000   1.8500000   1.2000000   1.2000000   1.2000000
           13          14
    1   1.2000000   1.2000000
 Changing PCM_VDW_RADII to SMD_RADIUS
 Discretize the solute cavity surface with Lebedev spheres
	Using 110 Lebedev grid points for each H atom
	Using 194 Lebedev grid points for other atoms
	Atomic van der Waals radii will be scaled by 1.20
 Remove points where switching function is < 1.0e-08
 Keep 1143 surface tesserae and discard 1153 interior tesserae
 Molecular Surface Area = 241.520 Angst**2

                       Distance Matrix (Angstroms)
             O (  1)   C (  2)   O (  3)   O (  4)   O (  5)   C (  6)
   C (  2)  1.159108
   O (  3)  2.318688  1.159862
   O (  4)  3.150297  2.836454  3.009942
   O (  5)  7.582715  6.929065  6.453291  4.554025
   C (  6)  8.505942  7.923881  7.511518  5.411842  1.123225
   O (  7)  9.606312  9.075030  8.701414  6.489754  2.338478  1.218138
   C (  8)  4.536002  4.257674  4.321434  1.428995  3.505131  4.204628
   C (  9)  4.273998  3.640311  3.340940  1.428195  3.318977  4.294950
   H ( 10)  9.737083  9.315897  9.060155  6.609110  2.965971  1.896167
   H ( 11)  5.072027  4.880784  4.995532  2.127909  3.652871  4.227624
   H ( 12)  4.966486  4.786602  4.917653  2.127960  3.643473  4.159378
   H ( 13)  4.547192  3.804580  3.343484  2.127563  3.326993  4.315314
   H ( 14)  4.662296  3.922331  3.456738  2.127701  3.337131  4.381071
             O (  7)   C (  8)   C (  9)   H ( 10)   H ( 11)   H ( 12)
   C (  8)  5.201703
   C (  9)  5.454161  1.461406
   H ( 10)  1.000899  5.235274  5.745365
   H ( 11)  5.138692  1.087173  2.209266  5.073412
   H ( 12)  5.025573  1.087207  2.209177  4.957615  1.844842
   H ( 13)  5.468549  2.209130  1.087268  5.853847  3.131779  2.530628
   H ( 14)  5.572670  2.209408  1.087265  5.952320  2.531210  3.131903
             H ( 13)
   H ( 14)  1.844536
 
 A cutoff of  1.0D-14 yielded  10211 shell pairs
 There are     76741 function pairs (     98027 Cartesian)
 Smallest overlap matrix eigenvalue = 5.67E-06
 Guess from superposition of atomic densities
 Warning:  Energy on first SCF cycle will be non-variational
 SAD guess density has 68.075651 electrons

 -----------------------------------------------------------------------
  General SCF calculation program by
  Eric Jon Sundstrom, Paul Horn, Yuezhi Mao, Dmitri Zuev, Alec White,
  David Stuck, Shaama M.S., Shane Yost, Joonho Lee, David Small,
  Daniel Levine, Susi Lehtola, Hugh Burton, Evgeny Epifanovsky,
  Bang C. Huynh
 -----------------------------------------------------------------------
 Exchange:     0.1670 Hartree-Fock + 1.0000 wB97X-V + LR-HF
 Correlation:  1.0000 wB97X-V
 Using SG-3 standard quadrature grid
 Nonlocal Correlation:  VV10 with C = 0.0100 and b = 6.00 and scale = 1.00000
 Grid used for NLC:  SG-1 standard quadrature
 
 Citation of the SMD model:
 Marenich, A.V.; Cramer, C.J.; Truhlar, D.G.
 J. Phys. Chem. B 2009, 113, 6378-6396.
 iSolventCode=           0
 Solvent: other                                                           
 
 vradii
            1           2           3           4           5           6
    1   2.2940000   1.8500000   2.2940000   2.2940000   2.2940000   1.8500000
            7           8           9          10          11          12
    1   2.2940000   1.8500000   1.8500000   1.2000000   1.2000000   1.2000000
           13          14
    1   1.2000000   1.2000000
 using 32 threads for integral computing
 -------------------------------------------------------
 OpenMP Integral computing Module                
 Release: version 1.0, May 2013, Q-Chem Inc. Pittsburgh 
 -------------------------------------------------------
 using 32 threads for integral computing
 -------------------------------------------------------
 OpenMP Integral computing Module                
 Release: version 1.0, May 2013, Q-Chem Inc. Pittsburgh 
 -------------------------------------------------------
 -------------------------------------------------------
 OpenMP BLAS3 based DFT computing Module                
 Release: version 1.0, May 2013, Q-Chem Inc. Pittsburgh 
 -------------------------------------------------------
 -------------------------------------------------------
 OpenMP BLAS3 based DFT computing Module                
 Release: version 1.0, May 2013, Q-Chem Inc. Pittsburgh 
 -------------------------------------------------------
 -------------------------------------------------------
 OpenMP BLAS3 based DFT computing Module                
 Release: version 1.0, May 2013, Q-Chem Inc. Pittsburgh 
 -------------------------------------------------------
 A restricted SCF calculation will be
 performed using DIIS
 SCF converges when DIIS error is below 1.0e-08
 ---------------------------------------
  Cycle       Energy         DIIS error
 ---------------------------------------
    1    -530.3648209006      2.55e-02  
    2    -530.1227375268      9.01e-03  
    3    -530.2813899844      8.31e-03  
    4    -531.3259920898      9.22e-04  
    5    -531.3365656682      4.93e-04  
    6    -531.3401564903      8.22e-05  
    7    -531.3402739190      3.12e-05  
    8    -531.3402902175      1.12e-05  
    9    -531.3402931217      2.54e-06  
   10    -531.3402933509      1.21e-06  
   11    -531.3402933882      3.89e-07  
   12    -531.3402933945      1.52e-07  
   13    -531.3402933955      5.07e-08  
   14    -531.3402933956      3.66e-08  
   15    -531.3402933956      6.03e-09  Convergence criterion met
 ---------------------------------------
 SCF time:   CPU 2919.32s  wall 119.00s 
(3)  G-ENP(liq) elect-nuc-pol free energy of system     -531.340293396 a.u.
(4)  G-CDS(liq) cavity-dispersion-solvent structure 
     free energy                                               -2.3845 kcal/mol
(6)  G-S(liq) free energy of system                     -531.344093300 a.u.
 SCF   energy in the final basis set =     -531.3402933956
 Total energy in the final basis set =     -531.3440933003
 
 --------------------------------------------------------------
 
                    Orbital Energies (a.u.)
 --------------------------------------------------------------
 
 Alpha MOs
 -- Occupied --
-19.4651 -19.4362 -19.2884 -19.2882 -19.2354 -10.6099 -10.4549 -10.3228
-10.3220  -1.4473  -1.4062  -1.2909  -1.2467  -1.2136  -0.9396  -0.8107
 -0.7853  -0.7669  -0.7665  -0.7607  -0.6801  -0.6560  -0.6364  -0.6351
 -0.6335  -0.6318  -0.6242  -0.5954  -0.5092  -0.4900  -0.4758  -0.4749
 -0.4276  -0.3905
 -- Virtual --
 -0.0328  -0.0071   0.0021   0.0447   0.0630   0.0723   0.0794   0.0802
  0.0878   0.0949   0.1047   0.1088   0.1183   0.1203   0.1269   0.1289
  0.1322   0.1358   0.1378   0.1427   0.1527   0.1619   0.1689   0.1725
  0.1806   0.1826   0.1932   0.1999   0.2148   0.2223   0.2283   0.2378
  0.2417   0.2546   0.2559   0.2617   0.2670   0.2743   0.2838   0.2956
  0.3038   0.3061   0.3162   0.3190   0.3204   0.3278   0.3328   0.3388
  0.3441   0.3472   0.3656   0.3668   0.3712   0.3750   0.3821   0.3876
  0.3931   0.3966   0.4004   0.4056   0.4080   0.4129   0.4213   0.4288
  0.4347   0.4375   0.4427   0.4515   0.4600   0.4631   0.4646   0.4803
  0.4880   0.4927   0.4980   0.4995   0.5059   0.5136   0.5313   0.5347
  0.5391   0.5502   0.5524   0.5557   0.5689   0.5737   0.5823   0.5889
  0.5957   0.5994   0.6042   0.6048   0.6229   0.6301   0.6422   0.6592
  0.6717   0.6783   0.6908   0.6980   0.7135   0.7211   0.7291   0.7381
  0.7578   0.7734   0.7800   0.7847   0.7880   0.7901   0.7928   0.8036
  0.8076   0.8139   0.8328   0.8362   0.8654   0.8795   0.8811   0.8933
  0.8981   0.9077   0.9128   0.9257   0.9372   0.9410   0.9571   0.9701
  0.9830   0.9907   0.9922   0.9948   1.0022   1.0142   1.0194   1.0287
  1.0428   1.0680   1.0848   1.0976   1.1174   1.1257   1.1306   1.1514
  1.1722   1.1955   1.2034   1.2084   1.2117   1.2268   1.2395   1.2688
  1.2777   1.2858   1.2878   1.2986   1.3180   1.3392   1.3444   1.3541
  1.3736   1.3847   1.4078   1.4329   1.4504   1.5115   1.5148   1.5588
  1.6335   1.6694   1.6865   1.7016   1.7138   1.7164   1.7316   1.7532
  1.7565   1.7739   1.7876   1.8024   1.8209   1.8313   1.8473   1.8798
  1.8881   1.9011   1.9058   1.9142   1.9188   1.9366   1.9515   1.9763
  1.9819   2.0237   2.0304   2.0653   2.0886   2.0953   2.1044   2.1317
  2.1714   2.2121   2.2224   2.2510   2.3155   2.3448   2.3748   2.3850
  2.4271   2.4626   2.4892   2.5019   2.5120   2.5418   2.5744   2.5771
  2.6369   2.7168   2.7245   2.7475   2.7605   2.7773   2.7999   2.8178
  2.8223   2.8805   2.9191   2.9446   2.9476   2.9664   2.9683   2.9736
  2.9819   2.9914   3.0018   3.0137   3.0293   3.0400   3.0471   3.0512
  3.0660   3.0752   3.1056   3.1242   3.1335   3.1374   3.1539   3.1575
  3.1767   3.1984   3.2052   3.2174   3.2291   3.2907   3.2945   3.3015
  3.3286   3.3415   3.3564   3.3595   3.3904   3.4211   3.4363   3.4592
  3.4836   3.5127   3.5157   3.5282   3.5286   3.5645   3.5828   3.6237
  3.6369   3.6807   3.6926   3.7230   3.7461   3.7625   3.7719   3.7989
  3.8033   3.8157   3.8178   3.8391   3.8753   3.8977   3.9640   4.0002
  4.0394   4.0421   4.0484   4.0614   4.1099   4.1473   4.2016   4.2163
  4.2921   4.3044   4.3253   4.3736   4.3803   4.3870   4.3937   4.4352
  4.4850   4.6390   4.6582   4.7056   4.7357   4.7807   4.7962   4.8113
  4.9613   4.9842   4.9860   5.0636   5.0921   5.1021   5.1167   5.1203
  5.1775   5.1881   5.2024   5.2419   5.2459   5.2524   5.2545   5.2981
  5.3075   5.3246   5.3283   5.3531   5.4172   5.4766   5.5546   5.5811
  5.6216   5.6555   5.6818   5.7132   5.7143   5.7333   5.7743   5.8870
  5.9328   5.9391   5.9739   6.0699   6.0713   6.1560   6.1916   6.2540
  6.2625   6.3274   6.3301   6.4126   6.4159   6.4245   6.4289   6.4515
  6.4839   6.5224   6.5391   6.5436   6.5552   6.5781   6.6004   6.6188
  6.6672   6.7877   6.8587   6.8647   6.8815   6.9595   6.9798   7.0427
  7.0458   7.0529   7.0724   7.1002   7.2123   7.2330   7.2927   7.3238
  7.3348   7.4951   7.5979   7.6553   7.8738   7.8763  23.6663  23.6980
 24.0182  24.3338  44.0683  44.1531  44.3503  44.4055  44.4480
 --------------------------------------------------------------
 
          Ground-State Mulliken Net Atomic Charges

     Atom                 Charge (a.u.)
  ----------------------------------------
      1 O                    -0.304280
      2 C                     0.629052
      3 O                    -0.309799
      4 O                    -0.349412
      5 O                     0.021207
      6 C                     0.705233
      7 O                    -0.106706
      8 C                    -0.050422
      9 C                     0.175804
     10 H                     0.369836
     11 H                     0.062855
     12 H                     0.058908
     13 H                     0.048718
     14 H                     0.049005
  ----------------------------------------
  Sum of atomic charges =     1.000000

  Building new vdw surfaces
         Merz-Kollman RESP Net Atomic Charges

     Atom                 Charge (a.u.)
  ----------------------------------------
      1 O                    -0.390702
      2 C                     0.741470
      3 O                    -0.375544
      4 O                    -0.224009
      5 O                    -0.109114
      6 C                     0.791803
      7 O                    -0.211895
      8 C                    -0.240928
      9 C                    -0.261445
     10 H                     0.523101
     11 H                     0.183491
     12 H                     0.183909
     13 H                     0.194931
     14 H                     0.194931
  ----------------------------------------
  Sum of atomic charges =     1.000000

  Related Dipole Moment =    20.5935 (X -14.9885 Y 14.1169 Z  0.3848)

 -----------------------------------------------------------------
                    Cartesian Multipole Moments
 -----------------------------------------------------------------
    Charge (ESU x 10^10)
                 4.8032
    Dipole Moment (Debye)
         X     -14.9780      Y      14.1342      Z       0.3983
       Tot      20.5980
    Quadrupole Moments (Debye-Ang)
        XX     -11.5402     XY     -27.4636     YY     -23.2534
        XZ      -1.3987     YZ       1.0349     ZZ     -45.8949
    Octopole Moments (Debye-Ang^2)
       XXX    -332.7204    XXY     104.1619    XYY    -162.6095
       YYY     121.9986    XXZ       4.6141    XYZ      -3.0239
       YYZ       0.0569    XZZ     -57.9513    YZZ       2.5774
       ZZZ      -3.1641
    Hexadecapole Moments (Debye-Ang^3)
      XXXX   -1962.0879   XXXY     331.9381   XXYY    -454.3810
      XYYY     592.4187   YYYY   -1148.0466   XXXZ     -38.7931
      XXYZ      16.3350   XYYZ     -17.6550   YYYZ      17.7079
      XXZZ    -403.2894   XYZZ     223.9134   YYZZ    -216.5996
      XZZZ     -16.0607   YZZZ       6.5500   ZZZZ     -57.0726
 -----------------------------------------------------------------
 Calculating analytic gradient of the SCF energy
 Gradient of CDS energy
            1           2           3           4           5           6
    1  -0.0007201   0.0012301  -0.0006552  -0.0000298   0.0001020   0.0006277
    2  -0.0000335  -0.0002594   0.0002366   0.0004247  -0.0001167   0.0002403
    3  -0.0000556   0.0001121  -0.0000705   0.0000253   0.0000016  -0.0000399
            7           8           9          10          11          12
    1  -0.0003427  -0.0011172   0.0010986  -0.0003185   0.0001430   0.0001442
    2  -0.0006457  -0.0010589   0.0009578   0.0004128   0.0000450   0.0000430
    3  -0.0000279   0.0000017  -0.0000203   0.0000718   0.0002410  -0.0002405
           13          14
    1  -0.0000874  -0.0000747
    2  -0.0001165  -0.0001298
    3  -0.0002396   0.0002409
 Gradient of SCF Energy
            1           2           3           4           5           6
    1  -0.0062641  -0.0024028   0.0077861   0.0046961   0.1554780  -0.0490652
    2  -0.0321447  -0.0002215   0.0332797  -0.0072630  -0.0264287   0.0019280
    3   0.0010950   0.0002037  -0.0014215   0.0001191  -0.0181800   0.0043722
            7           8           9          10          11          12
    1  -0.0457440   0.0270391  -0.0122105  -0.0590370  -0.0178646  -0.0185694
    2   0.0671766   0.0195718  -0.0281378  -0.0435568  -0.0087032  -0.0071055
    3   0.0118616   0.0008954  -0.0003666   0.0017979  -0.0331625   0.0330123
           13          14
    1   0.0081031   0.0080552
    2   0.0160742   0.0155310
    3   0.0303452  -0.0305719
 Max gradient component =       1.555E-01
 RMS gradient           =       3.437E-02
 Computing fast CPCM-SWIG gradient
 Updating gradient with PCM contributions...
 -- total gradient after adding PCM contribution --
---------------------------------------------------
  Atom         X              Y              Z     
---------------------------------------------------
   1       0.000004      -0.000005      -0.000005
   2      -0.000011      -0.000058       0.000005
   3       0.000031       0.000055      -0.000012
   4      -0.000003       0.000009       0.000001
   5      -0.000013       0.000004       0.000007
   6      -0.000003      -0.000002      -0.000001
   7      -0.000002      -0.000003       0.000001
   8      -0.000007      -0.000010       0.000009
   9       0.000034       0.000019       0.000009
  10      -0.000002      -0.000004       0.000001
  11       0.000002       0.000001       0.000001
  12       0.000004      -0.000001      -0.000011
  13      -0.000045       0.000004      -0.000014
  14       0.000011      -0.000010       0.000008
---------------------------------------------------
 Number of fixed atoms: 0
 Gradient time:  CPU 515.57 s  wall 26.80 s
 ######################################################
 ######################################################
 # Starting finite difference calculation for IDERIV  #
 Finite diff step size:  1.88973e-03 a.u.
 ----------------------------------------------------------------
             Standard Nuclear Orientation (Angstroms)
    I     Atom           X                Y                Z
 ----------------------------------------------------------------
    1      O       4.1722271795    -3.1562385377     0.1998843533
    2      C       4.3844203556    -2.0177777943     0.1553095852
    3      O       4.6330917865    -0.8856509879     0.1137096543
    4      O       1.6571532799    -1.2819956910    -0.1018112096
    5      O      -0.8400732524     2.5262831195    -0.1056926170
    6      C      -1.9286236660     2.7693813293     0.0269577646
    7      O      -3.0760478912     3.1491387622     0.1788238902
    8      C       0.3185675202    -0.7818118052    -0.1074051817
    9      C       1.4587592415     0.1323382909    -0.1080819702
   10      H      -3.7909336755     2.4486257367     0.1830546612
   11      H      -0.2291402043    -0.9543596430    -1.0305456289
   12      H      -0.2340220213    -0.9466492831     0.8142734138
   13      H       1.7397897322     0.6370621379     0.8130189506
   14      H       1.7450361406     0.6298288944    -1.0314956684
 ----------------------------------------------------------------
 Nuclear Repulsion Energy =         372.97713831 hartrees
 There are       34 alpha and       34 beta electrons
 Discretize the solute cavity surface with Lebedev spheres
	Using 110 Lebedev grid points for each H atom
	Using 194 Lebedev grid points for other atoms
	Atomic van der Waals radii will be scaled by 1.20
 Remove points where switching function is < 1.0e-08
 Keep 1143 surface tesserae and discard 1153 interior tesserae
 Molecular Surface Area = 241.526 Angst**2

                       Distance Matrix (Angstroms)
             O (  1)   C (  2)   O (  3)   O (  4)   O (  5)   C (  6)
   C (  2)  1.158924
   O (  3)  2.318489  1.159862
   O (  4)  3.151096  2.836454  3.009942
   O (  5)  7.583376  6.929065  6.453291  4.554025
   C (  6)  8.506659  7.923881  7.511518  5.411842  1.123225
   O (  7)  9.607066  9.075030  8.701414  6.489754  2.338478  1.218138
   C (  8)  4.536852  4.257674  4.321434  1.428995  3.505131  4.204628
   C (  9)  4.274633  3.640311  3.340940  1.428195  3.318977  4.294950
   H ( 10)  9.737901  9.315897  9.060155  6.609110  2.965971  1.896167
   H ( 11)  5.072895  4.880784  4.995532  2.127909  3.652871  4.227624
   H ( 12)  4.967373  4.786602  4.917653  2.127960  3.643473  4.159378
   H ( 13)  4.547726  3.804580  3.343484  2.127563  3.326993  4.315314
   H ( 14)  4.662817  3.922331  3.456738  2.127701  3.337131  4.381071
             O (  7)   C (  8)   C (  9)   H ( 10)   H ( 11)   H ( 12)
   C (  8)  5.201703
   C (  9)  5.454161  1.461406
   H ( 10)  1.000899  5.235274  5.745365
   H ( 11)  5.138692  1.087173  2.209266  5.073412
   H ( 12)  5.025573  1.087207  2.209177  4.957615  1.844842
   H ( 13)  5.468549  2.209130  1.087268  5.853847  3.131779  2.530628
   H ( 14)  5.572670  2.209408  1.087265  5.952320  2.531210  3.131903
             H ( 13)
   H ( 14)  1.844536
 
 Requested basis set is def2-TZVPPD
 There are 157 shells and 433 basis functions
 A cutoff of  1.0D-14 yielded  10210 shell pairs
 There are     76738 function pairs (     98024 Cartesian)
 Smallest overlap matrix eigenvalue = 5.67E-06
 Guess MOs from SCF MO coefficient file

 -----------------------------------------------------------------------
  General SCF calculation program by
  Eric Jon Sundstrom, Paul Horn, Yuezhi Mao, Dmitri Zuev, Alec White,
  David Stuck, Shaama M.S., Shane Yost, Joonho Lee, David Small,
  Daniel Levine, Susi Lehtola, Hugh Burton, Evgeny Epifanovsky,
  Bang C. Huynh
 -----------------------------------------------------------------------
 Exchange:     0.1670 Hartree-Fock + 1.0000 wB97X-V + LR-HF
 Correlation:  1.0000 wB97X-V
 Using SG-3 standard quadrature grid
 Nonlocal Correlation:  VV10 with C = 0.0100 and b = 6.00 and scale = 1.00000
 Grid used for NLC:  SG-1 standard quadrature
 
 Citation of the SMD model:
 Marenich, A.V.; Cramer, C.J.; Truhlar, D.G.
 J. Phys. Chem. B 2009, 113, 6378-6396.
 iSolventCode=           0
 Solvent: other                                                           
 
 vradii
            1           2           3           4           5           6
    1   2.2940000   1.8500000   2.2940000   2.2940000   2.2940000   1.8500000
            7           8           9          10          11          12
    1   2.2940000   1.8500000   1.8500000   1.2000000   1.2000000   1.2000000
           13          14
    1   1.2000000   1.2000000
 using 32 threads for integral computing
 -------------------------------------------------------
 OpenMP Integral computing Module                
 Release: version 1.0, May 2013, Q-Chem Inc. Pittsburgh 
 -------------------------------------------------------
 using 32 threads for integral computing
 -------------------------------------------------------
 OpenMP Integral computing Module                
 Release: version 1.0, May 2013, Q-Chem Inc. Pittsburgh 
 -------------------------------------------------------
 -------------------------------------------------------
 OpenMP BLAS3 based DFT computing Module                
 Release: version 1.0, May 2013, Q-Chem Inc. Pittsburgh 
 -------------------------------------------------------
 -------------------------------------------------------
 OpenMP BLAS3 based DFT computing Module                
 Release: version 1.0, May 2013, Q-Chem Inc. Pittsburgh 
 -------------------------------------------------------
 -------------------------------------------------------
 OpenMP BLAS3 based DFT computing Module                
 Release: version 1.0, May 2013, Q-Chem Inc. Pittsburgh 
 -------------------------------------------------------
 A restricted SCF calculation will be
 performed using Roothaan-Hall, DIIS
 SCF converges when DIIS error is below 1.0e-08
 ---------------------------------------
  Cycle       Energy         DIIS error
 ---------------------------------------
    1    -539.2733026060      2.90e-04  Roothaan Step
 ---------------------------------------
  Cycle       Energy         DIIS error
 ---------------------------------------
    1    -531.3351066808      4.08e-04  
    2    -531.3363492186      5.06e-04  
    3    -531.3402018067      5.02e-05  
    4    -531.3402657147      3.48e-05  
    5    -531.3402867020      1.49e-05  
    6    -531.3402916795      2.38e-06  
    7    -531.3402918423      1.52e-06  
    8    -531.3402918868      3.13e-07  
    9    -531.3402918902      1.67e-07  
   10    -531.3402918909      6.16e-08  
   11    -531.3402918909      1.94e-08  
   12    -531.3402918910      4.57e-09  Convergence criterion met
 ---------------------------------------
 SCF time:   CPU 2518.20s  wall 104.00s 
(3)  G-ENP(liq) elect-nuc-pol free energy of system     -531.340291891 a.u.
(4)  G-CDS(liq) cavity-dispersion-solvent structure 
     free energy                                               -2.3853 kcal/mol
(6)  G-S(liq) free energy of system                     -531.344093155 a.u.
 SCF   energy in the final basis set =     -531.3402918910
 Total energy in the final basis set =     -531.3440931554
 
 --------------------------------------------------------------
 
                    Orbital Energies (a.u.)
 --------------------------------------------------------------
 
 Alpha MOs
 -- Occupied --
-19.4651 -19.4362 -19.2884 -19.2882 -19.2354 -10.6099 -10.4548 -10.3228
-10.3220  -1.4473  -1.4062  -1.2910  -1.2468  -1.2136  -0.9396  -0.8107
 -0.7853  -0.7669  -0.7665  -0.7607  -0.6801  -0.6560  -0.6364  -0.6352
 -0.6335  -0.6318  -0.6242  -0.5954  -0.5092  -0.4900  -0.4758  -0.4749
 -0.4276  -0.3905
 -- Virtual --
 -0.0328  -0.0071   0.0021   0.0447   0.0630   0.0723   0.0794   0.0802
  0.0878   0.0949   0.1047   0.1088   0.1183   0.1203   0.1269   0.1289
  0.1323   0.1358   0.1378   0.1427   0.1527   0.1618   0.1689   0.1725
  0.1806   0.1826   0.1932   0.1999   0.2148   0.2223   0.2283   0.2378
  0.2417   0.2546   0.2559   0.2617   0.2670   0.2743   0.2838   0.2956
  0.3038   0.3060   0.3162   0.3190   0.3204   0.3278   0.3328   0.3388
  0.3441   0.3472   0.3656   0.3668   0.3712   0.3750   0.3821   0.3876
  0.3931   0.3966   0.4004   0.4056   0.4080   0.4129   0.4213   0.4288
  0.4347   0.4376   0.4427   0.4515   0.4600   0.4631   0.4646   0.4803
  0.4880   0.4927   0.4980   0.4995   0.5059   0.5137   0.5313   0.5347
  0.5391   0.5502   0.5524   0.5557   0.5689   0.5737   0.5823   0.5889
  0.5958   0.5994   0.6042   0.6048   0.6229   0.6301   0.6422   0.6592
  0.6717   0.6783   0.6908   0.6980   0.7135   0.7211   0.7291   0.7380
  0.7578   0.7734   0.7801   0.7847   0.7880   0.7901   0.7928   0.8036
  0.8076   0.8139   0.8328   0.8362   0.8654   0.8795   0.8811   0.8933
  0.8981   0.9077   0.9128   0.9257   0.9372   0.9410   0.9571   0.9701
  0.9830   0.9907   0.9923   0.9948   1.0022   1.0141   1.0194   1.0287
  1.0428   1.0680   1.0848   1.0976   1.1174   1.1256   1.1306   1.1514
  1.1722   1.1955   1.2034   1.2084   1.2117   1.2268   1.2395   1.2689
  1.2777   1.2859   1.2879   1.2986   1.3180   1.3392   1.3444   1.3541
  1.3736   1.3847   1.4078   1.4329   1.4503   1.5115   1.5147   1.5588
  1.6334   1.6694   1.6865   1.7016   1.7138   1.7164   1.7316   1.7532
  1.7565   1.7739   1.7876   1.8023   1.8209   1.8313   1.8474   1.8798
  1.8881   1.9011   1.9058   1.9142   1.9188   1.9367   1.9516   1.9764
  1.9819   2.0237   2.0305   2.0653   2.0887   2.0954   2.1044   2.1317
  2.1713   2.2121   2.2224   2.2510   2.3154   2.3448   2.3748   2.3850
  2.4271   2.4626   2.4894   2.5019   2.5120   2.5418   2.5744   2.5771
  2.6370   2.7168   2.7244   2.7474   2.7605   2.7773   2.7999   2.8178
  2.8223   2.8805   2.9191   2.9446   2.9476   2.9665   2.9683   2.9736
  2.9819   2.9914   3.0018   3.0137   3.0293   3.0401   3.0471   3.0514
  3.0661   3.0753   3.1056   3.1242   3.1335   3.1375   3.1539   3.1575
  3.1767   3.1984   3.2052   3.2174   3.2291   3.2907   3.2945   3.3015
  3.3286   3.3415   3.3564   3.3595   3.3904   3.4211   3.4364   3.4592
  3.4835   3.5127   3.5157   3.5283   3.5287   3.5645   3.5828   3.6237
  3.6369   3.6807   3.6926   3.7230   3.7461   3.7627   3.7719   3.7989
  3.8033   3.8158   3.8179   3.8392   3.8753   3.8977   3.9639   4.0003
  4.0394   4.0421   4.0484   4.0614   4.1099   4.1473   4.2016   4.2163
  4.2921   4.3044   4.3253   4.3736   4.3803   4.3870   4.3937   4.4352
  4.4850   4.6390   4.6582   4.7055   4.7357   4.7807   4.7962   4.8113
  4.9613   4.9842   4.9864   5.0636   5.0921   5.1021   5.1167   5.1203
  5.1775   5.1881   5.2024   5.2419   5.2459   5.2524   5.2545   5.2981
  5.3075   5.3247   5.3284   5.3527   5.4172   5.4766   5.5546   5.5811
  5.6216   5.6555   5.6818   5.7132   5.7143   5.7333   5.7743   5.8870
  5.9330   5.9392   5.9739   6.0699   6.0713   6.1563   6.1915   6.2544
  6.2631   6.3274   6.3301   6.4126   6.4159   6.4245   6.4289   6.4515
  6.4839   6.5224   6.5391   6.5436   6.5553   6.5781   6.6003   6.6188
  6.6672   6.7877   6.8587   6.8647   6.8815   6.9594   6.9798   7.0426
  7.0457   7.0529   7.0724   7.1003   7.2124   7.2332   7.2927   7.3238
  7.3348   7.4951   7.5982   7.6553   7.8738   7.8768  23.6663  23.6980
 24.0182  24.3346  44.0683  44.1534  44.3503  44.4055  44.4481
 --------------------------------------------------------------
 
          Ground-State Mulliken Net Atomic Charges

     Atom                 Charge (a.u.)
  ----------------------------------------
      1 O                    -0.303997
      2 C                     0.628792
      3 O                    -0.309830
      4 O                    -0.349469
      5 O                     0.021207
      6 C                     0.705233
      7 O                    -0.106705
      8 C                    -0.050381
      9 C                     0.175857
     10 H                     0.369836
     11 H                     0.062854
     12 H                     0.058914
     13 H                     0.048703
     14 H                     0.048987
  ----------------------------------------
  Sum of atomic charges =     1.000000

  Building new vdw surfaces
         Merz-Kollman RESP Net Atomic Charges

     Atom                 Charge (a.u.)
  ----------------------------------------
      1 O                    -0.390656
      2 C                     0.741578
      3 O                    -0.375662
      4 O                    -0.224130
      5 O                    -0.109114
      6 C                     0.791789
      7 O                    -0.211881
      8 C                    -0.240817
      9 C                    -0.261405
     10 H                     0.523096
     11 H                     0.183475
     12 H                     0.183886
     13 H                     0.194921
     14 H                     0.194921
  ----------------------------------------
  Sum of atomic charges =     1.000000

  Related Dipole Moment =    20.5943 (X -14.9905 Y 14.1161 Z  0.3848)

 -----------------------------------------------------------------
                    Cartesian Multipole Moments
 -----------------------------------------------------------------
    Charge (ESU x 10^10)
                 4.8032
    Dipole Moment (Debye)
         X     -14.9799      Y      14.1334      Z       0.3983
       Tot      20.5988
    Quadrupole Moments (Debye-Ang)
        XX     -11.5540     XY     -27.4623     YY     -23.2501
        XZ      -1.3989     YZ       1.0346     ZZ     -45.8943
    Octopole Moments (Debye-Ang^2)
       XXX    -332.8191    XXY     104.1854    XYY    -162.6143
       YYY     121.9862    XXZ       4.6122    XYZ      -3.0239
       YYZ       0.0576    XZZ     -57.9546    YZZ       2.5754
       ZZZ      -3.1638
    Hexadecapole Moments (Debye-Ang^3)
      XXXX   -1962.7943   XXXY     332.1583   XXYY    -454.4750
      XYYY     592.4534   YYYY   -1147.9981   XXXZ     -38.8090
      XXYZ      16.3386   XYYZ     -17.6557   YYYZ      17.7055
      XXZZ    -403.3256   XYZZ     223.9224   YYZZ    -216.5932
      XZZZ     -16.0625   YZZZ       6.5489   ZZZZ     -57.0713
 -----------------------------------------------------------------
 Calculating analytic gradient of the SCF energy
 Gradient of CDS energy
            1           2           3           4           5           6
    1  -0.0007190   0.0012293  -0.0006552  -0.0000301   0.0001020   0.0006277
    2  -0.0000336  -0.0002597   0.0002366   0.0004253  -0.0001167   0.0002403
    3  -0.0000555   0.0001121  -0.0000705   0.0000252   0.0000016  -0.0000399
            7           8           9          10          11          12
    1  -0.0003427  -0.0011172   0.0010986  -0.0003185   0.0001430   0.0001442
    2  -0.0006457  -0.0010589   0.0009578   0.0004128   0.0000450   0.0000430
    3  -0.0000279   0.0000017  -0.0000203   0.0000718   0.0002410  -0.0002405
           13          14
    1  -0.0000874  -0.0000747
    2  -0.0001165  -0.0001298
    3  -0.0002396   0.0002409
 Gradient of SCF Energy
            1           2           3           4           5           6
    1  -0.0060743  -0.0026588   0.0078575   0.0046917   0.1554791  -0.0490653
    2  -0.0317860  -0.0005159   0.0332094  -0.0072570  -0.0264289   0.0019278
    3   0.0010818   0.0002152  -0.0014190   0.0001190  -0.0181802   0.0043723
            7           8           9          10          11          12
    1  -0.0457445   0.0270416  -0.0122121  -0.0590374  -0.0178657  -0.0185703
    2   0.0671771   0.0195710  -0.0281387  -0.0435571  -0.0087032  -0.0071057
    3   0.0118617   0.0008949  -0.0003668   0.0017979  -0.0331642   0.0330139
           13          14
    1   0.0081030   0.0080554
    2   0.0160754   0.0155321
    3   0.0303458  -0.0305722
 Max gradient component =       1.555E-01
 RMS gradient           =       3.436E-02
 Computing fast CPCM-SWIG gradient
 Updating gradient with PCM contributions...
 -- total gradient after adding PCM contribution --
---------------------------------------------------
  Atom         X              Y              Z     
---------------------------------------------------
   1       0.000149       0.000352      -0.000019
   2      -0.000210      -0.000367       0.000017
   3       0.000089       0.000003      -0.000010
   4      -0.000007       0.000013       0.000001
   5      -0.000013       0.000004       0.000007
   6      -0.000003      -0.000002      -0.000001
   7      -0.000002      -0.000003       0.000001
   8      -0.000006      -0.000010       0.000009
   9       0.000033       0.000019       0.000008
  10      -0.000002      -0.000004       0.000001
  11       0.000002       0.000001       0.000001
  12       0.000004      -0.000001      -0.000010
  13      -0.000045       0.000004      -0.000013
  14       0.000011      -0.000010       0.000007
---------------------------------------------------
 Number of fixed atoms: 0
 Gradient time:  CPU 506.53 s  wall 25.97 s
 ----------------------------------------------------------------
             Standard Nuclear Orientation (Angstroms)
    I     Atom           X                Y                Z
 ----------------------------------------------------------------
    1      O       4.1702271795    -3.1562385377     0.1998843533
    2      C       4.3844203556    -2.0177777943     0.1553095852
    3      O       4.6330917865    -0.8856509879     0.1137096543
    4      O       1.6571532799    -1.2819956910    -0.1018112096
    5      O      -0.8400732524     2.5262831195    -0.1056926170
    6      C      -1.9286236660     2.7693813293     0.0269577646
    7      O      -3.0760478912     3.1491387622     0.1788238902
    8      C       0.3185675202    -0.7818118052    -0.1074051817
    9      C       1.4587592415     0.1323382909    -0.1080819702
   10      H      -3.7909336755     2.4486257367     0.1830546612
   11      H      -0.2291402043    -0.9543596430    -1.0305456289
   12      H      -0.2340220213    -0.9466492831     0.8142734138
   13      H       1.7397897322     0.6370621379     0.8130189506
   14      H       1.7450361406     0.6298288944    -1.0314956684
 ----------------------------------------------------------------
 Nuclear Repulsion Energy =         372.97990337 hartrees
 There are       34 alpha and       34 beta electrons
 Discretize the solute cavity surface with Lebedev spheres
	Using 110 Lebedev grid points for each H atom
	Using 194 Lebedev grid points for other atoms
	Atomic van der Waals radii will be scaled by 1.20
 Remove points where switching function is < 1.0e-08
 Keep 1143 surface tesserae and discard 1153 interior tesserae
 Molecular Surface Area = 241.514 Angst**2

                       Distance Matrix (Angstroms)
             O (  1)   C (  2)   O (  3)   O (  4)   O (  5)   C (  6)
   C (  2)  1.159292
   O (  3)  2.318887  1.159862
   O (  4)  3.149499  2.836454  3.009942
   O (  5)  7.582054  6.929065  6.453291  4.554025
   C (  6)  8.505225  7.923881  7.511518  5.411842  1.123225
   O (  7)  9.605557  9.075030  8.701414  6.489754  2.338478  1.218138
   C (  8)  4.535153  4.257674  4.321434  1.428995  3.505131  4.204628
   C (  9)  4.273364  3.640311  3.340940  1.428195  3.318977  4.294950
   H ( 10)  9.736266  9.315897  9.060155  6.609110  2.965971  1.896167
   H ( 11)  5.071160  4.880784  4.995532  2.127909  3.652871  4.227624
   H ( 12)  4.965599  4.786602  4.917653  2.127960  3.643473  4.159378
   H ( 13)  4.546657  3.804580  3.343484  2.127563  3.326993  4.315314
   H ( 14)  4.661776  3.922331  3.456738  2.127701  3.337131  4.381071
             O (  7)   C (  8)   C (  9)   H ( 10)   H ( 11)   H ( 12)
   C (  8)  5.201703
   C (  9)  5.454161  1.461406
   H ( 10)  1.000899  5.235274  5.745365
   H ( 11)  5.138692  1.087173  2.209266  5.073412
   H ( 12)  5.025573  1.087207  2.209177  4.957615  1.844842
   H ( 13)  5.468549  2.209130  1.087268  5.853847  3.131779  2.530628
   H ( 14)  5.572670  2.209408  1.087265  5.952320  2.531210  3.131903
             H ( 13)
   H ( 14)  1.844536
 
 Requested basis set is def2-TZVPPD
 There are 157 shells and 433 basis functions
 A cutoff of  1.0D-14 yielded  10211 shell pairs
 There are     76741 function pairs (     98027 Cartesian)
 Smallest overlap matrix eigenvalue = 5.67E-06
 Guess MOs from SCF MO coefficient file

 -----------------------------------------------------------------------
  General SCF calculation program by
  Eric Jon Sundstrom, Paul Horn, Yuezhi Mao, Dmitri Zuev, Alec White,
  David Stuck, Shaama M.S., Shane Yost, Joonho Lee, David Small,
  Daniel Levine, Susi Lehtola, Hugh Burton, Evgeny Epifanovsky,
  Bang C. Huynh
 -----------------------------------------------------------------------
 Exchange:     0.1670 Hartree-Fock + 1.0000 wB97X-V + LR-HF
 Correlation:  1.0000 wB97X-V
 Using SG-3 standard quadrature grid
 Nonlocal Correlation:  VV10 with C = 0.0100 and b = 6.00 and scale = 1.00000
 Grid used for NLC:  SG-1 standard quadrature
 
 Citation of the SMD model:
 Marenich, A.V.; Cramer, C.J.; Truhlar, D.G.
 J. Phys. Chem. B 2009, 113, 6378-6396.
 iSolventCode=           0
 Solvent: other                                                           
 
 vradii
            1           2           3           4           5           6
    1   2.2940000   1.8500000   2.2940000   2.2940000   2.2940000   1.8500000
            7           8           9          10          11          12
    1   2.2940000   1.8500000   1.8500000   1.2000000   1.2000000   1.2000000
           13          14
    1   1.2000000   1.2000000
 using 32 threads for integral computing
 -------------------------------------------------------
 OpenMP Integral computing Module                
 Release: version 1.0, May 2013, Q-Chem Inc. Pittsburgh 
 -------------------------------------------------------
 using 32 threads for integral computing
 -------------------------------------------------------
 OpenMP Integral computing Module                
 Release: version 1.0, May 2013, Q-Chem Inc. Pittsburgh 
 -------------------------------------------------------
 -------------------------------------------------------
 OpenMP BLAS3 based DFT computing Module                
 Release: version 1.0, May 2013, Q-Chem Inc. Pittsburgh 
 -------------------------------------------------------
 -------------------------------------------------------
 OpenMP BLAS3 based DFT computing Module                
 Release: version 1.0, May 2013, Q-Chem Inc. Pittsburgh 
 -------------------------------------------------------
 -------------------------------------------------------
 OpenMP BLAS3 based DFT computing Module                
 Release: version 1.0, May 2013, Q-Chem Inc. Pittsburgh 
 -------------------------------------------------------
 A restricted SCF calculation will be
 performed using Roothaan-Hall, DIIS
 SCF converges when DIIS error is below 1.0e-08
 ---------------------------------------
  Cycle       Energy         DIIS error
 ---------------------------------------
    1    -539.2733126931      2.90e-04  Roothaan Step
 ---------------------------------------
  Cycle       Energy         DIIS error
 ---------------------------------------
    1    -531.3351056227      4.09e-04  
    2    -531.3363435987      5.07e-04  
    3    -531.3402044764      5.02e-05  
    4    -531.3402683908      3.49e-05  
    5    -531.3402894377      1.49e-05  
    6    -531.3402944154      2.38e-06  
    7    -531.3402945782      1.52e-06  
    8    -531.3402946228      3.14e-07  
    9    -531.3402946262      1.69e-07  
   10    -531.3402946269      6.13e-08  
   11    -531.3402946270      1.93e-08  
   12    -531.3402946270      4.56e-09  Convergence criterion met
 ---------------------------------------
 SCF time:   CPU 2487.73s  wall 102.00s 
(3)  G-ENP(liq) elect-nuc-pol free energy of system     -531.340294627 a.u.
(4)  G-CDS(liq) cavity-dispersion-solvent structure 
     free energy                                               -2.3836 kcal/mol
(6)  G-S(liq) free energy of system                     -531.344093170 a.u.
 SCF   energy in the final basis set =     -531.3402946270
 Total energy in the final basis set =     -531.3440931698
 
 --------------------------------------------------------------
 
                    Orbital Energies (a.u.)
 --------------------------------------------------------------
 
 Alpha MOs
 -- Occupied --
-19.4651 -19.4362 -19.2885 -19.2882 -19.2354 -10.6099 -10.4549 -10.3228
-10.3220  -1.4473  -1.4062  -1.2909  -1.2467  -1.2136  -0.9396  -0.8107
 -0.7853  -0.7669  -0.7665  -0.7607  -0.6801  -0.6560  -0.6364  -0.6351
 -0.6335  -0.6317  -0.6242  -0.5954  -0.5092  -0.4900  -0.4758  -0.4749
 -0.4276  -0.3905
 -- Virtual --
 -0.0328  -0.0071   0.0021   0.0447   0.0630   0.0723   0.0794   0.0802
  0.0878   0.0949   0.1047   0.1088   0.1183   0.1203   0.1269   0.1289
  0.1322   0.1358   0.1378   0.1427   0.1527   0.1619   0.1689   0.1725
  0.1806   0.1826   0.1932   0.1999   0.2148   0.2223   0.2283   0.2378
  0.2417   0.2546   0.2559   0.2617   0.2670   0.2743   0.2838   0.2956
  0.3038   0.3061   0.3162   0.3190   0.3204   0.3278   0.3328   0.3387
  0.3441   0.3472   0.3656   0.3668   0.3712   0.3750   0.3821   0.3876
  0.3931   0.3966   0.4004   0.4056   0.4080   0.4129   0.4213   0.4288
  0.4347   0.4375   0.4427   0.4514   0.4600   0.4631   0.4646   0.4803
  0.4880   0.4927   0.4980   0.4995   0.5059   0.5136   0.5313   0.5347
  0.5391   0.5502   0.5524   0.5557   0.5689   0.5737   0.5823   0.5889
  0.5957   0.5994   0.6042   0.6048   0.6229   0.6301   0.6422   0.6592
  0.6717   0.6784   0.6909   0.6980   0.7135   0.7211   0.7292   0.7381
  0.7578   0.7734   0.7800   0.7847   0.7880   0.7901   0.7928   0.8036
  0.8076   0.8139   0.8328   0.8362   0.8654   0.8795   0.8811   0.8933
  0.8981   0.9077   0.9128   0.9257   0.9372   0.9410   0.9571   0.9702
  0.9830   0.9907   0.9922   0.9948   1.0022   1.0142   1.0194   1.0288
  1.0428   1.0680   1.0847   1.0975   1.1174   1.1257   1.1306   1.1515
  1.1722   1.1955   1.2034   1.2084   1.2117   1.2268   1.2395   1.2687
  1.2776   1.2858   1.2878   1.2986   1.3180   1.3392   1.3444   1.3541
  1.3736   1.3847   1.4078   1.4329   1.4504   1.5115   1.5148   1.5588
  1.6335   1.6694   1.6865   1.7016   1.7139   1.7164   1.7315   1.7532
  1.7565   1.7740   1.7876   1.8025   1.8209   1.8313   1.8473   1.8799
  1.8881   1.9011   1.9059   1.9142   1.9188   1.9366   1.9515   1.9763
  1.9819   2.0237   2.0303   2.0653   2.0886   2.0953   2.1044   2.1318
  2.1714   2.2121   2.2224   2.2510   2.3155   2.3448   2.3748   2.3850
  2.4272   2.4626   2.4891   2.5019   2.5120   2.5418   2.5744   2.5771
  2.6368   2.7168   2.7245   2.7475   2.7606   2.7773   2.7999   2.8178
  2.8223   2.8805   2.9191   2.9446   2.9477   2.9664   2.9683   2.9736
  2.9819   2.9914   3.0018   3.0137   3.0294   3.0399   3.0471   3.0509
  3.0659   3.0751   3.1056   3.1242   3.1336   3.1374   3.1539   3.1575
  3.1767   3.1984   3.2052   3.2173   3.2291   3.2907   3.2945   3.3015
  3.3286   3.3415   3.3564   3.3595   3.3904   3.4211   3.4362   3.4592
  3.4836   3.5127   3.5156   3.5281   3.5285   3.5645   3.5827   3.6238
  3.6369   3.6807   3.6927   3.7229   3.7461   3.7624   3.7719   3.7988
  3.8033   3.8157   3.8178   3.8391   3.8753   3.8977   3.9640   4.0002
  4.0394   4.0421   4.0483   4.0614   4.1099   4.1473   4.2016   4.2163
  4.2921   4.3044   4.3253   4.3736   4.3803   4.3870   4.3937   4.4352
  4.4850   4.6390   4.6582   4.7056   4.7357   4.7807   4.7962   4.8114
  4.9613   4.9842   4.9855   5.0636   5.0921   5.1021   5.1167   5.1203
  5.1775   5.1882   5.2024   5.2419   5.2459   5.2524   5.2545   5.2981
  5.3075   5.3245   5.3282   5.3535   5.4173   5.4766   5.5546   5.5811
  5.6216   5.6555   5.6818   5.7132   5.7143   5.7333   5.7743   5.8870
  5.9326   5.9389   5.9739   6.0699   6.0713   6.1556   6.1916   6.2536
  6.2619   6.3274   6.3301   6.4126   6.4159   6.4245   6.4290   6.4515
  6.4839   6.5224   6.5391   6.5436   6.5552   6.5781   6.6005   6.6188
  6.6671   6.7877   6.8587   6.8647   6.8815   6.9595   6.9798   7.0428
  7.0459   7.0529   7.0724   7.1001   7.2121   7.2328   7.2927   7.3238
  7.3348   7.4951   7.5976   7.6553   7.8738   7.8759  23.6663  23.6980
 24.0182  24.3329  44.0683  44.1529  44.3504  44.4055  44.4480
 --------------------------------------------------------------
 
          Ground-State Mulliken Net Atomic Charges

     Atom                 Charge (a.u.)
  ----------------------------------------
      1 O                    -0.304562
      2 C                     0.629313
      3 O                    -0.309767
      4 O                    -0.349356
      5 O                     0.021207
      6 C                     0.705232
      7 O                    -0.106706
      8 C                    -0.050461
      9 C                     0.175750
     10 H                     0.369836
     11 H                     0.062855
     12 H                     0.058902
     13 H                     0.048733
     14 H                     0.049023
  ----------------------------------------
  Sum of atomic charges =     1.000000

  Building new vdw surfaces
         Merz-Kollman RESP Net Atomic Charges

     Atom                 Charge (a.u.)
  ----------------------------------------
      1 O                    -0.390750
      2 C                     0.741363
      3 O                    -0.375425
      4 O                    -0.223888
      5 O                    -0.109114
      6 C                     0.791817
      7 O                    -0.211908
      8 C                    -0.241038
      9 C                    -0.261487
     10 H                     0.523106
     11 H                     0.183508
     12 H                     0.183932
     13 H                     0.194942
     14 H                     0.194942
  ----------------------------------------
  Sum of atomic charges =     1.000000

  Related Dipole Moment =    20.5926 (X -14.9866 Y 14.1177 Z  0.3847)

 -----------------------------------------------------------------
                    Cartesian Multipole Moments
 -----------------------------------------------------------------
    Charge (ESU x 10^10)
                 4.8032
    Dipole Moment (Debye)
         X     -14.9762      Y      14.1350      Z       0.3983
       Tot      20.5972
    Quadrupole Moments (Debye-Ang)
        XX     -11.5263     XY     -27.4648     YY     -23.2568
        XZ      -1.3986     YZ       1.0351     ZZ     -45.8954
    Octopole Moments (Debye-Ang^2)
       XXX    -332.6217    XXY     104.1386    XYY    -162.6049
       YYY     122.0111    XXZ       4.6160    XYZ      -3.0239
       YYZ       0.0562    XZZ     -57.9480    YZZ       2.5794
       ZZZ      -3.1644
    Hexadecapole Moments (Debye-Ang^3)
      XXXX   -1961.3818   XXXY     331.7183   XXYY    -454.2875
      XYYY     592.3845   YYYY   -1148.0956   XXXZ     -38.7773
      XXYZ      16.3314   XYYZ     -17.6544   YYYZ      17.7103
      XXZZ    -403.2532   XYZZ     223.9045   YYZZ    -216.6061
      XZZZ     -16.0589   YZZZ       6.5512   ZZZZ     -57.0739
 -----------------------------------------------------------------
 Calculating analytic gradient of the SCF energy
 Gradient of CDS energy
            1           2           3           4           5           6
    1  -0.0007212   0.0012310  -0.0006552  -0.0000296   0.0001020   0.0006277
    2  -0.0000333  -0.0002590   0.0002366   0.0004242  -0.0001167   0.0002403
    3  -0.0000557   0.0001121  -0.0000705   0.0000253   0.0000016  -0.0000399
            7           8           9          10          11          12
    1  -0.0003427  -0.0011172   0.0010986  -0.0003185   0.0001430   0.0001442
    2  -0.0006457  -0.0010589   0.0009578   0.0004128   0.0000450   0.0000430
    3  -0.0000279   0.0000017  -0.0000203   0.0000718   0.0002410  -0.0002405
           13          14
    1  -0.0000874  -0.0000747
    2  -0.0001165  -0.0001298
    3  -0.0002396   0.0002409
 Gradient of SCF Energy
            1           2           3           4           5           6
    1  -0.0064546  -0.0021463   0.0077149   0.0047005   0.1554767  -0.0490648
    2  -0.0325043   0.0000736   0.0333503  -0.0072690  -0.0264285   0.0019282
    3   0.0011083   0.0001921  -0.0014240   0.0001192  -0.0181799   0.0043721
            7           8           9          10          11          12
    1  -0.0457435   0.0270364  -0.0122088  -0.0590367  -0.0178636  -0.0185684
    2   0.0671762   0.0195725  -0.0281368  -0.0435564  -0.0087032  -0.0071053
    3   0.0118615   0.0008960  -0.0003664   0.0017979  -0.0331607   0.0330107
           13          14
    1   0.0081032   0.0080549
    2   0.0160730   0.0155299
    3   0.0303447  -0.0305715
 Max gradient component =       1.555E-01
 RMS gradient           =       3.438E-02
 Computing fast CPCM-SWIG gradient
 Updating gradient with PCM contributions...
 -- total gradient after adding PCM contribution --
---------------------------------------------------
  Atom         X              Y              Z     
---------------------------------------------------
   1      -0.000142      -0.000362       0.000008
   2       0.000188       0.000252      -0.000007
   3      -0.000027       0.000108      -0.000014
   4       0.000002       0.000004       0.000002
   5      -0.000013       0.000004       0.000007
   6      -0.000003      -0.000002      -0.000001
   7      -0.000002      -0.000003       0.000001
   8      -0.000009      -0.000010       0.000009
   9       0.000035       0.000019       0.000009
  10      -0.000002      -0.000004       0.000001
  11       0.000002       0.000001       0.000001
  12       0.000004      -0.000001      -0.000011
  13      -0.000045       0.000004      -0.000014
  14       0.000011      -0.000010       0.000008
---------------------------------------------------
 Number of fixed atoms: 0
 Gradient time:  CPU 543.97 s  wall 27.58 s
 ----------------------------------------------------------------
             Standard Nuclear Orientation (Angstroms)
    I     Atom           X                Y                Z
 ----------------------------------------------------------------
    1      O       4.1712271795    -3.1552385377     0.1998843533
    2      C       4.3844203556    -2.0177777943     0.1553095852
    3      O       4.6330917865    -0.8856509879     0.1137096543
    4      O       1.6571532799    -1.2819956910    -0.1018112096
    5      O      -0.8400732524     2.5262831195    -0.1056926170
    6      C      -1.9286236660     2.7693813293     0.0269577646
    7      O      -3.0760478912     3.1491387622     0.1788238902
    8      C       0.3185675202    -0.7818118052    -0.1074051817
    9      C       1.4587592415     0.1323382909    -0.1080819702
   10      H      -3.7909336755     2.4486257367     0.1830546612
   11      H      -0.2291402043    -0.9543596430    -1.0305456289
   12      H      -0.2340220213    -0.9466492831     0.8142734138
   13      H       1.7397897322     0.6370621379     0.8130189506
   14      H       1.7450361406     0.6298288944    -1.0314956684
 ----------------------------------------------------------------
 Nuclear Repulsion Energy =         373.00846025 hartrees
 There are       34 alpha and       34 beta electrons
 Discretize the solute cavity surface with Lebedev spheres
	Using 110 Lebedev grid points for each H atom
	Using 194 Lebedev grid points for other atoms
	Atomic van der Waals radii will be scaled by 1.20
 Remove points where switching function is < 1.0e-08
 Keep 1143 surface tesserae and discard 1153 interior tesserae
 Molecular Surface Area = 241.504 Angst**2

                       Distance Matrix (Angstroms)
             O (  1)   C (  2)   O (  3)   O (  4)   O (  5)   C (  6)
   C (  2)  1.158126
   O (  3)  2.317708  1.159862
   O (  4)  3.149703  2.836454  3.009942
   O (  5)  7.581965  6.929065  6.453291  4.554025
   C (  6)  8.505246  7.923881  7.511518  5.411842  1.123225
   O (  7)  9.605655  9.075030  8.701414  6.489754  2.338478  1.218138
   C (  8)  4.535479  4.257674  4.321434  1.428995  3.505131  4.204628
   C (  9)  4.273229  3.640311  3.340940  1.428195  3.318977  4.294950
   H ( 10)  9.736508  9.315897  9.060155  6.609110  2.965971  1.896167
   H ( 11)  5.071593  4.880784  4.995532  2.127909  3.652871  4.227624
   H ( 12)  4.966041  4.786602  4.917653  2.127960  3.643473  4.159378
   H ( 13)  4.546357  3.804580  3.343484  2.127563  3.326993  4.315314
   H ( 14)  4.661484  3.922331  3.456738  2.127701  3.337131  4.381071
             O (  7)   C (  8)   C (  9)   H ( 10)   H ( 11)   H ( 12)
   C (  8)  5.201703
   C (  9)  5.454161  1.461406
   H ( 10)  1.000899  5.235274  5.745365
   H ( 11)  5.138692  1.087173  2.209266  5.073412
   H ( 12)  5.025573  1.087207  2.209177  4.957615  1.844842
   H ( 13)  5.468549  2.209130  1.087268  5.853847  3.131779  2.530628
   H ( 14)  5.572670  2.209408  1.087265  5.952320  2.531210  3.131903
             H ( 13)
   H ( 14)  1.844536
 
 Requested basis set is def2-TZVPPD
 There are 157 shells and 433 basis functions
 A cutoff of  1.0D-14 yielded  10211 shell pairs
 There are     76741 function pairs (     98027 Cartesian)
 Smallest overlap matrix eigenvalue = 5.67E-06
 Guess MOs from SCF MO coefficient file

 -----------------------------------------------------------------------
  General SCF calculation program by
  Eric Jon Sundstrom, Paul Horn, Yuezhi Mao, Dmitri Zuev, Alec White,
  David Stuck, Shaama M.S., Shane Yost, Joonho Lee, David Small,
  Daniel Levine, Susi Lehtola, Hugh Burton, Evgeny Epifanovsky,
  Bang C. Huynh
 -----------------------------------------------------------------------
 Exchange:     0.1670 Hartree-Fock + 1.0000 wB97X-V + LR-HF
 Correlation:  1.0000 wB97X-V
 Using SG-3 standard quadrature grid
 Nonlocal Correlation:  VV10 with C = 0.0100 and b = 6.00 and scale = 1.00000
 Grid used for NLC:  SG-1 standard quadrature
 
 Citation of the SMD model:
 Marenich, A.V.; Cramer, C.J.; Truhlar, D.G.
 J. Phys. Chem. B 2009, 113, 6378-6396.
 iSolventCode=           0
 Solvent: other                                                           
 
 vradii
            1           2           3           4           5           6
    1   2.2940000   1.8500000   2.2940000   2.2940000   2.2940000   1.8500000
            7           8           9          10          11          12
    1   2.2940000   1.8500000   1.8500000   1.2000000   1.2000000   1.2000000
           13          14
    1   1.2000000   1.2000000
 using 32 threads for integral computing
 -------------------------------------------------------
 OpenMP Integral computing Module                
 Release: version 1.0, May 2013, Q-Chem Inc. Pittsburgh 
 -------------------------------------------------------
 using 32 threads for integral computing
 -------------------------------------------------------
 OpenMP Integral computing Module                
 Release: version 1.0, May 2013, Q-Chem Inc. Pittsburgh 
 -------------------------------------------------------
 -------------------------------------------------------
 OpenMP BLAS3 based DFT computing Module                
 Release: version 1.0, May 2013, Q-Chem Inc. Pittsburgh 
 -------------------------------------------------------
 -------------------------------------------------------
 OpenMP BLAS3 based DFT computing Module                
 Release: version 1.0, May 2013, Q-Chem Inc. Pittsburgh 
 -------------------------------------------------------
 -------------------------------------------------------
 OpenMP BLAS3 based DFT computing Module                
 Release: version 1.0, May 2013, Q-Chem Inc. Pittsburgh 
 -------------------------------------------------------
 A restricted SCF calculation will be
 performed using Roothaan-Hall, DIIS
 SCF converges when DIIS error is below 1.0e-08
 ---------------------------------------
  Cycle       Energy         DIIS error
 ---------------------------------------
    1    -539.2732960674      2.90e-04  Roothaan Step
 ---------------------------------------
  Cycle       Energy         DIIS error
 ---------------------------------------
    1    -531.3351098180      4.08e-04  
    2    -531.3363576766      5.06e-04  
    3    -531.3402014840      5.02e-05  
    4    -531.3402654001      3.47e-05  
    5    -531.3402863125      1.50e-05  
    6    -531.3402912929      2.38e-06  
    7    -531.3402914559      1.51e-06  
    8    -531.3402915001      3.11e-07  
    9    -531.3402915035      1.63e-07  
   10    -531.3402915042      6.21e-08  
   11    -531.3402915043      1.94e-08  
   12    -531.3402915043      4.59e-09  Convergence criterion met
 ---------------------------------------
 SCF time:   CPU 2532.15s  wall 103.00s 
(3)  G-ENP(liq) elect-nuc-pol free energy of system     -531.340291504 a.u.
(4)  G-CDS(liq) cavity-dispersion-solvent structure 
     free energy                                               -2.3845 kcal/mol
(6)  G-S(liq) free energy of system                     -531.344091469 a.u.
 SCF   energy in the final basis set =     -531.3402915043
 Total energy in the final basis set =     -531.3440914685
 
 --------------------------------------------------------------
 
                    Orbital Energies (a.u.)
 --------------------------------------------------------------
 
 Alpha MOs
 -- Occupied --
-19.4651 -19.4362 -19.2882 -19.2882 -19.2354 -10.6099 -10.4546 -10.3228
-10.3220  -1.4473  -1.4062  -1.2911  -1.2470  -1.2136  -0.9396  -0.8107
 -0.7853  -0.7669  -0.7665  -0.7607  -0.6800  -0.6560  -0.6365  -0.6352
 -0.6336  -0.6319  -0.6242  -0.5954  -0.5092  -0.4900  -0.4758  -0.4749
 -0.4276  -0.3905
 -- Virtual --
 -0.0328  -0.0071   0.0021   0.0447   0.0630   0.0723   0.0794   0.0802
  0.0878   0.0949   0.1047   0.1088   0.1183   0.1203   0.1269   0.1289
  0.1324   0.1360   0.1379   0.1427   0.1527   0.1619   0.1689   0.1725
  0.1806   0.1827   0.1932   0.1999   0.2148   0.2223   0.2283   0.2378
  0.2417   0.2546   0.2559   0.2617   0.2670   0.2743   0.2838   0.2956
  0.3038   0.3061   0.3162   0.3190   0.3204   0.3278   0.3328   0.3388
  0.3441   0.3472   0.3656   0.3668   0.3712   0.3750   0.3821   0.3876
  0.3931   0.3966   0.4004   0.4057   0.4080   0.4129   0.4213   0.4288
  0.4347   0.4375   0.4427   0.4515   0.4600   0.4631   0.4646   0.4803
  0.4880   0.4927   0.4980   0.4995   0.5059   0.5137   0.5313   0.5347
  0.5391   0.5502   0.5524   0.5557   0.5689   0.5737   0.5823   0.5889
  0.5958   0.5994   0.6042   0.6048   0.6230   0.6301   0.6422   0.6592
  0.6717   0.6783   0.6908   0.6980   0.7135   0.7211   0.7292   0.7381
  0.7578   0.7734   0.7801   0.7847   0.7880   0.7902   0.7928   0.8036
  0.8076   0.8139   0.8328   0.8362   0.8654   0.8795   0.8811   0.8933
  0.8981   0.9078   0.9128   0.9257   0.9372   0.9409   0.9571   0.9701
  0.9830   0.9907   0.9922   0.9949   1.0022   1.0142   1.0195   1.0288
  1.0429   1.0681   1.0852   1.0981   1.1174   1.1257   1.1306   1.1515
  1.1723   1.1956   1.2035   1.2084   1.2118   1.2268   1.2396   1.2689
  1.2780   1.2860   1.2880   1.2986   1.3180   1.3393   1.3445   1.3541
  1.3736   1.3847   1.4078   1.4329   1.4504   1.5115   1.5148   1.5588
  1.6335   1.6694   1.6865   1.7016   1.7138   1.7164   1.7317   1.7532
  1.7565   1.7740   1.7876   1.8025   1.8209   1.8313   1.8473   1.8799
  1.8885   1.9011   1.9057   1.9142   1.9187   1.9366   1.9517   1.9764
  1.9819   2.0238   2.0308   2.0653   2.0888   2.0956   2.1045   2.1318
  2.1709   2.2121   2.2224   2.2510   2.3155   2.3448   2.3748   2.3850
  2.4272   2.4626   2.4896   2.5020   2.5120   2.5419   2.5744   2.5771
  2.6379   2.7168   2.7245   2.7475   2.7606   2.7773   2.7999   2.8178
  2.8223   2.8805   2.9191   2.9446   2.9477   2.9666   2.9684   2.9736
  2.9819   2.9914   3.0018   3.0137   3.0299   3.0404   3.0472   3.0515
  3.0661   3.0754   3.1057   3.1242   3.1336   3.1375   3.1539   3.1575
  3.1768   3.1984   3.2052   3.2174   3.2291   3.2907   3.2945   3.3015
  3.3286   3.3415   3.3565   3.3597   3.3904   3.4211   3.4365   3.4593
  3.4836   3.5128   3.5159   3.5283   3.5294   3.5646   3.5834   3.6238
  3.6369   3.6807   3.6927   3.7230   3.7461   3.7628   3.7719   3.7998
  3.8033   3.8161   3.8181   3.8393   3.8753   3.8977   3.9640   4.0002
  4.0394   4.0421   4.0484   4.0615   4.1099   4.1473   4.2016   4.2163
  4.2921   4.3044   4.3254   4.3736   4.3803   4.3870   4.3937   4.4352
  4.4850   4.6390   4.6582   4.7056   4.7357   4.7807   4.7962   4.8114
  4.9613   4.9842   4.9888   5.0637   5.0921   5.1021   5.1167   5.1203
  5.1774   5.1881   5.2024   5.2419   5.2461   5.2525   5.2546   5.2981
  5.3076   5.3250   5.3286   5.3524   5.4172   5.4766   5.5546   5.5811
  5.6216   5.6555   5.6818   5.7132   5.7143   5.7333   5.7743   5.8870
  5.9341   5.9404   5.9739   6.0699   6.0713   6.1582   6.1916   6.2562
  6.2646   6.3274   6.3301   6.4126   6.4159   6.4245   6.4290   6.4515
  6.4839   6.5225   6.5393   6.5436   6.5555   6.5783   6.5998   6.6188
  6.6670   6.7877   6.8587   6.8647   6.8815   6.9593   6.9798   7.0428
  7.0465   7.0529   7.0724   7.0998   7.2133   7.2341   7.2927   7.3238
  7.3348   7.4951   7.5995   7.6554   7.8738   7.8787  23.6663  23.6980
 24.0182  24.3391  44.0683  44.1549  44.3503  44.4055  44.4483
 --------------------------------------------------------------
 
          Ground-State Mulliken Net Atomic Charges

     Atom                 Charge (a.u.)
  ----------------------------------------
      1 O                    -0.302689
      2 C                     0.627818
      3 O                    -0.310144
      4 O                    -0.349374
      5 O                     0.021208
      6 C                     0.705233
      7 O                    -0.106706
      8 C                    -0.050456
      9 C                     0.175854
     10 H                     0.369836
     11 H                     0.062855
     12 H                     0.058901
     13 H                     0.048684
     14 H                     0.048981
  ----------------------------------------
  Sum of atomic charges =     1.000000

  Building new vdw surfaces
         Merz-Kollman RESP Net Atomic Charges

     Atom                 Charge (a.u.)
  ----------------------------------------
      1 O                    -0.390579
      2 C                     0.742183
      3 O                    -0.376374
      4 O                    -0.224002
      5 O                    -0.109117
      6 C                     0.791806
      7 O                    -0.211895
      8 C                    -0.240964
      9 C                    -0.261443
     10 H                     0.523101
     11 H                     0.183494
     12 H                     0.183914
     13 H                     0.194938
     14 H                     0.194938
  ----------------------------------------
  Sum of atomic charges =     1.000000

  Related Dipole Moment =    20.5893 (X -14.9894 Y 14.1098 Z  0.3850)

 -----------------------------------------------------------------
                    Cartesian Multipole Moments
 -----------------------------------------------------------------
    Charge (ESU x 10^10)
                 4.8032
    Dipole Moment (Debye)
         X     -14.9789      Y      14.1272      Z       0.3985
       Tot      20.5938
    Quadrupole Moments (Debye-Ang)
        XX     -11.5466     XY     -27.4929     YY     -23.2229
        XZ      -1.3979     YZ       1.0334     ZZ     -45.8923
    Octopole Moments (Debye-Ang^2)
       XXX    -332.7522    XXY     104.0243    XYY    -162.4783
       YYY     121.8635    XXZ       4.6176    XYZ      -3.0300
       YYZ       0.0626    XZZ     -57.9405    YZZ       2.5612
       ZZZ      -3.1622
    Hexadecapole Moments (Debye-Ang^3)
      XXXX   -1962.2222   XXXY     331.2380   XXYY    -453.7535
      XYYY     591.8379   YYYY   -1147.3984   XXXZ     -38.7756
      XXYZ      16.3057   XYYZ     -17.6306   YYYZ      17.6835
      XXZZ    -403.2453   XYZZ     223.8454   YYZZ    -216.5306
      XZZZ     -16.0530   YZZZ       6.5405   ZZZZ     -57.0674
 -----------------------------------------------------------------
 Calculating analytic gradient of the SCF energy
 Gradient of CDS energy
            1           2           3           4           5           6
    1  -0.0007203   0.0012302  -0.0006552  -0.0000297   0.0001020   0.0006277
    2  -0.0000296  -0.0002631   0.0002366   0.0004246  -0.0001167   0.0002403
    3  -0.0000558   0.0001123  -0.0000705   0.0000253   0.0000016  -0.0000399
            7           8           9          10          11          12
    1  -0.0003427  -0.0011172   0.0010986  -0.0003185   0.0001430   0.0001442
    2  -0.0006457  -0.0010589   0.0009578   0.0004128   0.0000450   0.0000430
    3  -0.0000279   0.0000017  -0.0000203   0.0000718   0.0002410  -0.0002405
           13          14
    1  -0.0000874  -0.0000747
    2  -0.0001165  -0.0001298
    3  -0.0002396   0.0002409
 Gradient of SCF Energy
            1           2           3           4           5           6
    1  -0.0059080  -0.0026967   0.0077232   0.0046995   0.1554729  -0.0490636
    2  -0.0301752  -0.0019521   0.0330374  -0.0072630  -0.0264279   0.0019276
    3   0.0010234   0.0002628  -0.0014090   0.0001190  -0.0181795   0.0043720
            7           8           9          10          11          12
    1  -0.0457421   0.0270402  -0.0122118  -0.0590364  -0.0178636  -0.0185685
    2   0.0671756   0.0195674  -0.0281243  -0.0435564  -0.0087027  -0.0071052
    3   0.0118613   0.0008957  -0.0003676   0.0017979  -0.0331617   0.0330117
           13          14
    1   0.0081011   0.0080538
    2   0.0160709   0.0155278
    3   0.0303391  -0.0305649
 Max gradient component =       1.555E-01
 RMS gradient           =       3.432E-02
 Computing fast CPCM-SWIG gradient
 Updating gradient with PCM contributions...
 -- total gradient after adding PCM contribution --
---------------------------------------------------
  Atom         X              Y              Z     
---------------------------------------------------
   1       0.000362       0.001945      -0.000079
   2      -0.000316      -0.001813       0.000068
   3      -0.000024      -0.000141      -0.000002
   4      -0.000000       0.000008       0.000001
   5      -0.000013       0.000004       0.000007
   6      -0.000003      -0.000002      -0.000001
   7      -0.000002      -0.000003       0.000001
   8      -0.000007      -0.000010       0.000009
   9       0.000033       0.000021       0.000008
  10      -0.000002      -0.000004       0.000001
  11       0.000003       0.000001       0.000001
  12       0.000004      -0.000001      -0.000011
  13      -0.000045       0.000004      -0.000013
  14       0.000010      -0.000010       0.000007
---------------------------------------------------
 Number of fixed atoms: 0
 Gradient time:  CPU 510.74 s  wall 26.32 s
 ----------------------------------------------------------------
             Standard Nuclear Orientation (Angstroms)
    I     Atom           X                Y                Z
 ----------------------------------------------------------------
    1      O       4.1712271795    -3.1572385377     0.1998843533
    2      C       4.3844203556    -2.0177777943     0.1553095852
    3      O       4.6330917865    -0.8856509879     0.1137096543
    4      O       1.6571532799    -1.2819956910    -0.1018112096
    5      O      -0.8400732524     2.5262831195    -0.1056926170
    6      C      -1.9286236660     2.7693813293     0.0269577646
    7      O      -3.0760478912     3.1491387622     0.1788238902
    8      C       0.3185675202    -0.7818118052    -0.1074051817
    9      C       1.4587592415     0.1323382909    -0.1080819702
   10      H      -3.7909336755     2.4486257367     0.1830546612
   11      H      -0.2291402043    -0.9543596430    -1.0305456289
   12      H      -0.2340220213    -0.9466492831     0.8142734138
   13      H       1.7397897322     0.6370621379     0.8130189506
   14      H       1.7450361406     0.6298288944    -1.0314956684
 ----------------------------------------------------------------
 Nuclear Repulsion Energy =         372.94863337 hartrees
 There are       34 alpha and       34 beta electrons
 Discretize the solute cavity surface with Lebedev spheres
	Using 110 Lebedev grid points for each H atom
	Using 194 Lebedev grid points for other atoms
	Atomic van der Waals radii will be scaled by 1.20
 Remove points where switching function is < 1.0e-08
 Keep 1143 surface tesserae and discard 1153 interior tesserae
 Molecular Surface Area = 241.536 Angst**2

                       Distance Matrix (Angstroms)
             O (  1)   C (  2)   O (  3)   O (  4)   O (  5)   C (  6)
   C (  2)  1.160090
   O (  3)  2.319667  1.159862
   O (  4)  3.150892  2.836454  3.009942
   O (  5)  7.583464  6.929065  6.453291  4.554025
   C (  6)  8.506639  7.923881  7.511518  5.411842  1.123225
   O (  7)  9.606968  9.075030  8.701414  6.489754  2.338478  1.218138
   C (  8)  4.536526  4.257674  4.321434  1.428995  3.505131  4.204628
   C (  9)  4.274768  3.640311  3.340940  1.428195  3.318977  4.294950
   H ( 10)  9.737659  9.315897  9.060155  6.609110  2.965971  1.896167
   H ( 11)  5.072462  4.880784  4.995532  2.127909  3.652871  4.227624
   H ( 12)  4.966931  4.786602  4.917653  2.127960  3.643473  4.159378
   H ( 13)  4.548026  3.804580  3.343484  2.127563  3.326993  4.315314
   H ( 14)  4.663108  3.922331  3.456738  2.127701  3.337131  4.381071
             O (  7)   C (  8)   C (  9)   H ( 10)   H ( 11)   H ( 12)
   C (  8)  5.201703
   C (  9)  5.454161  1.461406
   H ( 10)  1.000899  5.235274  5.745365
   H ( 11)  5.138692  1.087173  2.209266  5.073412
   H ( 12)  5.025573  1.087207  2.209177  4.957615  1.844842
   H ( 13)  5.468549  2.209130  1.087268  5.853847  3.131779  2.530628
   H ( 14)  5.572670  2.209408  1.087265  5.952320  2.531210  3.131903
             H ( 13)
   H ( 14)  1.844536
 
 Requested basis set is def2-TZVPPD
 There are 157 shells and 433 basis functions
 A cutoff of  1.0D-14 yielded  10211 shell pairs
 There are     76741 function pairs (     98027 Cartesian)
 Smallest overlap matrix eigenvalue = 5.67E-06
 Guess MOs from SCF MO coefficient file

 -----------------------------------------------------------------------
  General SCF calculation program by
  Eric Jon Sundstrom, Paul Horn, Yuezhi Mao, Dmitri Zuev, Alec White,
  David Stuck, Shaama M.S., Shane Yost, Joonho Lee, David Small,
  Daniel Levine, Susi Lehtola, Hugh Burton, Evgeny Epifanovsky,
  Bang C. Huynh
 -----------------------------------------------------------------------
 Exchange:     0.1670 Hartree-Fock + 1.0000 wB97X-V + LR-HF
 Correlation:  1.0000 wB97X-V
 Using SG-3 standard quadrature grid
 Nonlocal Correlation:  VV10 with C = 0.0100 and b = 6.00 and scale = 1.00000
 Grid used for NLC:  SG-1 standard quadrature
 
 Citation of the SMD model:
 Marenich, A.V.; Cramer, C.J.; Truhlar, D.G.
 J. Phys. Chem. B 2009, 113, 6378-6396.
 iSolventCode=           0
 Solvent: other                                                           
 
 vradii
            1           2           3           4           5           6
    1   2.2940000   1.8500000   2.2940000   2.2940000   2.2940000   1.8500000
            7           8           9          10          11          12
    1   2.2940000   1.8500000   1.8500000   1.2000000   1.2000000   1.2000000
           13          14
    1   1.2000000   1.2000000
 using 32 threads for integral computing
 -------------------------------------------------------
 OpenMP Integral computing Module                
 Release: version 1.0, May 2013, Q-Chem Inc. Pittsburgh 
 -------------------------------------------------------
 using 32 threads for integral computing
[...]
 Red. Mass:       6.6454                 8.2633                11.9331
 IR Active:          YES                    YES                    YES
 IR Intens:        5.630                  4.155                  1.099
 Raman Active:       YES                    YES                    YES
               X      Y      Z        X      Y      Z        X      Y      Z
 O          0.159 -0.054  0.030    0.287 -0.119  0.023   -0.377  0.227 -0.053
 C          0.098 -0.046 -0.056    0.239 -0.109  0.056    0.123  0.131 -0.004
 O          0.028 -0.034 -0.143    0.167 -0.093  0.087    0.605  0.031  0.043
 O         -0.132  0.002 -0.056   -0.257  0.125 -0.097   -0.213 -0.181  0.097
 O          0.026 -0.025  0.379   -0.029 -0.098 -0.208    0.026 -0.020  0.068
 C         -0.011 -0.002  0.030    0.007 -0.036 -0.025    0.023 -0.010  0.018
 O         -0.049  0.026 -0.332    0.053  0.029  0.163    0.020  0.001 -0.033
 C         -0.093  0.113  0.148   -0.245  0.165 -0.041   -0.154 -0.018 -0.053
 C         -0.017  0.018  0.051   -0.219  0.131  0.023   -0.047 -0.155 -0.082
 H         -0.073  0.048 -0.605    0.019  0.065  0.321    0.010  0.010 -0.086
 H         -0.229  0.212  0.210   -0.261  0.260 -0.049   -0.109 -0.059 -0.072
 H          0.015  0.108  0.211   -0.241  0.105 -0.048   -0.239  0.154 -0.073
 H          0.135 -0.051  0.043   -0.200  0.051  0.062   -0.031 -0.094 -0.120
 H         -0.096  0.048  0.043   -0.217  0.202  0.062    0.074 -0.296 -0.120
 TransDip   0.007  0.016 -0.074    0.027  0.001  0.059    0.020 -0.002 -0.027

 Mode:                10                     11                     12
 Frequency:       137.80                 163.31                 542.09
 Force Cnst:      0.0132                 0.0611                 0.6948
 Red. Mass:       1.1778                 3.8889                 4.0128
 IR Active:          YES                    YES                    YES
 IR Intens:      252.771                  7.359                 51.883
 Raman Active:       YES                    YES                    YES
               X      Y      Z        X      Y      Z        X      Y      Z
 O         -0.002 -0.001 -0.007    0.029 -0.014  0.001   -0.000  0.000  0.000
 C         -0.001 -0.000  0.001   -0.000 -0.008 -0.002    0.000  0.000 -0.000
 O          0.001 -0.000  0.009   -0.026 -0.003 -0.007   -0.000  0.000 -0.000
 O         -0.000 -0.001 -0.009    0.048  0.132  0.218   -0.000  0.001  0.001
 O          0.001  0.002  0.016    0.062 -0.051  0.113   -0.036 -0.195 -0.013
 C          0.003 -0.003  0.038    0.060 -0.031  0.047    0.111  0.433  0.028
 O         -0.012  0.008 -0.097    0.059 -0.004 -0.040   -0.077 -0.087 -0.000
 C          0.001  0.002 -0.007   -0.040 -0.120 -0.145   -0.000 -0.001 -0.000
 C          0.004 -0.001  0.004   -0.208  0.097 -0.195   -0.001  0.000 -0.001
 H          0.099 -0.099  0.984    0.046  0.009 -0.046    0.497 -0.697 -0.117
 H          0.002  0.013 -0.009    0.158 -0.461 -0.199    0.001 -0.002 -0.001
 H         -0.001 -0.006 -0.009   -0.177  0.018 -0.203   -0.001 -0.001 -0.001
 H          0.003 -0.010  0.010   -0.351  0.322 -0.280    0.003 -0.001 -0.001
 H          0.006  0.007  0.010   -0.154 -0.095 -0.283   -0.001 -0.000 -0.001
 TransDip   0.052 -0.049  0.504   -0.006 -0.039 -0.077    0.225  0.049 -0.019

 Mode:                13                     14                     15
 Frequency:       592.59                 670.75                 679.77
 Force Cnst:      1.7874                 3.4207                 3.5036
 Red. Mass:       8.6392                12.9047                12.8687
 IR Active:          YES                    YES                    YES
 IR Intens:       22.146                 74.437                 43.103
 Raman Active:       YES                    YES                    YES
               X      Y      Z        X      Y      Z        X      Y      Z
 O         -0.000 -0.000  0.000   -0.333  0.049 -0.019    0.016 -0.016 -0.329
 C          0.000 -0.000 -0.000    0.860 -0.173  0.050   -0.043  0.042  0.882
 O         -0.000 -0.000  0.000   -0.327  0.083 -0.020    0.016 -0.015 -0.329
 O          0.000 -0.002 -0.003    0.000  0.013  0.001    0.000  0.000 -0.003
 O         -0.029  0.027 -0.288   -0.000  0.000  0.000    0.000  0.000 -0.000
 C          0.072 -0.064  0.713   -0.000 -0.000 -0.000    0.000 -0.000  0.000
 O         -0.023  0.020 -0.211   -0.000  0.000  0.000    0.000  0.000 -0.000
 C          0.000  0.002  0.002    0.009 -0.015  0.000    0.000 -0.000 -0.001
 C          0.003 -0.002  0.003    0.009 -0.004 -0.000    0.000 -0.000  0.000
 H         -0.055  0.049 -0.589    0.000 -0.000 -0.000    0.000 -0.000  0.000
 H         -0.006  0.004  0.006    0.002 -0.010  0.002    0.002 -0.002 -0.002
 H          0.007  0.004  0.006    0.004 -0.014 -0.001   -0.002  0.002 -0.002
 H         -0.018  0.008  0.004    0.007  0.005 -0.003   -0.003 -0.003  0.003
 H          0.006  0.000  0.005    0.000  0.004 -0.000    0.004  0.003  0.003
 TransDip   0.016 -0.013  0.149    0.265 -0.076  0.015   -0.009  0.009  0.210

 Mode:                16                     17                     18
 Frequency:       821.36                 891.99                 922.80
 Force Cnst:      0.4077                 4.3932                 1.7870
 Red. Mass:       1.0256                 9.3717                 3.5616
 IR Active:          YES                    YES                    YES
 IR Intens:        1.892                 21.604                141.698
 Raman Active:       YES                    YES                    YES
               X      Y      Z        X      Y      Z        X      Y      Z
 O         -0.000  0.000  0.000    0.000  0.000  0.000    0.003  0.000  0.000
 C          0.000 -0.000 -0.000    0.001  0.001  0.000   -0.007  0.001 -0.000
 O         -0.000  0.000  0.000   -0.000 -0.001  0.000    0.005 -0.001  0.000
 O         -0.006  0.005 -0.021   -0.310 -0.285 -0.002   -0.210  0.226 -0.006
 O          0.000 -0.001  0.002   -0.000  0.000 -0.001    0.001  0.001 -0.002
 C          0.001  0.000 -0.001   -0.000  0.000  0.000   -0.000 -0.002  0.000
 O          0.001 -0.000  0.000   -0.000  0.000 -0.000   -0.004  0.003  0.000
 C          0.002 -0.010 -0.019    0.476 -0.180  0.007   -0.023 -0.221  0.007
 C         -0.002  0.009 -0.019   -0.113  0.498  0.004    0.230  0.005  0.009
 H          0.002 -0.001  0.001   -0.000 -0.000 -0.000    0.006 -0.006 -0.002
 H         -0.206 -0.440  0.192    0.254  0.180  0.045    0.016 -0.377 -0.001
 H          0.206  0.414  0.188    0.236  0.059 -0.070    0.013 -0.539 -0.016
 H         -0.390 -0.158  0.197    0.068  0.292  0.034    0.408  0.003 -0.030
 H          0.453  0.131  0.196    0.046  0.202 -0.079    0.427 -0.140 -0.021
 TransDip   0.018 -0.013  0.038    0.100  0.110  0.000    0.254 -0.284  0.003

 Mode:                19                     20                     21
 Frequency:      1043.43                1082.23                1171.94
 Force Cnst:      0.9101                 0.7330                 1.1748
 Red. Mass:       1.4188                 1.0622                 1.4518
 IR Active:          YES                    YES                    YES
 IR Intens:      326.347                  0.569                  1.660
 Raman Active:       YES                    YES                    YES
               X      Y      Z        X      Y      Z        X      Y      Z
 O          0.000 -0.000  0.000    0.000 -0.000  0.000    0.001  0.000 -0.000
 C         -0.000  0.000 -0.000   -0.000  0.000 -0.000   -0.002  0.000  0.000
 O          0.000 -0.000 -0.000    0.000 -0.000  0.000    0.001 -0.000 -0.000
 O          0.001 -0.001  0.000   -0.021  0.006 -0.015   -0.037  0.067  0.032
 O          0.010  0.019  0.001    0.001  0.000 -0.002   -0.000  0.000  0.000
 C         -0.016 -0.123 -0.010   -0.000  0.000  0.000    0.000  0.000 -0.000
 O         -0.042  0.116  0.015   -0.003  0.000  0.000    0.000 -0.000  0.000
 C          0.000  0.001  0.000    0.012 -0.006  0.046    0.063 -0.094 -0.097
 C         -0.001  0.000 -0.000    0.035 -0.013 -0.017    0.034 -0.076  0.041
 H          0.696 -0.682 -0.137   -0.005  0.003  0.001   -0.000  0.000 -0.000
 H          0.001  0.001 -0.000    0.400 -0.383 -0.110   -0.337  0.385  0.047
 H         -0.001  0.004  0.000   -0.368  0.365 -0.111    0.298  0.547  0.150
 H         -0.001 -0.001  0.000    0.163 -0.255  0.077   -0.006 -0.015  0.016
 H         -0.003  0.002  0.000   -0.384  0.382  0.063   -0.530  0.047 -0.064
 TransDip   0.452 -0.352 -0.080    0.011 -0.012  0.018    0.021 -0.010 -0.034

 Mode:                22                     23                     24
 Frequency:      1174.25                1179.65                1250.98
 Force Cnst:      1.1330                 1.0530                 1.2284
 Red. Mass:       1.3946                 1.2843                 1.3323
 IR Active:          YES                    YES                    YES
 IR Intens:        1.098                  5.281                  3.625
 Raman Active:       YES                    YES                    YES
               X      Y      Z        X      Y      Z        X      Y      Z
 O          0.000  0.000 -0.000    0.000  0.000  0.000   -0.000 -0.000 -0.000
 C         -0.001  0.000 -0.000   -0.000 -0.000 -0.000    0.001 -0.000  0.000
 O          0.000 -0.000  0.000    0.000  0.000  0.000   -0.000  0.000 -0.000
 O         -0.010  0.035  0.031    0.023  0.036 -0.065    0.057 -0.024  0.040
 O         -0.000  0.000  0.000    0.000  0.000  0.000    0.028 -0.006 -0.007
 C          0.000  0.000 -0.000    0.000 -0.000  0.000    0.007 -0.002 -0.001
 O          0.000 -0.000 -0.000    0.000 -0.000 -0.000   -0.035  0.008  0.004
 C          0.027 -0.055  0.086    0.006 -0.082  0.060   -0.069 -0.054 -0.045
 C          0.001 -0.033 -0.141   -0.060 -0.006  0.052   -0.057  0.075 -0.020
 H          0.000 -0.000 -0.000    0.000 -0.000  0.000   -0.046  0.018  0.006
 H          0.101  0.658 -0.090    0.201  0.224 -0.106   -0.315  0.106  0.058
 H         -0.155 -0.113 -0.034   -0.384  0.551 -0.053   -0.023  0.111  0.015
 H         -0.357 -0.384  0.151    0.083  0.178 -0.087    0.766 -0.353 -0.027
 H          0.235  0.330  0.122    0.369 -0.484 -0.064    0.242  0.231  0.143
 TransDip   0.012 -0.001 -0.031    0.016  0.009  0.071    0.011  0.036 -0.048

 Mode:                25                     26                     27
 Frequency:      1289.82                1337.63                1392.54
 Force Cnst:      7.1201                 2.1244                18.2702
 Red. Mass:       7.2640                 2.0152                15.9910
 IR Active:          YES                    YES                    YES
 IR Intens:       13.309                 24.372                  0.203
 Raman Active:       YES                    YES                    YES
               X      Y      Z        X      Y      Z        X      Y      Z
 O         -0.000 -0.000  0.000   -0.000 -0.000 -0.000    0.131  0.693 -0.027
 C          0.000 -0.000  0.000    0.000  0.000 -0.000    0.026 -0.003  0.002
 O         -0.000  0.000  0.000   -0.000  0.001 -0.000   -0.151 -0.691  0.026
 O          0.027 -0.019  0.013    0.054 -0.079 -0.011    0.001 -0.000 -0.000
 O         -0.401  0.099  0.047    0.016 -0.005  0.000   -0.000 -0.000 -0.000
 C         -0.130  0.037  0.017    0.007 -0.002 -0.001    0.000  0.000 -0.000
 O          0.459 -0.111 -0.056   -0.017  0.004  0.002    0.000  0.000 -0.000
 C         -0.047 -0.037 -0.014   -0.147 -0.106  0.013   -0.001 -0.000  0.000
 C          0.004  0.043 -0.006    0.176  0.119  0.006    0.001  0.000  0.000
 H          0.596 -0.232 -0.083   -0.022  0.009  0.003   -0.000  0.000  0.000
 H         -0.160  0.049  0.029   -0.359  0.124  0.074   -0.004 -0.001  0.002
 H         -0.077  0.062 -0.010   -0.425  0.103 -0.091   -0.005 -0.001 -0.002
 H          0.282 -0.057 -0.028   -0.343  0.561 -0.060    0.001  0.004 -0.002
 H          0.076  0.163  0.072   -0.120  0.334  0.010    0.002  0.003  0.002
 TransDip  -0.115  0.023  0.004   -0.099  0.123  0.010    0.014 -0.001  0.001

 Mode:                28                     29                     30
 Frequency:      1499.45                1541.77                2406.67
 Force Cnst:      1.4295                 1.9843                43.9322
 Red. Mass:       1.0791                 1.4168                12.8736
 IR Active:          YES                    YES                    YES
 IR Intens:        2.341                  4.380                959.750
 Raman Active:       YES                    YES                    YES
               X      Y      Z        X      Y      Z        X      Y      Z
 O         -0.000 -0.000  0.000   -0.000  0.000 -0.000   -0.063 -0.326  0.013
 C          0.000  0.000 -0.000    0.001  0.000  0.000    0.176  0.866 -0.033
 O         -0.000 -0.000 -0.000   -0.001 -0.000 -0.000   -0.069 -0.322  0.012
 O         -0.011 -0.015 -0.002    0.024 -0.026  0.002   -0.001  0.000  0.000
 O          0.001 -0.001  0.000   -0.002  0.001 -0.001    0.001 -0.000 -0.000
 C          0.001 -0.000 -0.000   -0.001  0.000  0.000   -0.002  0.000  0.000
 O         -0.001  0.000  0.000    0.001 -0.000 -0.000    0.000 -0.000 -0.000
 C         -0.064 -0.023  0.001   -0.122 -0.034 -0.002   -0.000 -0.000 -0.000
 C         -0.015 -0.033  0.001    0.061  0.125 -0.001    0.001 -0.002  0.000
 H         -0.002  0.001  0.000    0.002 -0.000 -0.000    0.000 -0.001 -0.000
 H          0.437  0.092 -0.302    0.316  0.062 -0.275   -0.002 -0.000  0.002
 H          0.429  0.091  0.303    0.320  0.069  0.277   -0.002  0.000 -0.002
 H          0.102  0.384 -0.251   -0.114 -0.426  0.348    0.003  0.001  0.002
 H          0.145  0.345  0.240   -0.162 -0.382 -0.335    0.002  0.000 -0.001
 TransDip   0.028  0.040  0.002   -0.044  0.051 -0.004    0.175  0.976 -0.038

 Mode:                31                     32                     33
 Frequency:      2474.69                3118.60                3127.66
 Force Cnst:     43.5924                 5.9898                 6.1064
 Red. Mass:      12.0815                 1.0453                 1.0595
 IR Active:          YES                    YES                    YES
 IR Intens:      654.323                 36.343                 18.352
 Raman Active:       YES                    YES                    YES
               X      Y      Z        X      Y      Z        X      Y      Z
 O         -0.000 -0.001  0.000   -0.000 -0.000  0.000   -0.000 -0.000 -0.000
 C          0.000  0.002 -0.000    0.000  0.000 -0.000    0.000  0.000  0.000
 O         -0.000 -0.001  0.000    0.000 -0.000  0.000   -0.000 -0.000 -0.000
 O          0.000 -0.000  0.000    0.001  0.001  0.000    0.000 -0.000  0.000
 O         -0.422  0.091  0.051   -0.000  0.000 -0.000   -0.000  0.000 -0.000
 C          0.813 -0.181 -0.099    0.000 -0.000 -0.000    0.000 -0.000 -0.000
 O         -0.178  0.031  0.021   -0.000  0.000  0.000   -0.000  0.000  0.000
 C          0.001  0.001 -0.000    0.041  0.015 -0.000   -0.044 -0.015  0.000
 C         -0.001 -0.000 -0.000    0.020  0.033 -0.001    0.027  0.043 -0.001
 H         -0.154  0.220  0.037   -0.001 -0.001  0.000   -0.000 -0.000 -0.000
 H         -0.000  0.000  0.001   -0.254 -0.082 -0.450    0.227  0.073  0.405
 H          0.000  0.001 -0.001   -0.257 -0.079  0.451    0.231  0.070 -0.408
 H          0.009 -0.006  0.005   -0.116 -0.211 -0.401   -0.126 -0.233 -0.445
 H         -0.001  0.000 -0.001   -0.123 -0.210  0.411   -0.135 -0.232  0.457
 TransDip   0.800 -0.152 -0.093    0.156  0.113 -0.001   -0.084  0.108 -0.001

 Mode:                34                     35                     36
 Frequency:      3209.25                3221.21                3345.33
 Force Cnst:      6.8067                 6.8551                 7.0296
 Red. Mass:       1.1217                 1.1213                 1.0661
 IR Active:          YES                    YES                    YES
 IR Intens:        0.171                 35.552                858.659
 Raman Active:       YES                    YES                    YES
               X      Y      Z        X      Y      Z        X      Y      Z
 O         -0.000 -0.000  0.000    0.000  0.000 -0.000    0.000 -0.000  0.000
 C          0.000  0.000  0.000   -0.000 -0.000 -0.000   -0.000  0.000 -0.000
 O          0.000 -0.000 -0.000   -0.000  0.000  0.000    0.000 -0.000 -0.000
 O          0.000  0.000  0.000   -0.000 -0.000  0.001    0.000 -0.000  0.000
 O         -0.000  0.000 -0.000    0.000 -0.000  0.000    0.006 -0.002 -0.001
 C          0.000 -0.000 -0.000   -0.000  0.000  0.000   -0.010  0.001  0.001
 O         -0.000 -0.000  0.000    0.000  0.000 -0.000   -0.045 -0.042  0.000
 C         -0.000 -0.000 -0.076    0.000 -0.000 -0.068    0.000  0.000  0.000
 C         -0.000  0.001  0.068    0.000 -0.001 -0.076   -0.000  0.000 -0.000
 H          0.000  0.000 -0.000   -0.000 -0.000 -0.000    0.732  0.679 -0.008
 H          0.261  0.084  0.447    0.235  0.084  0.400   -0.000 -0.000 -0.000
 H         -0.261 -0.080  0.443   -0.237 -0.080  0.398   -0.000  0.000  0.000
 H         -0.119 -0.221 -0.405    0.142  0.243  0.447   -0.000 -0.000 -0.001
 H          0.121  0.210 -0.396   -0.144 -0.232  0.439   -0.000 -0.000  0.001
 TransDip   0.001  0.001 -0.013    0.000 -0.002 -0.191    0.847  0.401 -0.045

 STANDARD THERMODYNAMIC QUANTITIES AT   298.15 K  AND     1.00 ATM

   This Molecule has  1 Imaginary Frequencies
   Zero point vibrational energy:       58.210 kcal/mol

   Atom    1 Element O  Has Mass   15.99491
   Atom    2 Element C  Has Mass   12.00000
   Atom    3 Element O  Has Mass   15.99491
   Atom    4 Element O  Has Mass   15.99491
   Atom    5 Element O  Has Mass   15.99491
   Atom    6 Element C  Has Mass   12.00000
   Atom    7 Element O  Has Mass   15.99491
   Atom    8 Element C  Has Mass   12.00000
   Atom    9 Element C  Has Mass   12.00000
   Atom   10 Element H  Has Mass    1.00783
   Atom   11 Element H  Has Mass    1.00783
   Atom   12 Element H  Has Mass    1.00783
   Atom   13 Element H  Has Mass    1.00783
   Atom   14 Element H  Has Mass    1.00783
   Molecular Mass:   133.013700 amu
   Principal axes and moments of inertia in amu*Bohr^2:
                             1           2           3
    Eigenvalues --      319.08527  5386.17103  5665.80112
          X               0.79074     0.61181    -0.02021
          Y              -0.61209     0.79070    -0.01189
          Z               0.00870     0.02177     0.99973
   Rotational Symmetry Number is   1
   The Molecule is an Asymmetric Top
   Translational Enthalpy:        0.889 kcal/mol
   Rotational Enthalpy:           0.889 kcal/mol
   Vibrational Enthalpy:         63.773 kcal/mol
   gas constant (RT):             0.592 kcal/mol
   Translational Entropy:        40.568  cal/mol.K
   Rotational Entropy:           30.655  cal/mol.K
   Vibrational Entropy:          49.159  cal/mol.K

   Total Enthalpy:               66.143 kcal/mol
   Total Entropy:               120.382  cal/mol.K
Archival summary:
1\1\nid01744\FREQ\ProcedureUnspecified\BasisUnspecified\545(1+,1)\sblau\WedJul1720:00:302019WedJul1720:00:302019\0\\#,FREQ,ProcedureUnspecified,BasisUnspecified,\\1,1\O\C,1,1.42819\H,2,1.08726,1,114.852\H,2,1.08727,1,114.84,3,-138.381,0\C,1,1.429,2,61.5254,3,-110.822,0\H,5,1.08717,1,114.815,2,110.817,0\H,5,1.08721,1,114.817,2,-110.804,0\C,1,2.83645,2,113.007,3,74.6035,0\O,8,1.15911,1,94.6701,2,176.265,0\O,8,1.15986,1,87.1165,2,-3.74416,0\O,2,3.31898,1,144.145,3,111.359,0\C,11,1.12323,2,145.837,1,11.5916,0\O,12,1.21814,11,174.306,2,165.817,0\H,13,1.0009,12,117.073,11,-179.938,0\\\@

 Total job time:  11200.96s(wall), 263617.86s(cpu) 
 Wed Jul 17 20:00:30 2019

        *************************************************************
        *                                                           *
        *  Thank you very much for using Q-Chem.  Have a nice day.  *
        *                                                           *
        *************************************************************


