
Running Job 1 of 1 mol.qin
qchem mol.qin_35266.0 /tmp/qchem8653636/chain_scratch/ 0
/global/project/projectdirs/jcesr/qchem_sblau/qc521_exe/qcprog.LINUX_Ix86_64.20190628.exe mol.qin_35266.0 /tmp/qchem8653636/chain_scratch/
                  Welcome to Q-Chem
     A Quantum Leap Into The Future Of Chemistry


 Q-Chem 5.2, Q-Chem, Inc., Pleasanton, CA (2019)

 License issued to: National Energy Research Scientific Computing Center

 Yihan Shao,  Zhengting Gan,  E. Epifanovsky,  A. T. B. Gilbert,  M. Wormit,  
 J. Kussmann,  A. W. Lange,  A. Behn,  Jia Deng,  Xintian Feng,  D. Ghosh,  
 M. Goldey,  P. R. Horn,  L. D. Jacobson,  I. Kaliman,  T. Kus,  A. Landau,  
 Jie Liu,  E. I. Proynov,  R. M. Richard,  R. P. Steele,  E. J. Sundstrom,  
 H. L. Woodcock III,  P. M. Zimmerman,  D. Zuev,  B. Albrecht,  E. Alguire,  
 S. A. Baeppler,  D. Barton,  Z. Benda,  Y. A. Bernard,  E. J. Berquist,  
 K. B. Bravaya,  H. Burton,  D. Casanova,  Chun-Min Chang,  Yunqing Chen,  
 A. Chien,  K. D. Closser,  M. P. Coons,  S. Coriani,  S. Dasgupta,  
 A. L. Dempwolff,  M. Diedenhofen,  Hainam Do,  R. G. Edgar,  Po-Tung Fang,  
 S. Faraji,  S. Fatehi,  Qingguo Feng,  K. D. Fenk,  J. Fosso-Tande,  
 J. Gayvert,  Qinghui Ge,  A. Ghysels,  G. Gidofalvi,  J. Gomes,  
 J. Gonthier,  A. Gunina,  D. Hait,  M. W. D. Hanson-Heine,  
 P. H. P. Harbach,  A. W. Hauser,  M. F. Herbst,  J. E. Herr,  
 E. G. Hohenstein,  Z. C. Holden,  Kerwin Hui,  B. C. Huynh,  T.-C. Jagau,  
 Hyunjun Ji,  B. Kaduk,  K. Khistyaev,  Jaehoon Kim,  P. Klunzinger,  K. Koh,  
 D. Kosenkov,  L. Koulias,  T. Kowalczyk,  C. M. Krauter,  A. Kunitsa,  
 Ka Un Lao,  A. Laurent,  K. V. Lawler,  Joonho Lee,  D. Lefrancois,  
 S. Lehtola,  D. S. Levine,  Yi-Pei Li,  You-Sheng Lin,  Fenglai Liu,  
 E. Livshits,  A. Luenser,  P. Manohar,  E. Mansoor,  S. F. Manzer,  
 Shan-Ping Mao,  Yuezhi Mao,  N. Mardirossian,  A. V. Marenich,  
 T. Markovich,  L. A. Martinez-Martinez,  S. A. Maurer,  N. J. Mayhall,  
 S. C. McKenzie,  J.-M. Mewes,  P. Morgante,  A. F. Morrison,  
 J. W. Mullinax,  K. Nanda,  T. S. Nguyen-Beck,  R. Olivares-Amaya,  
 J. A. Parkhill,  Zheng Pei,  T. M. Perrine,  F. Plasser,  P. Pokhilko,  
 S. Prager,  A. Prociuk,  E. Ramos,  D. R. Rehn,  F. Rob,  M. Scheurer,  
 M. Schneider,  N. Sergueev,  S. M. Sharada,  S. Sharma,  D. W. Small,  
 T. Stauch,  T. Stein,  Yu-Chuan Su,  A. J. W. Thom,  A. Tkatchenko,  
 T. Tsuchimochi,  N. M. Tubman,  L. Vogt,  M. L. Vidal,  O. Vydrov,  
 M. A. Watson,  J. Wenzel,  M. de Wergifosse,  T. A. Wesolowski,  A. White,  
 J. Witte,  A. Yamada,  Jun Yang,  K. Yao,  S. Yeganeh,  S. R. Yost,  
 Zhi-Qiang You,  A. Zech,  Igor Ying Zhang,  Xing Zhang,  Yan Zhao,  
 Ying Zhu,  B. R. Brooks,  G. K. L. Chan,  C. J. Cramer,  M. S. Gordon,  
 W. J. Hehre,  A. Klamt,  M. W. Schmidt,  C. D. Sherrill,  D. G. Truhlar,  
 A. Aspuru-Guzik,  R. Baer,  A. T. Bell,  N. A. Besley,  Jeng-Da Chai,  
 A. E. DePrince, III,  R. A. DiStasio Jr.,  A. Dreuw,  B. D. Dunietz,  
 T. R. Furlani,  Chao-Ping Hsu,  Yousung Jung,  Jing Kong,  D. S. Lambrecht,  
 WanZhen Liang,  C. Ochsenfeld,  V. A. Rassolov,  L. V. Slipchenko,  
 J. E. Subotnik,  T. Van Voorhis,  J. M. Herbert,  A. I. Krylov,  
 P. M. W. Gill,  M. Head-Gordon

 Contributors to earlier versions of Q-Chem not listed above: 
 R. D. Adamson,  B. Austin,  J. Baker,  G. J. O. Beran,  K. Brandhorst,  
 S. T. Brown,  E. F. C. Byrd,  A. K. Chakraborty,  C.-L. Cheng,  
 Siu Hung Chien,  D. M. Chipman,  D. L. Crittenden,  H. Dachsel,  
 R. J. Doerksen,  A. D. Dutoi,  L. Fusti-Molnar,  W. A. Goddard III,  
 A. Golubeva-Zadorozhnaya,  S. R. Gwaltney,  G. Hawkins,  A. Heyden,  
 S. Hirata,  G. Kedziora,  F. J. Keil,  C. Kelley,  Jihan Kim,  R. A. King,  
 R. Z. Khaliullin,  P. P. Korambath,  W. Kurlancheek,  A. M. Lee,  M. S. Lee,  
 S. V. Levchenko,  Ching Yeh Lin,  D. Liotard,  R. C. Lochan,  I. Lotan,  
 P. E. Maslen,  N. Nair,  D. P. O'Neill,  D. Neuhauser,  E. Neuscamman,  
 C. M. Oana,  R. Olson,  B. Peters,  R. Peverati,  P. A. Pieniazek,  
 Y. M. Rhee,  J. Ritchie,  M. A. Rohrdanz,  E. Rosta,  N. J. Russ,  
 H. F. Schaefer III,  N. E. Schultz,  N. Shenvi,  A. C. Simmonett,  A. Sodt,  
 D. Stuck,  K. S. Thanthiriwatte,  V. Vanovschi,  Tao Wang,  A. Warshel,  
 C. F. Williams,  Q. Wu,  X. Xu,  W. Zhang

 Please cite Q-Chem as follows:
 Y. Shao et al., Mol. Phys. 113, 184-215 (2015)
 DOI: 10.1080/00268976.2014.952696

 Q-Chem 5.2.0 for Intel X86 EM64T Linux

 Parts of Q-Chem use Armadillo 8.300.2 (Tropical Shenanigans).
 http://arma.sourceforge.net/

 Q-Chem begins on Wed Jul 17 20:05:47 2019  

Host: cori09
0

     Scratch files written to /tmp/qchem8653636/chain_scratch//
 Jun2719 |scratch|qcdevops|jenkins|workspace|build_RNUM -1
Processing $rem in /global/common/cori/software/qchem/5.2/config/preferences:
	 MEM_TOTAL  96000 
NAlpha2: 68
NElect   68
Mult     1
Symmetry turned off for PCM/SM12/SMD calculation

Checking the input file for inconsistencies... 	...done.

--------------------------------------------------------------
User input:
--------------------------------------------------------------
$molecule
1 1
O      4.1540939956     -3.1580883065      0.2673137932
C      4.3771956256     -2.0227680818      0.1979382726
O      4.6358376966     -0.8941669225      0.1324806683
O      1.6625417854     -1.2780625765     -0.1472976630
O     -0.8455671934      2.5219977436     -0.0839313237
C     -1.9339614640      2.7651534904      0.0498941036
O     -3.0811971999      3.1450385360      0.2029055151
C      0.3244161905     -0.7767766997     -0.1305996909
C      1.4652003222      0.1364738918     -0.1472279306
H     -3.7961418261      2.4445905625      0.2079556941
H     -0.2379169570     -0.9467876173     -1.0453827747
H     -0.2137063279     -0.9431475427      0.7993329963
H      1.7611017600      0.6387560640      0.7705406856
H      1.7373081177      0.6359619873     -1.0739223486
$end

$rem
job_type = freq
basis = def2-tzvppd
max_scf_cycles = 200
gen_scfman = true
xc_grid = 3
scf_algorithm = diis
resp_charges = true
symmetry = false
sym_ignore = true
method = wb97xv
geom_opt_max_cycles = 100
solvent_method = smd
ideriv = 1
thresh = 14
$end

$smx
solvent other
$end
--------------------------------------------------------------
 ----------------------------------------------------------------
             Standard Nuclear Orientation (Angstroms)
    I     Atom           X                Y                Z
 ----------------------------------------------------------------
    1      O       4.1540939956    -3.1580883065     0.2673137932
    2      C       4.3771956256    -2.0227680818     0.1979382726
    3      O       4.6358376966    -0.8941669225     0.1324806683
    4      O       1.6625417854    -1.2780625765    -0.1472976630
    5      O      -0.8455671934     2.5219977436    -0.0839313237
    6      C      -1.9339614640     2.7651534904     0.0498941036
    7      O      -3.0811971999     3.1450385360     0.2029055151
    8      C       0.3244161905    -0.7767766997    -0.1305996909
    9      C       1.4652003222     0.1364738918    -0.1472279306
   10      H      -3.7961418261     2.4445905625     0.2079556941
   11      H      -0.2379169570    -0.9467876173    -1.0453827747
   12      H      -0.2137063279    -0.9431475427     0.7993329963
   13      H       1.7611017600     0.6387560640     0.7705406856
   14      H       1.7373081177     0.6359619873    -1.0739223486
 ----------------------------------------------------------------
 Nuclear Repulsion Energy =         372.96104138 hartrees
 There are       34 alpha and       34 beta electrons
 Requested basis set is def2-TZVPPD
 There are 157 shells and 433 basis functions

 Total QAlloc Memory Limit  96000 MB
 Mega-Array Size       188 MB
 MEM_STATIC part       192 MB
 
 Citation of the SMD model:
 Marenich, A.V.; Cramer, C.J.; Truhlar, D.G.
 J. Phys. Chem. B 2009, 113, 6378-6396.
 iSolventCode=           0
 Solvent: other                                                           
 
 vradii
            1           2           3           4           5           6
    1   2.2940000   1.8500000   2.2940000   2.2940000   2.2940000   1.8500000
            7           8           9          10          11          12
    1   2.2940000   1.8500000   1.8500000   1.2000000   1.2000000   1.2000000
           13          14
    1   1.2000000   1.2000000
 Changing PCM_VDW_RADII to SMD_RADIUS
 Discretize the solute cavity surface with Lebedev spheres
	Using 110 Lebedev grid points for each H atom
	Using 194 Lebedev grid points for other atoms
	Atomic van der Waals radii will be scaled by 1.20
 Remove points where switching function is < 1.0e-08
 Keep 1141 surface tesserae and discard 1155 interior tesserae
 Molecular Surface Area = 241.706 Angst**2

                       Distance Matrix (Angstroms)
             O (  1)   C (  2)   O (  3)   O (  4)   O (  5)   C (  6)
   C (  2)  1.159111
   O (  3)  2.318533  1.159707
   O (  4)  3.148687  2.836039  3.011003
   O (  5)  7.575181  6.929040  6.462416  4.553579
   C (  6)  8.496851  7.923182  7.520619  5.414916  1.123226
   O (  7)  9.595988  9.073801  8.710498  6.495346  2.338482  1.218144
   C (  8)  4.527186  4.252699  4.321035  1.429037  3.500422  4.204535
   C (  9)  4.272720  3.641591  3.345654  1.428236  3.321803  4.301525
   H ( 10)  9.726242  9.314550  9.069249  6.616765  2.965987  1.896170
   H ( 11)  5.089478  4.899270  5.014341  2.127920  3.650493  4.225483
   H ( 12)  4.926123  4.754328  4.895423  2.128047  3.631341  4.156012
   H ( 13)  4.516157  3.775650  3.319801  2.127519  3.327378  4.323701
   H ( 14)  4.694101  3.956701  3.492589  2.127842  3.347904  4.390289
             O (  7)   C (  8)   C (  9)   H ( 10)   H ( 11)   H ( 12)
   C (  8)  5.204812
   C (  9)  5.462947  1.461401
   H ( 10)  1.000899  5.241262  5.756325
   H ( 11)  5.136683  1.087175  2.209241  5.072797
   H ( 12)  5.029065  1.087212  2.209137  4.965918  1.844878
   H ( 13)  5.481927  2.209039  1.087265  5.870306  3.131709  2.530438
   H ( 14)  5.580658  2.209514  1.087333  5.960991  2.531289  3.131953
             H ( 13)
   H ( 14)  1.844619
 
 A cutoff of  1.0D-14 yielded  10206 shell pairs
 There are     76688 function pairs (     97957 Cartesian)
 Smallest overlap matrix eigenvalue = 5.69E-06
 Guess from superposition of atomic densities
 Warning:  Energy on first SCF cycle will be non-variational
 SAD guess density has 68.075651 electrons

 -----------------------------------------------------------------------
  General SCF calculation program by
  Eric Jon Sundstrom, Paul Horn, Yuezhi Mao, Dmitri Zuev, Alec White,
  David Stuck, Shaama M.S., Shane Yost, Joonho Lee, David Small,
  Daniel Levine, Susi Lehtola, Hugh Burton, Evgeny Epifanovsky,
  Bang C. Huynh
 -----------------------------------------------------------------------
 Exchange:     0.1670 Hartree-Fock + 1.0000 wB97X-V + LR-HF
 Correlation:  1.0000 wB97X-V
 Using SG-3 standard quadrature grid
 Nonlocal Correlation:  VV10 with C = 0.0100 and b = 6.00 and scale = 1.00000
 Grid used for NLC:  SG-1 standard quadrature
 
 Citation of the SMD model:
 Marenich, A.V.; Cramer, C.J.; Truhlar, D.G.
 J. Phys. Chem. B 2009, 113, 6378-6396.
 iSolventCode=           0
 Solvent: other                                                           
 
 vradii
            1           2           3           4           5           6
    1   2.2940000   1.8500000   2.2940000   2.2940000   2.2940000   1.8500000
            7           8           9          10          11          12
    1   2.2940000   1.8500000   1.8500000   1.2000000   1.2000000   1.2000000
           13          14
    1   1.2000000   1.2000000
 using 32 threads for integral computing
 -------------------------------------------------------
 OpenMP Integral computing Module                
 Release: version 1.0, May 2013, Q-Chem Inc. Pittsburgh 
 -------------------------------------------------------
 using 32 threads for integral computing
 -------------------------------------------------------
 OpenMP Integral computing Module                
 Release: version 1.0, May 2013, Q-Chem Inc. Pittsburgh 
 -------------------------------------------------------
 -------------------------------------------------------
 OpenMP BLAS3 based DFT computing Module                
 Release: version 1.0, May 2013, Q-Chem Inc. Pittsburgh 
 -------------------------------------------------------
 -------------------------------------------------------
 OpenMP BLAS3 based DFT computing Module                
 Release: version 1.0, May 2013, Q-Chem Inc. Pittsburgh 
 -------------------------------------------------------
 -------------------------------------------------------
 OpenMP BLAS3 based DFT computing Module                
 Release: version 1.0, May 2013, Q-Chem Inc. Pittsburgh 
 -------------------------------------------------------
 A restricted SCF calculation will be
 performed using DIIS
 SCF converges when DIIS error is below 1.0e-08
 ---------------------------------------
  Cycle       Energy         DIIS error
 ---------------------------------------
    1    -530.3649619517      2.55e-02  
    2    -530.1228286108      9.01e-03  
    3    -530.2815411886      8.31e-03  
    4    -531.3259903875      9.22e-04  
    5    -531.3365711032      4.93e-04  
    6    -531.3401612959      8.22e-05  
    7    -531.3402787429      3.12e-05  
    8    -531.3402950484      1.12e-05  
    9    -531.3402979535      2.54e-06  
   10    -531.3402981828      1.20e-06  
   11    -531.3402982201      3.89e-07  
   12    -531.3402982264      1.52e-07  
   13    -531.3402982274      5.02e-08  
   14    -531.3402982274      3.63e-08  
   15    -531.3402982275      6.06e-09  Convergence criterion met
 ---------------------------------------
 SCF time:   CPU 2933.24s  wall 119.00s 
(3)  G-ENP(liq) elect-nuc-pol free energy of system     -531.340298227 a.u.
(4)  G-CDS(liq) cavity-dispersion-solvent structure 
     free energy                                               -2.3813 kcal/mol
(6)  G-S(liq) free energy of system                     -531.344093082 a.u.
 SCF   energy in the final basis set =     -531.3402982275
 Total energy in the final basis set =     -531.3440930821
 
 --------------------------------------------------------------
 
                    Orbital Energies (a.u.)
 --------------------------------------------------------------
 
 Alpha MOs
 -- Occupied --
-19.4651 -19.4362 -19.2884 -19.2881 -19.2354 -10.6099 -10.4548 -10.3228
-10.3220  -1.4473  -1.4062  -1.2909  -1.2467  -1.2135  -0.9396  -0.8107
 -0.7853  -0.7669  -0.7665  -0.7607  -0.6800  -0.6560  -0.6367  -0.6349
 -0.6335  -0.6317  -0.6242  -0.5954  -0.5092  -0.4900  -0.4758  -0.4749
 -0.4276  -0.3905
 -- Virtual --
 -0.0328  -0.0071   0.0021   0.0447   0.0630   0.0724   0.0795   0.0801
  0.0877   0.0948   0.1046   0.1089   0.1181   0.1205   0.1268   0.1289
  0.1324   0.1358   0.1378   0.1427   0.1529   0.1621   0.1690   0.1723
  0.1806   0.1827   0.1934   0.1999   0.2148   0.2212   0.2281   0.2378
  0.2422   0.2534   0.2560   0.2622   0.2666   0.2755   0.2844   0.2961
  0.3034   0.3058   0.3159   0.3187   0.3205   0.3277   0.3336   0.3388
  0.3446   0.3466   0.3655   0.3666   0.3713   0.3745   0.3824   0.3875
  0.3934   0.3973   0.4005   0.4052   0.4078   0.4132   0.4210   0.4286
  0.4350   0.4372   0.4428   0.4513   0.4600   0.4640   0.4651   0.4795
  0.4878   0.4919   0.4984   0.5003   0.5052   0.5133   0.5305   0.5349
  0.5387   0.5508   0.5524   0.5554   0.5679   0.5737   0.5827   0.5889
  0.5952   0.5994   0.6045   0.6053   0.6231   0.6305   0.6425   0.6579
  0.6702   0.6793   0.6910   0.6977   0.7118   0.7221   0.7294   0.7377
  0.7563   0.7693   0.7787   0.7866   0.7882   0.7931   0.7934   0.8041
  0.8082   0.8144   0.8329   0.8358   0.8646   0.8788   0.8800   0.8923
  0.8984   0.9068   0.9140   0.9248   0.9379   0.9415   0.9561   0.9702
  0.9832   0.9909   0.9926   0.9949   1.0022   1.0154   1.0185   1.0290
  1.0422   1.0681   1.0849   1.0959   1.1156   1.1248   1.1313   1.1548
  1.1721   1.1960   1.2029   1.2080   1.2123   1.2265   1.2431   1.2689
  1.2779   1.2853   1.2882   1.2973   1.3167   1.3390   1.3450   1.3531
  1.3733   1.3858   1.4102   1.4309   1.4489   1.5114   1.5153   1.5592
  1.6331   1.6684   1.6859   1.7008   1.7091   1.7174   1.7320   1.7531
  1.7576   1.7730   1.7881   1.8028   1.8207   1.8327   1.8476   1.8805
  1.8883   1.9011   1.9058   1.9143   1.9188   1.9354   1.9518   1.9758
  1.9812   2.0240   2.0308   2.0657   2.0886   2.0949   2.1045   2.1314
  2.1705   2.2137   2.2223   2.2473   2.3149   2.3450   2.3746   2.3854
  2.4269   2.4625   2.4882   2.5020   2.5125   2.5412   2.5743   2.5769
  2.6369   2.7140   2.7252   2.7477   2.7608   2.7781   2.7977   2.8188
  2.8215   2.8805   2.9196   2.9443   2.9477   2.9653   2.9684   2.9739
  2.9820   2.9923   3.0025   3.0127   3.0294   3.0402   3.0473   3.0514
  3.0654   3.0753   3.1052   3.1230   3.1333   3.1389   3.1528   3.1573
  3.1761   3.1967   3.2054   3.2227   3.2285   3.2901   3.2946   3.3005
  3.3305   3.3420   3.3559   3.3611   3.3923   3.4213   3.4368   3.4579
  3.4834   3.5124   3.5164   3.5270   3.5289   3.5658   3.5819   3.6223
  3.6368   3.6807   3.6935   3.7229   3.7456   3.7618   3.7732   3.7992
  3.8034   3.8166   3.8183   3.8393   3.8758   3.8980   3.9639   4.0010
  4.0393   4.0421   4.0483   4.0608   4.1088   4.1472   4.2011   4.2141
  4.2921   4.3049   4.3232   4.3747   4.3802   4.3870   4.3943   4.4340
  4.4850   4.6390   4.6587   4.7043   4.7365   4.7808   4.7959   4.8100
  4.9614   4.9842   4.9864   5.0644   5.0921   5.1021   5.1165   5.1199
  5.1777   5.1879   5.2027   5.2419   5.2460   5.2525   5.2545   5.2977
  5.3081   5.3247   5.3283   5.3534   5.4162   5.4767   5.5552   5.5810
  5.6204   5.6567   5.6815   5.7132   5.7145   5.7334   5.7739   5.8872
  5.9331   5.9392   5.9739   6.0696   6.0711   6.1563   6.1924   6.2544
  6.2628   6.3259   6.3299   6.4121   6.4160   6.4243   6.4270   6.4512
  6.4838   6.5229   6.5388   6.5436   6.5556   6.5779   6.6002   6.6191
  6.6669   6.7879   6.8585   6.8647   6.8816   6.9594   6.9801   7.0422
  7.0463   7.0529   7.0728   7.1016   7.2125   7.2327   7.2927   7.3238
  7.3339   7.4951   7.5980   7.6543   7.8739   7.8765  23.6640  23.6957
 24.0187  24.3347  44.0684  44.1527  44.3490  44.4058  44.4478
 --------------------------------------------------------------
 
          Ground-State Mulliken Net Atomic Charges

     Atom                 Charge (a.u.)
  ----------------------------------------
      1 O                    -0.304508
      2 C                     0.628740
      3 O                    -0.309595
      4 O                    -0.351674
      5 O                     0.021207
      6 C                     0.705154
      7 O                    -0.106539
      8 C                    -0.048029
      9 C                     0.174267
     10 H                     0.369795
     11 H                     0.065430
     12 H                     0.057545
     13 H                     0.047756
     14 H                     0.050452
  ----------------------------------------
  Sum of atomic charges =     1.000000

  Building new vdw surfaces
         Merz-Kollman RESP Net Atomic Charges

     Atom                 Charge (a.u.)
  ----------------------------------------
      1 O                    -0.390201
      2 C                     0.737486
      3 O                    -0.370630
      4 O                    -0.223651
      5 O                    -0.097568
      6 C                     0.776401
      7 O                    -0.205393
      8 C                    -0.253346
      9 C                    -0.253346
     10 H                     0.521943
     11 H                     0.189576
     12 H                     0.189576
     13 H                     0.189576
     14 H                     0.189576
  ----------------------------------------
  Sum of atomic charges =     1.000000

  Related Dipole Moment =    20.5996 (X -15.0156 Y 14.0932 Z  0.5069)

 -----------------------------------------------------------------
                    Cartesian Multipole Moments
 -----------------------------------------------------------------
    Charge (ESU x 10^10)
                 4.8032
    Dipole Moment (Debye)
         X     -15.0023      Y      14.1189      Z       0.5329
       Tot      20.6081
    Quadrupole Moments (Debye-Ang)
        XX     -11.4277     XY     -27.4951     YY     -23.3299
        XZ      -1.6299     YZ       1.3097     ZZ     -45.8889
    Octopole Moments (Debye-Ang^2)
       XXX    -333.3840    XXY     104.2102    XYY    -162.1467
       YYY     121.6822    XXZ       5.5273    XYZ      -3.6609
       YYZ       0.0221    XZZ     -58.0214    YZZ       2.8049
       ZZZ      -4.1846
    Hexadecapole Moments (Debye-Ang^3)
      XXXX   -1958.8260   XXXY     329.9687   XXYY    -451.8797
      XYYY     592.1724   YYYY   -1148.2063   XXXZ     -45.3369
      XXYZ      20.1322   XYYZ     -22.9442   YYYZ      22.9812
      XXZZ    -403.2745   XYZZ     224.1899   YYZZ    -217.1310
      XZZZ     -19.9188   YZZZ       7.5468   ZZZZ     -59.7645
 -----------------------------------------------------------------
 Calculating analytic gradient of the SCF energy
 Gradient of CDS energy
            1           2           3           4           5           6
    1  -0.0007204   0.0012257  -0.0007023  -0.0000306   0.0001095   0.0006278
    2  -0.0000294  -0.0002641   0.0002797   0.0004235  -0.0001197   0.0002402
    3  -0.0000731   0.0001501  -0.0000656   0.0000412   0.0000036  -0.0000406
            7           8           9          10          11          12
    1  -0.0003428  -0.0011190   0.0010298  -0.0003184   0.0001468   0.0001404
    2  -0.0006456  -0.0010590   0.0009483   0.0004129   0.0000444   0.0000434
    3  -0.0000274   0.0000173  -0.0000908   0.0000721   0.0002388  -0.0002427
           13          14
    1   0.0000244  -0.0000709
    2  -0.0001443  -0.0001302
    3  -0.0002246   0.0002416
 Gradient of SCF Energy
            1           2           3           4           5           6
    1  -0.0065221  -0.0023867   0.0079970   0.0046968   0.1555154  -0.0490916
    2  -0.0320635   0.0001127   0.0329096  -0.0070843  -0.0262916   0.0017716
    3   0.0017177   0.0003212  -0.0021757   0.0000871  -0.0183418   0.0045027
            7           8           9          10          11          12
    1  -0.0457495   0.0271120  -0.0123560  -0.0590350  -0.0183932  -0.0181291
    2   0.0671907   0.0192098  -0.0280111  -0.0435544  -0.0087730  -0.0069925
    3   0.0118066   0.0010001  -0.0004914   0.0018648  -0.0329737   0.0332829
           13          14
    1   0.0087197   0.0076223
    2   0.0159209   0.0156553
    3   0.0301319  -0.0307324
 Max gradient component =       1.555E-01
 RMS gradient           =       3.436E-02
 Computing fast CPCM-SWIG gradient
 Updating gradient with PCM contributions...
 -- total gradient after adding PCM contribution --
---------------------------------------------------
  Atom         X              Y              Z     
---------------------------------------------------
   1       0.000006       0.000014      -0.000013
   2       0.000054       0.000227      -0.000013
   3      -0.000088      -0.000203       0.000030
   4       0.000028      -0.000014       0.000017
   5      -0.000015       0.000007      -0.000002
   6       0.000003      -0.000013       0.000008
   7      -0.000002       0.000002       0.000008
   8      -0.000036      -0.000012       0.000013
   9      -0.000052       0.000001      -0.000007
  10      -0.000002      -0.000004       0.000002
  11       0.000005       0.000010      -0.000002
  12       0.000001      -0.000001      -0.000008
  13       0.000068      -0.000030       0.000004
  14       0.000029       0.000014      -0.000036
---------------------------------------------------
 Number of fixed atoms: 0
 Gradient time:  CPU 510.93 s  wall 26.29 s
 ######################################################
 ######################################################
 # Starting finite difference calculation for IDERIV  #
 Finite diff step size:  1.88973e-03 a.u.
 ----------------------------------------------------------------
             Standard Nuclear Orientation (Angstroms)
    I     Atom           X                Y                Z
 ----------------------------------------------------------------
    1      O       4.1550939956    -3.1580883065     0.2673137932
    2      C       4.3771956256    -2.0227680818     0.1979382726
    3      O       4.6358376966    -0.8941669225     0.1324806683
    4      O       1.6625417854    -1.2780625765    -0.1472976630
    5      O      -0.8455671934     2.5219977436    -0.0839313237
    6      C      -1.9339614640     2.7651534904     0.0498941036
    7      O      -3.0811971999     3.1450385360     0.2029055151
    8      C       0.3244161905    -0.7767766997    -0.1305996909
    9      C       1.4652003222     0.1364738918    -0.1472279306
   10      H      -3.7961418261     2.4445905625     0.2079556941
   11      H      -0.2379169570    -0.9467876173    -1.0453827747
   12      H      -0.2137063279    -0.9431475427     0.7993329963
   13      H       1.7611017600     0.6387560640     0.7705406856
   14      H       1.7373081177     0.6359619873    -1.0739223486
 ----------------------------------------------------------------
 Nuclear Repulsion Energy =         372.95989443 hartrees
 There are       34 alpha and       34 beta electrons
 Discretize the solute cavity surface with Lebedev spheres
	Using 110 Lebedev grid points for each H atom
	Using 194 Lebedev grid points for other atoms
	Atomic van der Waals radii will be scaled by 1.20
 Remove points where switching function is < 1.0e-08
 Keep 1141 surface tesserae and discard 1155 interior tesserae
 Molecular Surface Area = 241.712 Angst**2

                       Distance Matrix (Angstroms)
             O (  1)   C (  2)   O (  3)   O (  4)   O (  5)   C (  6)
   C (  2)  1.158919
   O (  3)  2.318326  1.159707
   O (  4)  3.149479  2.836039  3.011003
   O (  5)  7.575841  6.929040  6.462416  4.553579
   C (  6)  8.497568  7.923182  7.520619  5.414916  1.123226
   O (  7)  9.596743  9.073801  8.710498  6.495346  2.338482  1.218144
   C (  8)  4.528032  4.252699  4.321035  1.429037  3.500422  4.204535
   C (  9)  4.273349  3.641591  3.345654  1.428236  3.321803  4.301525
   H ( 10)  9.727059  9.314550  9.069249  6.616765  2.965987  1.896170
   H ( 11)  5.090341  4.899270  5.014341  2.127920  3.650493  4.225483
   H ( 12)  4.927010  4.754328  4.895423  2.128047  3.631341  4.156012
   H ( 13)  4.516687  3.775650  3.319801  2.127519  3.327378  4.323701
   H ( 14)  4.694616  3.956701  3.492589  2.127842  3.347904  4.390289
             O (  7)   C (  8)   C (  9)   H ( 10)   H ( 11)   H ( 12)
   C (  8)  5.204812
   C (  9)  5.462947  1.461401
   H ( 10)  1.000899  5.241262  5.756325
   H ( 11)  5.136683  1.087175  2.209241  5.072797
   H ( 12)  5.029065  1.087212  2.209137  4.965918  1.844878
   H ( 13)  5.481927  2.209039  1.087265  5.870306  3.131709  2.530438
   H ( 14)  5.580658  2.209514  1.087333  5.960991  2.531289  3.131953
             H ( 13)
   H ( 14)  1.844619
 
 Requested basis set is def2-TZVPPD
 There are 157 shells and 433 basis functions
 A cutoff of  1.0D-14 yielded  10206 shell pairs
 There are     76688 function pairs (     97957 Cartesian)
 Smallest overlap matrix eigenvalue = 5.69E-06
 Guess MOs from SCF MO coefficient file

 -----------------------------------------------------------------------
  General SCF calculation program by
  Eric Jon Sundstrom, Paul Horn, Yuezhi Mao, Dmitri Zuev, Alec White,
  David Stuck, Shaama M.S., Shane Yost, Joonho Lee, David Small,
  Daniel Levine, Susi Lehtola, Hugh Burton, Evgeny Epifanovsky,
  Bang C. Huynh
 -----------------------------------------------------------------------
 Exchange:     0.1670 Hartree-Fock + 1.0000 wB97X-V + LR-HF
 Correlation:  1.0000 wB97X-V
 Using SG-3 standard quadrature grid
 Nonlocal Correlation:  VV10 with C = 0.0100 and b = 6.00 and scale = 1.00000
 Grid used for NLC:  SG-1 standard quadrature
 
 Citation of the SMD model:
 Marenich, A.V.; Cramer, C.J.; Truhlar, D.G.
 J. Phys. Chem. B 2009, 113, 6378-6396.
 iSolventCode=           0
 Solvent: other                                                           
 
 vradii
            1           2           3           4           5           6
    1   2.2940000   1.8500000   2.2940000   2.2940000   2.2940000   1.8500000
            7           8           9          10          11          12
    1   2.2940000   1.8500000   1.8500000   1.2000000   1.2000000   1.2000000
           13          14
    1   1.2000000   1.2000000
 using 32 threads for integral computing
 -------------------------------------------------------
 OpenMP Integral computing Module                
 Release: version 1.0, May 2013, Q-Chem Inc. Pittsburgh 
 -------------------------------------------------------
 using 32 threads for integral computing
 -------------------------------------------------------
 OpenMP Integral computing Module                
 Release: version 1.0, May 2013, Q-Chem Inc. Pittsburgh 
 -------------------------------------------------------
 -------------------------------------------------------
 OpenMP BLAS3 based DFT computing Module                
 Release: version 1.0, May 2013, Q-Chem Inc. Pittsburgh 
 -------------------------------------------------------
 -------------------------------------------------------
 OpenMP BLAS3 based DFT computing Module                
 Release: version 1.0, May 2013, Q-Chem Inc. Pittsburgh 
 -------------------------------------------------------
 -------------------------------------------------------
 OpenMP BLAS3 based DFT computing Module                
 Release: version 1.0, May 2013, Q-Chem Inc. Pittsburgh 
 -------------------------------------------------------
 A restricted SCF calculation will be
 performed using Roothaan-Hall, DIIS
 SCF converges when DIIS error is below 1.0e-08
 ---------------------------------------
  Cycle       Energy         DIIS error
 ---------------------------------------
    1    -539.2722050561      2.90e-04  Roothaan Step
 ---------------------------------------
  Cycle       Energy         DIIS error
 ---------------------------------------
    1    -531.3351200286      4.08e-04  
    2    -531.3363658803      5.05e-04  
    3    -531.3402067089      5.02e-05  
    4    -531.3402705921      3.48e-05  
    5    -531.3402915277      1.49e-05  
    6    -531.3402965010      2.38e-06  
    7    -531.3402966641      1.51e-06  
    8    -531.3402967084      3.13e-07  
    9    -531.3402967119      1.65e-07  
   10    -531.3402967125      6.18e-08  
   11    -531.3402967126      1.95e-08  
   12    -531.3402967126      4.56e-09  Convergence criterion met
 ---------------------------------------
 SCF time:   CPU 2549.22s  wall 105.00s 
(3)  G-ENP(liq) elect-nuc-pol free energy of system     -531.340296713 a.u.
(4)  G-CDS(liq) cavity-dispersion-solvent structure 
     free energy                                               -2.3822 kcal/mol
(6)  G-S(liq) free energy of system                     -531.344092928 a.u.
 SCF   energy in the final basis set =     -531.3402967126
 Total energy in the final basis set =     -531.3440929276
 
 --------------------------------------------------------------
 
                    Orbital Energies (a.u.)
 --------------------------------------------------------------
 
 Alpha MOs
 -- Occupied --
-19.4651 -19.4362 -19.2883 -19.2882 -19.2354 -10.6099 -10.4548 -10.3228
-10.3220  -1.4473  -1.4062  -1.2910  -1.2468  -1.2136  -0.9396  -0.8107
 -0.7853  -0.7669  -0.7665  -0.7607  -0.6800  -0.6560  -0.6367  -0.6349
 -0.6335  -0.6317  -0.6242  -0.5954  -0.5092  -0.4900  -0.4758  -0.4749
 -0.4276  -0.3905
 -- Virtual --
 -0.0328  -0.0071   0.0021   0.0447   0.0630   0.0724   0.0795   0.0801
  0.0877   0.0948   0.1046   0.1089   0.1181   0.1205   0.1268   0.1289
  0.1324   0.1358   0.1378   0.1427   0.1529   0.1620   0.1690   0.1723
  0.1806   0.1827   0.1934   0.1999   0.2148   0.2212   0.2281   0.2378
  0.2422   0.2534   0.2560   0.2622   0.2666   0.2755   0.2844   0.2961
  0.3034   0.3058   0.3159   0.3187   0.3205   0.3277   0.3336   0.3388
  0.3446   0.3467   0.3654   0.3666   0.3713   0.3744   0.3824   0.3875
  0.3935   0.3973   0.4005   0.4052   0.4078   0.4132   0.4210   0.4286
  0.4350   0.4372   0.4428   0.4514   0.4600   0.4640   0.4651   0.4795
  0.4878   0.4919   0.4984   0.5003   0.5052   0.5133   0.5305   0.5349
  0.5387   0.5508   0.5524   0.5554   0.5679   0.5737   0.5827   0.5889
  0.5952   0.5994   0.6045   0.6053   0.6231   0.6305   0.6425   0.6578
  0.6702   0.6792   0.6910   0.6977   0.7118   0.7221   0.7294   0.7377
  0.7563   0.7693   0.7787   0.7866   0.7882   0.7930   0.7934   0.8041
  0.8082   0.8144   0.8329   0.8358   0.8646   0.8788   0.8800   0.8923
  0.8984   0.9068   0.9140   0.9248   0.9379   0.9415   0.9561   0.9702
  0.9832   0.9909   0.9927   0.9949   1.0022   1.0154   1.0185   1.0289
  1.0422   1.0681   1.0849   1.0959   1.1156   1.1247   1.1313   1.1547
  1.1721   1.1960   1.2029   1.2080   1.2123   1.2265   1.2431   1.2690
  1.2779   1.2853   1.2882   1.2973   1.3167   1.3390   1.3450   1.3531
  1.3733   1.3858   1.4102   1.4309   1.4488   1.5114   1.5153   1.5592
  1.6331   1.6684   1.6859   1.7008   1.7091   1.7174   1.7321   1.7531
  1.7576   1.7730   1.7881   1.8028   1.8207   1.8328   1.8476   1.8805
  1.8883   1.9011   1.9057   1.9143   1.9188   1.9355   1.9518   1.9759
  1.9812   2.0240   2.0309   2.0657   2.0886   2.0950   2.1045   2.1314
  2.1704   2.2137   2.2223   2.2473   2.3149   2.3450   2.3746   2.3854
  2.4269   2.4625   2.4883   2.5020   2.5125   2.5412   2.5743   2.5769
  2.6370   2.7140   2.7252   2.7477   2.7608   2.7780   2.7977   2.8188
  2.8215   2.8805   2.9196   2.9443   2.9477   2.9653   2.9684   2.9739
  2.9820   2.9923   3.0025   3.0127   3.0294   3.0403   3.0473   3.0517
  3.0655   3.0754   3.1052   3.1230   3.1333   3.1389   3.1528   3.1573
  3.1761   3.1967   3.2054   3.2227   3.2285   3.2901   3.2946   3.3005
  3.3305   3.3420   3.3559   3.3611   3.3922   3.4213   3.4369   3.4579
  3.4834   3.5125   3.5165   3.5270   3.5291   3.5658   3.5820   3.6222
  3.6368   3.6807   3.6935   3.7230   3.7456   3.7619   3.7732   3.7992
  3.8034   3.8167   3.8183   3.8394   3.8758   3.8980   3.9639   4.0010
  4.0393   4.0421   4.0483   4.0609   4.1088   4.1472   4.2011   4.2141
  4.2921   4.3049   4.3232   4.3747   4.3802   4.3870   4.3942   4.4340
  4.4850   4.6390   4.6587   4.7043   4.7365   4.7808   4.7959   4.8100
  4.9614   4.9842   4.9869   5.0644   5.0921   5.1021   5.1165   5.1199
  5.1776   5.1879   5.2027   5.2419   5.2460   5.2525   5.2545   5.2977
  5.3081   5.3248   5.3284   5.3530   5.4162   5.4767   5.5552   5.5810
  5.6204   5.6567   5.6815   5.7132   5.7145   5.7334   5.7739   5.8872
  5.9333   5.9394   5.9739   6.0696   6.0711   6.1567   6.1924   6.2549
  6.2635   6.3259   6.3299   6.4121   6.4160   6.4243   6.4270   6.4512
  6.4838   6.5229   6.5388   6.5436   6.5556   6.5779   6.6001   6.6191
  6.6669   6.7879   6.8585   6.8647   6.8816   6.9593   6.9801   7.0420
  7.0462   7.0529   7.0728   7.1017   7.2127   7.2330   7.2927   7.3238
  7.3339   7.4951   7.5983   7.6543   7.8739   7.8769  23.6640  23.6957
 24.0187  24.3356  44.0684  44.1530  44.3490  44.4057  44.4479
 --------------------------------------------------------------
 
          Ground-State Mulliken Net Atomic Charges

     Atom                 Charge (a.u.)
  ----------------------------------------
      1 O                    -0.304211
      2 C                     0.628468
      3 O                    -0.309630
      4 O                    -0.351727
      5 O                     0.021207
      6 C                     0.705155
      7 O                    -0.106539
      8 C                    -0.047993
      9 C                     0.174321
     10 H                     0.369795
     11 H                     0.065428
     12 H                     0.057551
     13 H                     0.047742
     14 H                     0.050434
  ----------------------------------------
  Sum of atomic charges =     1.000000

  Building new vdw surfaces
         Merz-Kollman RESP Net Atomic Charges

     Atom                 Charge (a.u.)
  ----------------------------------------
      1 O                    -0.390155
      2 C                     0.737608
      3 O                    -0.370767
      4 O                    -0.223774
      5 O                    -0.097587
      6 C                     0.776411
      7 O                    -0.205390
      8 C                    -0.253259
      9 C                    -0.253259
     10 H                     0.521940
     11 H                     0.189558
     12 H                     0.189558
     13 H                     0.189558
     14 H                     0.189558
  ----------------------------------------
  Sum of atomic charges =     1.000000

  Related Dipole Moment =    20.6004 (X -15.0175 Y 14.0924 Z  0.5070)

 -----------------------------------------------------------------
                    Cartesian Multipole Moments
 -----------------------------------------------------------------
    Charge (ESU x 10^10)
                 4.8032
    Dipole Moment (Debye)
         X     -15.0041      Y      14.1181      Z       0.5330
       Tot      20.6089
    Quadrupole Moments (Debye-Ang)
        XX     -11.4416     XY     -27.4941     YY     -23.3263
        XZ      -1.6300     YZ       1.3094     ZZ     -45.8883
    Octopole Moments (Debye-Ang^2)
       XXX    -333.4830    XXY     104.2328    XYY    -162.1508
       YYY     121.6691    XXZ       5.5250    XYZ      -3.6609
       YYZ       0.0231    XZZ     -58.0246    YZZ       2.8028
       ZZZ      -4.1841
    Hexadecapole Moments (Debye-Ang^3)
      XXXX   -1959.5306   XXXY     330.1842   XXYY    -451.9701
      XYYY     592.2044   YYYY   -1148.1550   XXXZ     -45.3570
      XXYZ      20.1366   XYYZ     -22.9449   YYYZ      22.9779
      XXZZ    -403.3104   XYZZ     224.1984   YYZZ    -217.1242
      XZZZ     -19.9211   YZZZ       7.5452   ZZZZ     -59.7630
 -----------------------------------------------------------------
 Calculating analytic gradient of the SCF energy
 Gradient of CDS energy
            1           2           3           4           5           6
    1  -0.0007193   0.0012249  -0.0007023  -0.0000308   0.0001095   0.0006278
    2  -0.0000296  -0.0002645   0.0002797   0.0004240  -0.0001197   0.0002402
    3  -0.0000730   0.0001501  -0.0000656   0.0000411   0.0000036  -0.0000406
            7           8           9          10          11          12
    1  -0.0003428  -0.0011190   0.0010298  -0.0003184   0.0001468   0.0001404
    2  -0.0006456  -0.0010590   0.0009483   0.0004129   0.0000444   0.0000434
    3  -0.0000274   0.0000173  -0.0000908   0.0000721   0.0002388  -0.0002427
           13          14
    1   0.0000244  -0.0000709
    2  -0.0001443  -0.0001302
    3  -0.0002246   0.0002416
 Gradient of SCF Energy
            1           2           3           4           5           6
    1  -0.0063259  -0.0026479   0.0080672   0.0046926   0.1555165  -0.0490918
    2  -0.0316896  -0.0001942   0.0328365  -0.0070785  -0.0262918   0.0017713
    3   0.0016959   0.0003400  -0.0021716   0.0000869  -0.0183420   0.0045028
            7           8           9          10          11          12
    1  -0.0457501   0.0271146  -0.0123577  -0.0590353  -0.0183943  -0.0181300
    2   0.0671912   0.0192091  -0.0280119  -0.0435547  -0.0087729  -0.0069928
    3   0.0118067   0.0009993  -0.0004917   0.0018648  -0.0329754   0.0332845
           13          14
    1   0.0087195   0.0076226
    2   0.0159221   0.0156563
    3   0.0301323  -0.0307325
 Max gradient component =       1.555E-01
 RMS gradient           =       3.435E-02
 Computing fast CPCM-SWIG gradient
 Updating gradient with PCM contributions...
 -- total gradient after adding PCM contribution --
---------------------------------------------------
  Atom         X              Y              Z     
---------------------------------------------------
   1       0.000158       0.000386      -0.000035
   2      -0.000151      -0.000095       0.000007
   3      -0.000030      -0.000258       0.000032
   4       0.000024      -0.000009       0.000016
   5      -0.000015       0.000007      -0.000002
   6       0.000003      -0.000013       0.000008
   7      -0.000002       0.000002       0.000008
   8      -0.000035      -0.000012       0.000013
   9      -0.000053       0.000001      -0.000007
  10      -0.000002      -0.000004       0.000002
  11       0.000005       0.000011      -0.000002
  12       0.000001      -0.000001      -0.000008
  13       0.000068      -0.000030       0.000004
  14       0.000029       0.000015      -0.000036
---------------------------------------------------
 Number of fixed atoms: 0
 Gradient time:  CPU 539.69 s  wall 27.02 s
 ----------------------------------------------------------------
             Standard Nuclear Orientation (Angstroms)
    I     Atom           X                Y                Z
 ----------------------------------------------------------------
    1      O       4.1530939956    -3.1580883065     0.2673137932
    2      C       4.3771956256    -2.0227680818     0.1979382726
    3      O       4.6358376966    -0.8941669225     0.1324806683
    4      O       1.6625417854    -1.2780625765    -0.1472976630
    5      O      -0.8455671934     2.5219977436    -0.0839313237
    6      C      -1.9339614640     2.7651534904     0.0498941036
    7      O      -3.0811971999     3.1450385360     0.2029055151
    8      C       0.3244161905    -0.7767766997    -0.1305996909
    9      C       1.4652003222     0.1364738918    -0.1472279306
   10      H      -3.7961418261     2.4445905625     0.2079556941
   11      H      -0.2379169570    -0.9467876173    -1.0453827747
   12      H      -0.2137063279    -0.9431475427     0.7993329963
   13      H       1.7611017600     0.6387560640     0.7705406856
   14      H       1.7373081177     0.6359619873    -1.0739223486
 ----------------------------------------------------------------
 Nuclear Repulsion Energy =         372.96217295 hartrees
 There are       34 alpha and       34 beta electrons
 Discretize the solute cavity surface with Lebedev spheres
	Using 110 Lebedev grid points for each H atom
	Using 194 Lebedev grid points for other atoms
	Atomic van der Waals radii will be scaled by 1.20
 Remove points where switching function is < 1.0e-08
 Keep 1141 surface tesserae and discard 1155 interior tesserae
 Molecular Surface Area = 241.700 Angst**2

                       Distance Matrix (Angstroms)
             O (  1)   C (  2)   O (  3)   O (  4)   O (  5)   C (  6)
   C (  2)  1.159304
   O (  3)  2.318741  1.159707
   O (  4)  3.147896  2.836039  3.011003
   O (  5)  7.574521  6.929040  6.462416  4.553579
   C (  6)  8.496135  7.923182  7.520619  5.414916  1.123226
   O (  7)  9.595235  9.073801  8.710498  6.495346  2.338482  1.218144
   C (  8)  4.526340  4.252699  4.321035  1.429037  3.500422  4.204535
   C (  9)  4.272091  3.641591  3.345654  1.428236  3.321803  4.301525
   H ( 10)  9.725425  9.314550  9.069249  6.616765  2.965987  1.896170
   H ( 11)  5.088615  4.899270  5.014341  2.127920  3.650493  4.225483
   H ( 12)  4.925236  4.754328  4.895423  2.128047  3.631341  4.156012
   H ( 13)  4.515627  3.775650  3.319801  2.127519  3.327378  4.323701
   H ( 14)  4.693586  3.956701  3.492589  2.127842  3.347904  4.390289
             O (  7)   C (  8)   C (  9)   H ( 10)   H ( 11)   H ( 12)
   C (  8)  5.204812
   C (  9)  5.462947  1.461401
   H ( 10)  1.000899  5.241262  5.756325
   H ( 11)  5.136683  1.087175  2.209241  5.072797
   H ( 12)  5.029065  1.087212  2.209137  4.965918  1.844878
   H ( 13)  5.481927  2.209039  1.087265  5.870306  3.131709  2.530438
   H ( 14)  5.580658  2.209514  1.087333  5.960991  2.531289  3.131953
             H ( 13)
   H ( 14)  1.844619
 
 Requested basis set is def2-TZVPPD
 There are 157 shells and 433 basis functions
 A cutoff of  1.0D-14 yielded  10206 shell pairs
 There are     76688 function pairs (     97957 Cartesian)
 Smallest overlap matrix eigenvalue = 5.69E-06
 Guess MOs from SCF MO coefficient file

 -----------------------------------------------------------------------
  General SCF calculation program by
  Eric Jon Sundstrom, Paul Horn, Yuezhi Mao, Dmitri Zuev, Alec White,
  David Stuck, Shaama M.S., Shane Yost, Joonho Lee, David Small,
  Daniel Levine, Susi Lehtola, Hugh Burton, Evgeny Epifanovsky,
  Bang C. Huynh
 -----------------------------------------------------------------------
 Exchange:     0.1670 Hartree-Fock + 1.0000 wB97X-V + LR-HF
 Correlation:  1.0000 wB97X-V
 Using SG-3 standard quadrature grid
 Nonlocal Correlation:  VV10 with C = 0.0100 and b = 6.00 and scale = 1.00000
 Grid used for NLC:  SG-1 standard quadrature
 
 Citation of the SMD model:
 Marenich, A.V.; Cramer, C.J.; Truhlar, D.G.
 J. Phys. Chem. B 2009, 113, 6378-6396.
 iSolventCode=           0
 Solvent: other                                                           
 
 vradii
            1           2           3           4           5           6
    1   2.2940000   1.8500000   2.2940000   2.2940000   2.2940000   1.8500000
            7           8           9          10          11          12
    1   2.2940000   1.8500000   1.8500000   1.2000000   1.2000000   1.2000000
           13          14
    1   1.2000000   1.2000000
 using 32 threads for integral computing
 -------------------------------------------------------
 OpenMP Integral computing Module                
 Release: version 1.0, May 2013, Q-Chem Inc. Pittsburgh 
 -------------------------------------------------------
 using 32 threads for integral computing
 -------------------------------------------------------
 OpenMP Integral computing Module                
 Release: version 1.0, May 2013, Q-Chem Inc. Pittsburgh 
 -------------------------------------------------------
 -------------------------------------------------------
 OpenMP BLAS3 based DFT computing Module                
 Release: version 1.0, May 2013, Q-Chem Inc. Pittsburgh 
 -------------------------------------------------------
 -------------------------------------------------------
 OpenMP BLAS3 based DFT computing Module                
 Release: version 1.0, May 2013, Q-Chem Inc. Pittsburgh 
 -------------------------------------------------------
 -------------------------------------------------------
 OpenMP BLAS3 based DFT computing Module                
 Release: version 1.0, May 2013, Q-Chem Inc. Pittsburgh 
 -------------------------------------------------------
 A restricted SCF calculation will be
 performed using Roothaan-Hall, DIIS
 SCF converges when DIIS error is below 1.0e-08
 ---------------------------------------
  Cycle       Energy         DIIS error
 ---------------------------------------
    1    -539.2722108090      2.90e-04  Roothaan Step
 ---------------------------------------
  Cycle       Energy         DIIS error
 ---------------------------------------
    1    -531.3351189533      4.08e-04  
    2    -531.3363601689      5.06e-04  
    3    -531.3402093868      5.02e-05  
    4    -531.3402732757      3.48e-05  
    5    -531.3402942716      1.49e-05  
    6    -531.3402992450      2.38e-06  
    7    -531.3402994082      1.52e-06  
    8    -531.3402994526      3.14e-07  
    9    -531.3402994561      1.68e-07  
   10    -531.3402994567      6.15e-08  
   11    -531.3402994568      1.95e-08  
   12    -531.3402994568      4.55e-09  Convergence criterion met
 ---------------------------------------
 SCF time:   CPU 2515.66s  wall 102.00s 
(3)  G-ENP(liq) elect-nuc-pol free energy of system     -531.340299457 a.u.
(4)  G-CDS(liq) cavity-dispersion-solvent structure 
     free energy                                               -2.3805 kcal/mol
(6)  G-S(liq) free energy of system                     -531.344092949 a.u.
 SCF   energy in the final basis set =     -531.3402994568
 Total energy in the final basis set =     -531.3440929491
 
 --------------------------------------------------------------
 
                    Orbital Energies (a.u.)
 --------------------------------------------------------------
 
 Alpha MOs
 -- Occupied --
-19.4651 -19.4362 -19.2884 -19.2881 -19.2354 -10.6099 -10.4548 -10.3228
-10.3220  -1.4473  -1.4062  -1.2909  -1.2467  -1.2135  -0.9396  -0.8107
 -0.7853  -0.7669  -0.7665  -0.7607  -0.6801  -0.6560  -0.6367  -0.6349
 -0.6335  -0.6316  -0.6242  -0.5954  -0.5092  -0.4900  -0.4758  -0.4749
 -0.4276  -0.3905
 -- Virtual --
 -0.0328  -0.0071   0.0021   0.0447   0.0630   0.0724   0.0795   0.0801
  0.0877   0.0948   0.1046   0.1089   0.1181   0.1205   0.1268   0.1289
  0.1323   0.1357   0.1378   0.1427   0.1529   0.1621   0.1690   0.1723
  0.1806   0.1827   0.1934   0.1999   0.2148   0.2212   0.2281   0.2378
  0.2422   0.2534   0.2560   0.2622   0.2666   0.2755   0.2844   0.2961
  0.3035   0.3058   0.3159   0.3187   0.3205   0.3277   0.3336   0.3388
  0.3446   0.3466   0.3655   0.3666   0.3713   0.3745   0.3824   0.3875
  0.3934   0.3973   0.4005   0.4052   0.4078   0.4132   0.4210   0.4286
  0.4350   0.4372   0.4428   0.4513   0.4600   0.4640   0.4651   0.4795
  0.4878   0.4919   0.4984   0.5003   0.5052   0.5132   0.5305   0.5349
  0.5387   0.5508   0.5524   0.5553   0.5679   0.5737   0.5827   0.5889
  0.5952   0.5994   0.6045   0.6053   0.6230   0.6305   0.6425   0.6579
  0.6702   0.6793   0.6910   0.6977   0.7118   0.7221   0.7294   0.7377
  0.7563   0.7693   0.7787   0.7866   0.7882   0.7931   0.7934   0.8042
  0.8082   0.8144   0.8329   0.8358   0.8646   0.8788   0.8800   0.8923
  0.8984   0.9068   0.9140   0.9248   0.9379   0.9415   0.9561   0.9702
  0.9832   0.9909   0.9926   0.9949   1.0022   1.0155   1.0185   1.0290
  1.0421   1.0681   1.0848   1.0958   1.1156   1.1248   1.1313   1.1548
  1.1721   1.1960   1.2029   1.2080   1.2123   1.2265   1.2431   1.2688
  1.2778   1.2852   1.2881   1.2973   1.3166   1.3390   1.3449   1.3531
  1.3733   1.3858   1.4102   1.4309   1.4489   1.5114   1.5154   1.5592
  1.6331   1.6684   1.6859   1.7008   1.7092   1.7174   1.7320   1.7531
  1.7576   1.7730   1.7881   1.8029   1.8207   1.8327   1.8475   1.8805
  1.8883   1.9011   1.9059   1.9143   1.9188   1.9354   1.9518   1.9757
  1.9812   2.0240   2.0307   2.0657   2.0885   2.0949   2.1045   2.1315
  2.1706   2.2137   2.2223   2.2473   2.3149   2.3450   2.3746   2.3854
  2.4270   2.4625   2.4881   2.5020   2.5125   2.5413   2.5743   2.5769
  2.6368   2.7140   2.7252   2.7477   2.7608   2.7781   2.7977   2.8188
  2.8215   2.8805   2.9196   2.9443   2.9477   2.9653   2.9684   2.9739
  2.9820   2.9923   3.0025   3.0127   3.0295   3.0402   3.0473   3.0512
  3.0653   3.0752   3.1051   3.1230   3.1333   3.1389   3.1528   3.1573
  3.1761   3.1967   3.2054   3.2227   3.2285   3.2901   3.2946   3.3005
  3.3305   3.3420   3.3559   3.3612   3.3923   3.4213   3.4367   3.4579
  3.4834   3.5124   3.5164   3.5270   3.5287   3.5658   3.5819   3.6224
  3.6368   3.6807   3.6936   3.7229   3.7456   3.7617   3.7731   3.7992
  3.8034   3.8165   3.8183   3.8392   3.8758   3.8980   3.9639   4.0010
  4.0393   4.0421   4.0482   4.0608   4.1088   4.1472   4.2012   4.2141
  4.2921   4.3049   4.3232   4.3747   4.3802   4.3870   4.3943   4.4340
  4.4850   4.6391   4.6587   4.7043   4.7365   4.7808   4.7959   4.8100
  4.9614   4.9842   4.9859   5.0644   5.0921   5.1021   5.1165   5.1199
  5.1777   5.1880   5.2027   5.2419   5.2459   5.2525   5.2545   5.2977
  5.3081   5.3245   5.3282   5.3538   5.4162   5.4767   5.5552   5.5810
  5.6204   5.6567   5.6815   5.7132   5.7145   5.7334   5.7739   5.8872
  5.9329   5.9390   5.9739   6.0696   6.0711   6.1559   6.1924   6.2539
  6.2622   6.3259   6.3299   6.4121   6.4160   6.4243   6.4270   6.4512
  6.4838   6.5229   6.5388   6.5436   6.5556   6.5779   6.6003   6.6191
  6.6668   6.7879   6.8585   6.8647   6.8816   6.9595   6.9801   7.0423
  7.0463   7.0529   7.0728   7.1015   7.2123   7.2325   7.2927   7.3238
  7.3339   7.4951   7.5977   7.6543   7.8739   7.8760  23.6640  23.6957
 24.0187  24.3338  44.0684  44.1524  44.3490  44.4058  44.4478
 --------------------------------------------------------------
 
          Ground-State Mulliken Net Atomic Charges

     Atom                 Charge (a.u.)
  ----------------------------------------
      1 O                    -0.304805
      2 C                     0.629013
      3 O                    -0.309560
      4 O                    -0.351622
      5 O                     0.021206
      6 C                     0.705153
      7 O                    -0.106539
      8 C                    -0.048064
      9 C                     0.174214
     10 H                     0.369795
     11 H                     0.065431
     12 H                     0.057538
     13 H                     0.047770
     14 H                     0.050471
  ----------------------------------------
  Sum of atomic charges =     1.000000

  Building new vdw surfaces
         Merz-Kollman RESP Net Atomic Charges

     Atom                 Charge (a.u.)
  ----------------------------------------
      1 O                    -0.390248
      2 C                     0.737365
      3 O                    -0.370493
      4 O                    -0.223527
      5 O                    -0.097548
      6 C                     0.776390
      7 O                    -0.205397
      8 C                    -0.253434
      9 C                    -0.253434
     10 H                     0.521946
     11 H                     0.189595
     12 H                     0.189595
     13 H                     0.189595
     14 H                     0.189595
  ----------------------------------------
  Sum of atomic charges =     1.000000

  Related Dipole Moment =    20.5987 (X -15.0136 Y 14.0941 Z  0.5068)

 -----------------------------------------------------------------
                    Cartesian Multipole Moments
 -----------------------------------------------------------------
    Charge (ESU x 10^10)
                 4.8032
    Dipole Moment (Debye)
         X     -15.0004      Y      14.1197      Z       0.5329
       Tot      20.6074
    Quadrupole Moments (Debye-Ang)
        XX     -11.4138     XY     -27.4962     YY     -23.3334
        XZ      -1.6297     YZ       1.3100     ZZ     -45.8895
    Octopole Moments (Debye-Ang^2)
       XXX    -333.2851    XXY     104.1876    XYY    -162.1428
       YYY     121.6954    XXZ       5.5296    XYZ      -3.6608
       YYZ       0.0212    XZZ     -58.0182    YZZ       2.8070
       ZZZ      -4.1851
    Hexadecapole Moments (Debye-Ang^3)
      XXXX   -1958.1216   XXXY     329.7535   XXYY    -451.7897
      XYYY     592.1409   YYYY   -1148.2580   XXXZ     -45.3168
      XXYZ      20.1278   XYYZ     -22.9435   YYYZ      22.9846
      XXZZ    -403.2386   XYZZ     224.1813   YYZZ    -217.1379
      XZZZ     -19.9165   YZZZ       7.5485   ZZZZ     -59.7659
 -----------------------------------------------------------------
 Calculating analytic gradient of the SCF energy
 Gradient of CDS energy
            1           2           3           4           5           6
    1  -0.0007215   0.0012266  -0.0007023  -0.0000303   0.0001095   0.0006278
    2  -0.0000293  -0.0002637   0.0002797   0.0004229  -0.0001197   0.0002402
    3  -0.0000732   0.0001501  -0.0000656   0.0000413   0.0000036  -0.0000406
            7           8           9          10          11          12
    1  -0.0003428  -0.0011190   0.0010298  -0.0003184   0.0001468   0.0001404
    2  -0.0006456  -0.0010590   0.0009483   0.0004129   0.0000444   0.0000434
    3  -0.0000274   0.0000173  -0.0000908   0.0000721   0.0002388  -0.0002427
           13          14
    1   0.0000244  -0.0000709
    2  -0.0001443  -0.0001302
    3  -0.0002246   0.0002416
 Gradient of SCF Energy
            1           2           3           4           5           6
    1  -0.0067190  -0.0021248   0.0079269   0.0047012   0.1555141  -0.0490912
    2  -0.0324383   0.0004203   0.0329829  -0.0070902  -0.0262914   0.0017718
    3   0.0017396   0.0003024  -0.0021799   0.0000872  -0.0183416   0.0045026
            7           8           9          10          11          12
    1  -0.0457490   0.0271093  -0.0123543  -0.0590346  -0.0183921  -0.0181282
    2   0.0671903   0.0192104  -0.0280102  -0.0435541  -0.0087731  -0.0069923
    3   0.0118065   0.0010010  -0.0004911   0.0018648  -0.0329719   0.0332812
           13          14
    1   0.0087199   0.0076220
    2   0.0159197   0.0156542
    3   0.0301313  -0.0307322
 Max gradient component =       1.555E-01
 RMS gradient           =       3.437E-02
 Computing fast CPCM-SWIG gradient
 Updating gradient with PCM contributions...
 -- total gradient after adding PCM contribution --
---------------------------------------------------
  Atom         X              Y              Z     
---------------------------------------------------
   1      -0.000147      -0.000358       0.000009
   2       0.000259       0.000549      -0.000033
   3      -0.000145      -0.000147       0.000027
   4       0.000033      -0.000018       0.000017
   5      -0.000015       0.000007      -0.000002
   6       0.000003      -0.000013       0.000008
   7      -0.000002       0.000002       0.000008
   8      -0.000037      -0.000012       0.000013
   9      -0.000051       0.000001      -0.000007
  10      -0.000002      -0.000004       0.000002
  11       0.000006       0.000010      -0.000002
  12       0.000002      -0.000001      -0.000008
  13       0.000068      -0.000031       0.000004
  14       0.000029       0.000014      -0.000036
---------------------------------------------------
 Number of fixed atoms: 0
 Gradient time:  CPU 563.62 s  wall 28.28 s
 ----------------------------------------------------------------
             Standard Nuclear Orientation (Angstroms)
    I     Atom           X                Y                Z
 ----------------------------------------------------------------
    1      O       4.1540939956    -3.1570883065     0.2673137932
    2      C       4.3771956256    -2.0227680818     0.1979382726
    3      O       4.6358376966    -0.8941669225     0.1324806683
    4      O       1.6625417854    -1.2780625765    -0.1472976630
    5      O      -0.8455671934     2.5219977436    -0.0839313237
    6      C      -1.9339614640     2.7651534904     0.0498941036
    7      O      -3.0811971999     3.1450385360     0.2029055151
    8      C       0.3244161905    -0.7767766997    -0.1305996909
    9      C       1.4652003222     0.1364738918    -0.1472279306
   10      H      -3.7961418261     2.4445905625     0.2079556941
   11      H      -0.2379169570    -0.9467876173    -1.0453827747
   12      H      -0.2137063279    -0.9431475427     0.7993329963
   13      H       1.7611017600     0.6387560640     0.7705406856
   14      H       1.7373081177     0.6359619873    -1.0739223486
 ----------------------------------------------------------------
 Nuclear Repulsion Energy =         372.99092765 hartrees
 There are       34 alpha and       34 beta electrons
 Discretize the solute cavity surface with Lebedev spheres
	Using 110 Lebedev grid points for each H atom
	Using 194 Lebedev grid points for other atoms
	Atomic van der Waals radii will be scaled by 1.20
 Remove points where switching function is < 1.0e-08
 Keep 1141 surface tesserae and discard 1155 interior tesserae
 Molecular Surface Area = 241.690 Angst**2

                       Distance Matrix (Angstroms)
             O (  1)   C (  2)   O (  3)   O (  4)   O (  5)   C (  6)
   C (  2)  1.158132
   O (  3)  2.317557  1.159707
   O (  4)  3.148090  2.836039  3.011003
   O (  5)  7.574431  6.929040  6.462416  4.553579
   C (  6)  8.496154  7.923182  7.520619  5.414916  1.123226
   O (  7)  9.595332  9.073801  8.710498  6.495346  2.338482  1.218144
   C (  8)  4.526660  4.252699  4.321035  1.429037  3.500422  4.204535
   C (  9)  4.271949  3.641591  3.345654  1.428236  3.321803  4.301525
   H ( 10)  9.725666  9.314550  9.069249  6.616765  2.965987  1.896170
   H ( 11)  5.089043  4.899270  5.014341  2.127920  3.650493  4.225483
   H ( 12)  4.925673  4.754328  4.895423  2.128047  3.631341  4.156012
   H ( 13)  4.515317  3.775650  3.319801  2.127519  3.327378  4.323701
   H ( 14)  4.693293  3.956701  3.492589  2.127842  3.347904  4.390289
             O (  7)   C (  8)   C (  9)   H ( 10)   H ( 11)   H ( 12)
   C (  8)  5.204812
   C (  9)  5.462947  1.461401
   H ( 10)  1.000899  5.241262  5.756325
   H ( 11)  5.136683  1.087175  2.209241  5.072797
   H ( 12)  5.029065  1.087212  2.209137  4.965918  1.844878
   H ( 13)  5.481927  2.209039  1.087265  5.870306  3.131709  2.530438
   H ( 14)  5.580658  2.209514  1.087333  5.960991  2.531289  3.131953
             H ( 13)
   H ( 14)  1.844619
 
 Requested basis set is def2-TZVPPD
 There are 157 shells and 433 basis functions
 A cutoff of  1.0D-14 yielded  10206 shell pairs
 There are     76688 function pairs (     97957 Cartesian)
 Smallest overlap matrix eigenvalue = 5.69E-06
 Guess MOs from SCF MO coefficient file

 -----------------------------------------------------------------------
  General SCF calculation program by
  Eric Jon Sundstrom, Paul Horn, Yuezhi Mao, Dmitri Zuev, Alec White,
  David Stuck, Shaama M.S., Shane Yost, Joonho Lee, David Small,
  Daniel Levine, Susi Lehtola, Hugh Burton, Evgeny Epifanovsky,
  Bang C. Huynh
 -----------------------------------------------------------------------
 Exchange:     0.1670 Hartree-Fock + 1.0000 wB97X-V + LR-HF
 Correlation:  1.0000 wB97X-V
 Using SG-3 standard quadrature grid
 Nonlocal Correlation:  VV10 with C = 0.0100 and b = 6.00 and scale = 1.00000
 Grid used for NLC:  SG-1 standard quadrature
 
 Citation of the SMD model:
 Marenich, A.V.; Cramer, C.J.; Truhlar, D.G.
 J. Phys. Chem. B 2009, 113, 6378-6396.
 iSolventCode=           0
 Solvent: other                                                           
 
 vradii
            1           2           3           4           5           6
    1   2.2940000   1.8500000   2.2940000   2.2940000   2.2940000   1.8500000
            7           8           9          10          11          12
    1   2.2940000   1.8500000   1.8500000   1.2000000   1.2000000   1.2000000
           13          14
    1   1.2000000   1.2000000
 using 32 threads for integral computing
 -------------------------------------------------------
 OpenMP Integral computing Module                
 Release: version 1.0, May 2013, Q-Chem Inc. Pittsburgh 
 -------------------------------------------------------
 using 32 threads for integral computing
 -------------------------------------------------------
 OpenMP Integral computing Module                
 Release: version 1.0, May 2013, Q-Chem Inc. Pittsburgh 
 -------------------------------------------------------
 -------------------------------------------------------
 OpenMP BLAS3 based DFT computing Module                
 Release: version 1.0, May 2013, Q-Chem Inc. Pittsburgh 
 -------------------------------------------------------
 -------------------------------------------------------
 OpenMP BLAS3 based DFT computing Module                
 Release: version 1.0, May 2013, Q-Chem Inc. Pittsburgh 
 -------------------------------------------------------
 -------------------------------------------------------
 OpenMP BLAS3 based DFT computing Module                
 Release: version 1.0, May 2013, Q-Chem Inc. Pittsburgh 
 -------------------------------------------------------
 A restricted SCF calculation will be
 performed using Roothaan-Hall, DIIS
 SCF converges when DIIS error is below 1.0e-08
 ---------------------------------------
  Cycle       Energy         DIIS error
 ---------------------------------------
    1    -539.2722027585      2.90e-04  Roothaan Step
 ---------------------------------------
  Cycle       Energy         DIIS error
 ---------------------------------------
    1    -531.3351230539      4.08e-04  
    2    -531.3363741341      5.05e-04  
    3    -531.3402063769      5.02e-05  
    4    -531.3402702676      3.47e-05  
    5    -531.3402911300      1.50e-05  
    6    -531.3402961062      2.38e-06  
    7    -531.3402962696      1.51e-06  
    8    -531.3402963136      3.11e-07  
    9    -531.3402963171      1.62e-07  
   10    -531.3402963177      6.22e-08  
   11    -531.3402963178      1.96e-08  
   12    -531.3402963178      4.59e-09  Convergence criterion met
 ---------------------------------------
 SCF time:   CPU 2578.90s  wall 104.00s 
(3)  G-ENP(liq) elect-nuc-pol free energy of system     -531.340296318 a.u.
(4)  G-CDS(liq) cavity-dispersion-solvent structure 
     free energy                                               -2.3813 kcal/mol
(6)  G-S(liq) free energy of system                     -531.344091224 a.u.
 SCF   energy in the final basis set =     -531.3402963178
 Total energy in the final basis set =     -531.3440912244
 
 --------------------------------------------------------------
 
                    Orbital Energies (a.u.)
 --------------------------------------------------------------
 
 Alpha MOs
 -- Occupied --
-19.4651 -19.4362 -19.2882 -19.2881 -19.2354 -10.6099 -10.4546 -10.3228
-10.3220  -1.4473  -1.4062  -1.2911  -1.2470  -1.2135  -0.9396  -0.8107
 -0.7853  -0.7669  -0.7665  -0.7607  -0.6800  -0.6560  -0.6368  -0.6350
 -0.6335  -0.6318  -0.6242  -0.5954  -0.5092  -0.4900  -0.4758  -0.4749
 -0.4276  -0.3905
 -- Virtual --
 -0.0328  -0.0071   0.0021   0.0447   0.0630   0.0724   0.0795   0.0801
  0.0877   0.0948   0.1046   0.1089   0.1181   0.1205   0.1268   0.1290
  0.1325   0.1360   0.1379   0.1427   0.1529   0.1621   0.1690   0.1723
  0.1806   0.1827   0.1934   0.1999   0.2148   0.2212   0.2281   0.2378
  0.2422   0.2534   0.2560   0.2622   0.2666   0.2755   0.2844   0.2961
  0.3035   0.3058   0.3159   0.3187   0.3205   0.3277   0.3336   0.3389
  0.3446   0.3467   0.3655   0.3666   0.3713   0.3744   0.3824   0.3875
  0.3935   0.3973   0.4005   0.4053   0.4078   0.4132   0.4211   0.4286
  0.4350   0.4372   0.4428   0.4514   0.4600   0.4640   0.4651   0.4795
  0.4878   0.4919   0.4985   0.5003   0.5052   0.5133   0.5305   0.5349
  0.5388   0.5508   0.5524   0.5554   0.5679   0.5737   0.5827   0.5889
  0.5952   0.5994   0.6045   0.6053   0.6231   0.6306   0.6425   0.6579
  0.6702   0.6793   0.6910   0.6977   0.7118   0.7221   0.7294   0.7377
  0.7563   0.7694   0.7787   0.7866   0.7882   0.7931   0.7934   0.8042
  0.8082   0.8144   0.8329   0.8358   0.8647   0.8788   0.8800   0.8923
  0.8984   0.9069   0.9140   0.9248   0.9379   0.9415   0.9561   0.9702
  0.9832   0.9909   0.9927   0.9949   1.0022   1.0154   1.0186   1.0290
  1.0422   1.0681   1.0852   1.0965   1.1156   1.1248   1.1313   1.1548
  1.1721   1.1960   1.2030   1.2080   1.2124   1.2265   1.2432   1.2690
  1.2782   1.2854   1.2883   1.2974   1.3167   1.3390   1.3450   1.3531
  1.3733   1.3858   1.4102   1.4309   1.4489   1.5114   1.5154   1.5592
  1.6331   1.6684   1.6859   1.7008   1.7092   1.7174   1.7321   1.7531
  1.7577   1.7730   1.7881   1.8029   1.8207   1.8328   1.8476   1.8805
  1.8887   1.9011   1.9057   1.9143   1.9188   1.9355   1.9520   1.9759
  1.9813   2.0241   2.0313   2.0657   2.0887   2.0951   2.1046   2.1315
  2.1701   2.2137   2.2223   2.2473   2.3149   2.3450   2.3746   2.3854
  2.4270   2.4625   2.4885   2.5021   2.5125   2.5414   2.5743   2.5769
  2.6379   2.7140   2.7252   2.7477   2.7608   2.7781   2.7977   2.8188
  2.8215   2.8805   2.9196   2.9443   2.9477   2.9654   2.9685   2.9740
  2.9820   2.9923   3.0025   3.0128   3.0300   3.0407   3.0473   3.0517
  3.0655   3.0754   3.1053   3.1230   3.1333   3.1389   3.1529   3.1574
  3.1761   3.1967   3.2054   3.2228   3.2285   3.2901   3.2946   3.3005
  3.3306   3.3420   3.3561   3.3613   3.3923   3.4213   3.4370   3.4580
  3.4834   3.5126   3.5166   3.5271   3.5298   3.5658   3.5825   3.6223
  3.6368   3.6807   3.6936   3.7230   3.7456   3.7620   3.7733   3.8001
  3.8034   3.8170   3.8186   3.8395   3.8758   3.8980   3.9639   4.0010
  4.0393   4.0421   4.0483   4.0609   4.1088   4.1472   4.2012   4.2141
  4.2921   4.3049   4.3233   4.3747   4.3802   4.3870   4.3943   4.4340
  4.4850   4.6391   4.6587   4.7043   4.7365   4.7808   4.7959   4.8100
  4.9614   4.9842   4.9892   5.0644   5.0921   5.1021   5.1165   5.1199
  5.1776   5.1879   5.2027   5.2419   5.2462   5.2526   5.2546   5.2977
  5.3081   5.3251   5.3287   5.3526   5.4162   5.4767   5.5552   5.5810
  5.6204   5.6567   5.6815   5.7132   5.7145   5.7334   5.7739   5.8872
  5.9344   5.9405   5.9739   6.0696   6.0711   6.1585   6.1924   6.2566
  6.2650   6.3259   6.3299   6.4121   6.4160   6.4243   6.4270   6.4512
  6.4838   6.5230   6.5390   6.5436   6.5559   6.5781   6.5996   6.6191
  6.6667   6.7879   6.8586   6.8647   6.8816   6.9592   6.9801   7.0424
  7.0470   7.0529   7.0728   7.1013   7.2135   7.2338   7.2927   7.3238
  7.3339   7.4951   7.5996   7.6544   7.8740   7.8788  23.6640  23.6957
 24.0187  24.3400  44.0684  44.1545  44.3490  44.4058  44.4481
 --------------------------------------------------------------
 
          Ground-State Mulliken Net Atomic Charges

     Atom                 Charge (a.u.)
  ----------------------------------------
      1 O                    -0.302922
      2 C                     0.627509
      3 O                    -0.309940
      4 O                    -0.351639
      5 O                     0.021208
      6 C                     0.705154
      7 O                    -0.106539
      8 C                    -0.048059
      9 C                     0.174314
     10 H                     0.369794
     11 H                     0.065431
     12 H                     0.057536
     13 H                     0.047720
     14 H                     0.050431
  ----------------------------------------
  Sum of atomic charges =     1.000000

  Building new vdw surfaces
         Merz-Kollman RESP Net Atomic Charges

     Atom                 Charge (a.u.)
  ----------------------------------------
      1 O                    -0.390077
      2 C                     0.738189
      3 O                    -0.371446
      4 O                    -0.223635
      5 O                    -0.097544
      6 C                     0.776371
      7 O                    -0.205382
      8 C                    -0.253382
      9 C                    -0.253382
     10 H                     0.521941
     11 H                     0.189587
     12 H                     0.189587
     13 H                     0.189587
     14 H                     0.189587
  ----------------------------------------
  Sum of atomic charges =     1.000000

  Related Dipole Moment =    20.5954 (X -15.0165 Y 14.0862 Z  0.5072)

 -----------------------------------------------------------------
                    Cartesian Multipole Moments
 -----------------------------------------------------------------
    Charge (ESU x 10^10)
                 4.8032
    Dipole Moment (Debye)
         X     -15.0031      Y      14.1120      Z       0.5333
       Tot      20.6040
    Quadrupole Moments (Debye-Ang)
        XX     -11.4345     XY     -27.5243     YY     -23.2994
        XZ      -1.6286     YZ       1.3077     ZZ     -45.8863
    Octopole Moments (Debye-Ang^2)
       XXX    -333.4187    XXY     104.0742    XYY    -162.0160
       YYY     121.5469    XXZ       5.5330    XYZ      -3.6691
       YYZ       0.0296    XZZ     -58.0105    YZZ       2.7885
       ZZZ      -4.1820
    Hexadecapole Moments (Debye-Ang^3)
      XXXX   -1958.9795   XXXY     329.2799   XXYY    -451.2564
      XYYY     591.5927   YYYY   -1147.5567   XXXZ     -45.3088
      XXYZ      20.0931   XYYZ     -22.9121   YYYZ      22.9493
      XXZZ    -403.2300   XYZZ     224.1213   YYZZ    -217.0613
      XZZZ     -19.9082   YZZZ       7.5341   ZZZZ     -59.7587
 -----------------------------------------------------------------
 Calculating analytic gradient of the SCF energy
 Gradient of CDS energy
            1           2           3           4           5           6
    1  -0.0007205   0.0012258  -0.0007023  -0.0000305   0.0001095   0.0006278
    2  -0.0000255  -0.0002678   0.0002797   0.0004233  -0.0001197   0.0002402
    3  -0.0000734   0.0001504  -0.0000656   0.0000412   0.0000036  -0.0000406
            7           8           9          10          11          12
    1  -0.0003428  -0.0011190   0.0010298  -0.0003184   0.0001468   0.0001404
    2  -0.0006456  -0.0010590   0.0009483   0.0004129   0.0000444   0.0000434
    3  -0.0000274   0.0000173  -0.0000908   0.0000721   0.0002388  -0.0002427
           13          14
    1   0.0000244  -0.0000709
    2  -0.0001443  -0.0001302
    3  -0.0002246   0.0002416
 Gradient of SCF Energy
            1           2           3           4           5           6
    1  -0.0061509  -0.0026931   0.0079314   0.0047004   0.1555104  -0.0490900
    2  -0.0301044  -0.0016092   0.0326691  -0.0070843  -0.0262908   0.0017712
    3   0.0016063   0.0004131  -0.0021562   0.0000868  -0.0183413   0.0045025
            7           8           9          10          11          12
    1  -0.0457476   0.0271132  -0.0123575  -0.0590344  -0.0183922  -0.0181284
    2   0.0671897   0.0192054  -0.0279976  -0.0435540  -0.0087725  -0.0069923
    3   0.0118063   0.0010005  -0.0004929   0.0018648  -0.0329729   0.0332823
           13          14
    1   0.0087174   0.0076212
    2   0.0159177   0.0156520
    3   0.0301259  -0.0307253
 Max gradient component =       1.555E-01
 RMS gradient           =       3.431E-02
 Computing fast CPCM-SWIG gradient
 Updating gradient with PCM contributions...
 -- total gradient after adding PCM contribution --
---------------------------------------------------
  Atom         X              Y              Z     
---------------------------------------------------
   1       0.000380       0.001954      -0.000127
   2      -0.000265      -0.001520       0.000085
   3      -0.000145      -0.000397       0.000046
   4       0.000030      -0.000015       0.000017
   5      -0.000015       0.000007      -0.000002
   6       0.000003      -0.000013       0.000008
   7      -0.000002       0.000002       0.000008
   8      -0.000036      -0.000012       0.000013
   9      -0.000053       0.000003      -0.000007
  10      -0.000002      -0.000004       0.000002
  11       0.000006       0.000010      -0.000002
  12       0.000002      -0.000001      -0.000008
  13       0.000068      -0.000030       0.000004
  14       0.000029       0.000014      -0.000036
---------------------------------------------------
 Number of fixed atoms: 0
 Gradient time:  CPU 509.78 s  wall 26.33 s
 ----------------------------------------------------------------
             Standard Nuclear Orientation (Angstroms)
    I     Atom           X                Y                Z
 ----------------------------------------------------------------
    1      O       4.1540939956    -3.1590883065     0.2673137932
    2      C       4.3771956256    -2.0227680818     0.1979382726
    3      O       4.6358376966    -0.8941669225     0.1324806683
    4      O       1.6625417854    -1.2780625765    -0.1472976630
    5      O      -0.8455671934     2.5219977436    -0.0839313237
    6      C      -1.9339614640     2.7651534904     0.0498941036
    7      O      -3.0811971999     3.1450385360     0.2029055151
    8      C       0.3244161905    -0.7767766997    -0.1305996909
    9      C       1.4652003222     0.1364738918    -0.1472279306
   10      H      -3.7961418261     2.4445905625     0.2079556941
   11      H      -0.2379169570    -0.9467876173    -1.0453827747
   12      H      -0.2137063279    -0.9431475427     0.7993329963
   13      H       1.7611017600     0.6387560640     0.7705406856
   14      H       1.7373081177     0.6359619873    -1.0739223486
 ----------------------------------------------------------------
 Nuclear Repulsion Energy =         372.93119123 hartrees
 There are       34 alpha and       34 beta electrons
 Discretize the solute cavity surface with Lebedev spheres
	Using 110 Lebedev grid points for each H atom
	Using 194 Lebedev grid points for other atoms
	Atomic van der Waals radii will be scaled by 1.20
 Remove points where switching function is < 1.0e-08
 Keep 1141 surface tesserae and discard 1155 interior tesserae
 Molecular Surface Area = 241.722 Angst**2

                       Distance Matrix (Angstroms)
             O (  1)   C (  2)   O (  3)   O (  4)   O (  5)   C (  6)
   C (  2)  1.160091
   O (  3)  2.319510  1.159707
   O (  4)  3.149285  2.836039  3.011003
   O (  5)  7.575931  6.929040  6.462416  4.553579
   C (  6)  8.497549  7.923182  7.520619  5.414916  1.123226
   O (  7)  9.596645  9.073801  8.710498  6.495346  2.338482  1.218144
   C (  8)  4.527712  4.252699  4.321035  1.429037  3.500422  4.204535
   C (  9)  4.273491  3.641591  3.345654  1.428236  3.321803  4.301525
   H ( 10)  9.726818  9.314550  9.069249  6.616765  2.965987  1.896170
   H ( 11)  5.089912  4.899270  5.014341  2.127920  3.650493  4.225483
   H ( 12)  4.926573  4.754328  4.895423  2.128047  3.631341  4.156012
   H ( 13)  4.516998  3.775650  3.319801  2.127519  3.327378  4.323701
   H ( 14)  4.694909  3.956701  3.492589  2.127842  3.347904  4.390289
             O (  7)   C (  8)   C (  9)   H ( 10)   H ( 11)   H ( 12)
   C (  8)  5.204812
   C (  9)  5.462947  1.461401
   H ( 10)  1.000899  5.241262  5.756325
   H ( 11)  5.136683  1.087175  2.209241  5.072797
   H ( 12)  5.029065  1.087212  2.209137  4.965918  1.844878
   H ( 13)  5.481927  2.209039  1.087265  5.870306  3.131709  2.530438
   H ( 14)  5.580658  2.209514  1.087333  5.960991  2.531289  3.131953
             H ( 13)
   H ( 14)  1.844619
 
 Requested basis set is def2-TZVPPD
 There are 157 shells and 433 basis functions
 A cutoff of  1.0D-14 yielded  10206 shell pairs
 There are     76688 function pairs (     97957 Cartesian)
 Smallest overlap matrix eigenvalue = 5.69E-06
 Guess MOs from SCF MO coefficient file

 -----------------------------------------------------------------------
  General SCF calculation program by
  Eric Jon Sundstrom, Paul Horn, Yuezhi Mao, Dmitri Zuev, Alec White,
  David Stuck, Shaama M.S., Shane Yost, Joonho Lee, David Small,
  Daniel Levine, Susi Lehtola, Hugh Burton, Evgeny Epifanovsky,
  Bang C. Huynh
 -----------------------------------------------------------------------
 Exchange:     0.1670 Hartree-Fock + 1.0000 wB97X-V + LR-HF
 Correlation:  1.0000 wB97X-V
 Using SG-3 standard quadrature grid
 Nonlocal Correlation:  VV10 with C = 0.0100 and b = 6.00 and scale = 1.00000
 Grid used for NLC:  SG-1 standard quadrature
 
 Citation of the SMD model:
 Marenich, A.V.; Cramer, C.J.; Truhlar, D.G.
 J. Phys. Chem. B 2009, 113, 6378-6396.
 iSolventCode=           0
 Solvent: other                                                           
 
 vradii
            1           2           3           4           5           6
    1   2.2940000   1.8500000   2.2940000   2.2940000   2.2940000   1.8500000
            7           8           9          10          11          12
    1   2.2940000   1.8500000   1.8500000   1.2000000   1.2000000   1.2000000
           13          14
    1   1.2000000   1.2000000
 using 32 threads for integral computing
 -------------------------------------------------------
 OpenMP Integral computing Module                
 Release: version 1.0, May 2013, Q-Chem Inc. Pittsburgh 
 -------------------------------------------------------
 using 32 threads for integral computing
[...]
   C (  2)  1.159111
   O (  3)  2.318533  1.159707
   O (  4)  3.148687  2.836039  3.011003
   O (  5)  7.575181  6.929040  6.462416  4.553579
   C (  6)  8.496851  7.923182  7.520619  5.414916  1.123226
   O (  7)  9.595988  9.073801  8.710498  6.495346  2.338482  1.218144
   C (  8)  4.527098  4.252622  4.320975  1.429049  3.500408  4.204492
   C (  9)  4.272720  3.641591  3.345654  1.428236  3.321803  4.301525
   H ( 10)  9.726242  9.314550  9.069249  6.616765  2.965987  1.896170
   H ( 11)  5.089478  4.899270  5.014341  2.127920  3.650493  4.225483
   H ( 12)  4.926123  4.754328  4.895423  2.128047  3.631341  4.156012
   H ( 13)  4.516157  3.775650  3.319801  2.127519  3.327378  4.323701
   H ( 14)  4.694101  3.956701  3.492589  2.127842  3.347904  4.390289
             O (  7)   C (  8)   C (  9)   H ( 10)   H ( 11)   H ( 12)
   C (  8)  5.204748
   C (  9)  5.462947  1.461412
   H ( 10)  1.000899  5.241197  5.756325
   H ( 11)  5.136683  1.088017  2.209241  5.072797
   H ( 12)  5.029065  1.086357  2.209137  4.965918  1.844878
   H ( 13)  5.481927  2.208631  1.087265  5.870306  3.131709  2.530438
   H ( 14)  5.580658  2.209941  1.087333  5.960991  2.531289  3.131953
             H ( 13)
   H ( 14)  1.844619
 
 Requested basis set is def2-TZVPPD
 There are 157 shells and 433 basis functions
 A cutoff of  1.0D-14 yielded  10206 shell pairs
 There are     76688 function pairs (     97957 Cartesian)
 Smallest overlap matrix eigenvalue = 5.69E-06
 Guess MOs from SCF MO coefficient file

 -----------------------------------------------------------------------
  General SCF calculation program by
  Eric Jon Sundstrom, Paul Horn, Yuezhi Mao, Dmitri Zuev, Alec White,
  David Stuck, Shaama M.S., Shane Yost, Joonho Lee, David Small,
  Daniel Levine, Susi Lehtola, Hugh Burton, Evgeny Epifanovsky,
  Bang C. Huynh
 -----------------------------------------------------------------------
 Exchange:     0.1670 Hartree-Fock + 1.0000 wB97X-V + LR-HF
 Correlation:  1.0000 wB97X-V
 Using SG-3 standard quadrature grid
 Nonlocal Correlation:  VV10 with C = 0.0100 and b = 6.00 and scale = 1.00000
 Grid used for NLC:  SG-1 standard quadrature
 
 Citation of the SMD model:
 Marenich, A.V.; Cramer, C.J.; Truhlar, D.G.
 J. Phys. Chem. B 2009, 113, 6378-6396.
 iSolventCode=           0
 Solvent: other                                                           
 
 vradii
            1           2           3           4           5           6
    1   2.2940000   1.8500000   2.2940000   2.2940000   2.2940000   1.8500000
            7           8           9          10          11          12
    1   2.2940000   1.8500000   1.8500000   1.2000000   1.2000000   1.2000000
           13          14
    1   1.2000000   1.2000000
 using 32 threads for integral computing
 -------------------------------------------------------
 OpenMP Integral computing Module                
 Release: version 1.0, May 2013, Q-Chem Inc. Pittsburgh 
 -------------------------------------------------------
 using 32 threads for integral computing
 -------------------------------------------------------
 OpenMP Integral computing Module                
 Release: version 1.0, May 2013, Q-Chem Inc. Pittsburgh 
 -------------------------------------------------------
 -------------------------------------------------------
 OpenMP BLAS3 based DFT computing Module                
 Release: version 1.0, May 2013, Q-Chem Inc. Pittsburgh 
 -------------------------------------------------------
 -------------------------------------------------------
 OpenMP BLAS3 based DFT computing Module                
 Release: version 1.0, May 2013, Q-Chem Inc. Pittsburgh 
 -------------------------------------------------------
 -------------------------------------------------------
 OpenMP BLAS3 based DFT computing Module                
 Release: version 1.0, May 2013, Q-Chem Inc. Pittsburgh 
 -------------------------------------------------------
 A restricted SCF calculation will be
 performed using Roothaan-Hall, DIIS
 SCF converges when DIIS error is below 1.0e-08
 ---------------------------------------
  Cycle       Energy         DIIS error
 ---------------------------------------
    1    -539.2720560724      2.90e-04  Roothaan Step
 ---------------------------------------
  Cycle       Energy         DIIS error
 ---------------------------------------
    1    -531.3351177782      4.08e-04  
    2    -531.3363611182      5.06e-04  
    3    -531.3402070076      5.02e-05  
    4    -531.3402709080      3.48e-05  
    5    -531.3402918782      1.49e-05  
    6    -531.3402968538      2.38e-06  
    7    -531.3402970170      1.51e-06  
    8    -531.3402970614      3.13e-07  
    9    -531.3402970648      1.66e-07  
   10    -531.3402970655      6.17e-08  
   11    -531.3402970656      1.94e-08  
   12    -531.3402970656      4.56e-09  Convergence criterion met
 ---------------------------------------
 SCF time:   CPU 2585.73s  wall 104.00s 
(3)  G-ENP(liq) elect-nuc-pol free energy of system     -531.340297066 a.u.
(4)  G-CDS(liq) cavity-dispersion-solvent structure 
     free energy                                               -2.3813 kcal/mol
(6)  G-S(liq) free energy of system                     -531.344091884 a.u.
 SCF   energy in the final basis set =     -531.3402970656
 Total energy in the final basis set =     -531.3440918842
 
 --------------------------------------------------------------
 
                    Orbital Energies (a.u.)
 --------------------------------------------------------------
 
 Alpha MOs
 -- Occupied --
-19.4651 -19.4362 -19.2884 -19.2881 -19.2354 -10.6099 -10.4548 -10.3228
-10.3220  -1.4473  -1.4062  -1.2909  -1.2467  -1.2135  -0.9396  -0.8107
 -0.7853  -0.7669  -0.7665  -0.7607  -0.6800  -0.6560  -0.6367  -0.6349
 -0.6335  -0.6317  -0.6242  -0.5954  -0.5092  -0.4900  -0.4758  -0.4749
 -0.4276  -0.3905
 -- Virtual --
 -0.0328  -0.0071   0.0021   0.0447   0.0630   0.0724   0.0795   0.0801
  0.0877   0.0948   0.1046   0.1089   0.1181   0.1205   0.1268   0.1289
  0.1324   0.1358   0.1378   0.1427   0.1529   0.1621   0.1690   0.1723
  0.1806   0.1827   0.1934   0.1999   0.2148   0.2212   0.2282   0.2378
  0.2422   0.2533   0.2560   0.2622   0.2666   0.2755   0.2844   0.2961
  0.3034   0.3058   0.3158   0.3187   0.3205   0.3277   0.3336   0.3388
  0.3446   0.3467   0.3655   0.3666   0.3713   0.3744   0.3824   0.3875
  0.3934   0.3973   0.4005   0.4052   0.4078   0.4132   0.4211   0.4286
  0.4350   0.4372   0.4428   0.4513   0.4600   0.4640   0.4651   0.4795
  0.4878   0.4919   0.4985   0.5002   0.5052   0.5133   0.5305   0.5349
  0.5387   0.5507   0.5524   0.5554   0.5679   0.5737   0.5827   0.5889
  0.5952   0.5994   0.6045   0.6053   0.6230   0.6305   0.6425   0.6579
  0.6702   0.6793   0.6910   0.6977   0.7118   0.7221   0.7294   0.7377
  0.7563   0.7693   0.7788   0.7867   0.7880   0.7930   0.7934   0.8041
  0.8082   0.8144   0.8329   0.8358   0.8646   0.8788   0.8800   0.8923
  0.8984   0.9068   0.9140   0.9248   0.9379   0.9415   0.9561   0.9702
  0.9832   0.9909   0.9926   0.9949   1.0021   1.0154   1.0185   1.0290
  1.0422   1.0681   1.0849   1.0959   1.1156   1.1247   1.1312   1.1548
  1.1721   1.1960   1.2029   1.2080   1.2123   1.2266   1.2431   1.2689
  1.2779   1.2852   1.2882   1.2973   1.3167   1.3390   1.3449   1.3531
  1.3734   1.3858   1.4103   1.4309   1.4489   1.5114   1.5153   1.5592
  1.6331   1.6684   1.6859   1.7007   1.7092   1.7175   1.7321   1.7531
  1.7576   1.7730   1.7881   1.8028   1.8207   1.8327   1.8476   1.8805
  1.8883   1.9011   1.9058   1.9143   1.9188   1.9355   1.9518   1.9758
  1.9812   2.0240   2.0308   2.0657   2.0886   2.0949   2.1045   2.1314
  2.1705   2.2137   2.2223   2.2473   2.3149   2.3450   2.3746   2.3854
  2.4269   2.4625   2.4882   2.5020   2.5125   2.5412   2.5743   2.5769
  2.6369   2.7140   2.7253   2.7477   2.7608   2.7781   2.7977   2.8187
  2.8215   2.8805   2.9196   2.9442   2.9477   2.9653   2.9684   2.9740
  2.9819   2.9923   3.0025   3.0128   3.0294   3.0403   3.0473   3.0514
  3.0654   3.0753   3.1051   3.1230   3.1333   3.1389   3.1527   3.1575
  3.1761   3.1966   3.2054   3.2229   3.2285   3.2901   3.2947   3.3004
  3.3306   3.3420   3.3559   3.3612   3.3923   3.4213   3.4368   3.4579
  3.4834   3.5122   3.5166   3.5270   3.5289   3.5659   3.5819   3.6223
  3.6368   3.6807   3.6936   3.7229   3.7456   3.7619   3.7731   3.7992
  3.8034   3.8166   3.8183   3.8393   3.8758   3.8980   3.9639   4.0010
  4.0392   4.0420   4.0484   4.0608   4.1088   4.1472   4.2011   4.2141
  4.2921   4.3049   4.3232   4.3748   4.3802   4.3869   4.3943   4.4340
  4.4850   4.6390   4.6587   4.7043   4.7366   4.7808   4.7959   4.8100
  4.9614   4.9842   4.9864   5.0643   5.0921   5.1021   5.1165   5.1199
  5.1777   5.1880   5.2027   5.2419   5.2460   5.2525   5.2545   5.2977
  5.3081   5.3247   5.3283   5.3533   5.4162   5.4767   5.5552   5.5810
  5.6204   5.6567   5.6815   5.7132   5.7145   5.7334   5.7738   5.8872
  5.9331   5.9392   5.9739   6.0696   6.0711   6.1563   6.1924   6.2544
  6.2628   6.3259   6.3299   6.4122   6.4160   6.4242   6.4269   6.4512
  6.4838   6.5229   6.5388   6.5436   6.5556   6.5779   6.6002   6.6190
  6.6669   6.7879   6.8585   6.8647   6.8816   6.9594   6.9801   7.0422
  7.0463   7.0529   7.0728   7.1016   7.2125   7.2327   7.2927   7.3238
  7.3339   7.4951   7.5980   7.6543   7.8739   7.8765  23.6640  23.6957
 24.0187  24.3347  44.0684  44.1527  44.3490  44.4057  44.4478
 --------------------------------------------------------------
 
          Ground-State Mulliken Net Atomic Charges

     Atom                 Charge (a.u.)
  ----------------------------------------
      1 O                    -0.304511
      2 C                     0.628745
      3 O                    -0.309599
      4 O                    -0.351691
      5 O                     0.021208
      6 C                     0.705154
      7 O                    -0.106540
      8 C                    -0.048067
      9 C                     0.174316
     10 H                     0.369795
     11 H                     0.065311
     12 H                     0.057686
     13 H                     0.047682
     14 H                     0.050512
  ----------------------------------------
  Sum of atomic charges =     1.000000

  Building new vdw surfaces
         Merz-Kollman RESP Net Atomic Charges

     Atom                 Charge (a.u.)
  ----------------------------------------
      1 O                    -0.390202
      2 C                     0.737641
      3 O                    -0.370689
      4 O                    -0.223849
      5 O                    -0.097672
      6 C                     0.776529
      7 O                    -0.205421
      8 C                    -0.253530
      9 C                    -0.253530
     10 H                     0.521933
     11 H                     0.189698
     12 H                     0.189698
     13 H                     0.189698
     14 H                     0.189698
  ----------------------------------------
  Sum of atomic charges =     1.000000

  Related Dipole Moment =    20.5994 (X -15.0152 Y 14.0933 Z  0.5059)

 -----------------------------------------------------------------
                    Cartesian Multipole Moments
 -----------------------------------------------------------------
    Charge (ESU x 10^10)
                 4.8032
    Dipole Moment (Debye)
         X     -15.0023      Y      14.1189      Z       0.5347
       Tot      20.6082
    Quadrupole Moments (Debye-Ang)
        XX     -11.4280     XY     -27.4951     YY     -23.3300
        XZ      -1.6327     YZ       1.3070     ZZ     -45.8893
    Octopole Moments (Debye-Ang^2)
       XXX    -333.3856    XXY     104.2108    XYY    -162.1471
       YYY     121.6826    XXZ       5.5193    XYZ      -3.6604
       YYZ       0.0210    XZZ     -58.0205    YZZ       2.8055
       ZZZ      -4.1959
    Hexadecapole Moments (Debye-Ang^3)
      XXXX   -1958.8354   XXXY     329.9718   XXYY    -451.8818
      XYYY     592.1739   YYYY   -1148.2078   XXXZ     -45.3580
      XXYZ      20.1341   XYYZ     -22.9491   YYYZ      22.9844
      XXZZ    -403.2720   XYZZ     224.1897   YYZZ    -217.1306
      XZZZ     -19.9287   YZZZ       7.5536   ZZZZ     -59.7581
 -----------------------------------------------------------------
 Calculating analytic gradient of the SCF energy
 Gradient of CDS energy
            1           2           3           4           5           6
    1  -0.0007204   0.0012257  -0.0007023  -0.0000305   0.0001095   0.0006278
    2  -0.0000294  -0.0002641   0.0002797   0.0004234  -0.0001197   0.0002402
    3  -0.0000731   0.0001501  -0.0000656   0.0000414   0.0000036  -0.0000406
            7           8           9          10          11          12
    1  -0.0003428  -0.0011190   0.0010298  -0.0003184   0.0001458   0.0001414
    2  -0.0006456  -0.0010590   0.0009484   0.0004129   0.0000441   0.0000437
    3  -0.0000274   0.0000208  -0.0000918   0.0000721   0.0002374  -0.0002441
           13          14
    1   0.0000244  -0.0000709
    2  -0.0001443  -0.0001302
    3  -0.0002246   0.0002416
 Gradient of SCF Energy
            1           2           3           4           5           6
    1  -0.0065223  -0.0023859   0.0079964   0.0046973   0.1555156  -0.0490912
    2  -0.0320635   0.0001120   0.0329101  -0.0070839  -0.0262914   0.0017710
    3   0.0017179   0.0003204  -0.0021748  -0.0000786  -0.0183436   0.0045057
            7           8           9          10          11          12
    1  -0.0457497   0.0271259  -0.0123600  -0.0590351  -0.0185670  -0.0179662
    2   0.0671911   0.0192037  -0.0280107  -0.0435548  -0.0088441  -0.0069157
    3   0.0118057   0.0023515  -0.0006943   0.0018655  -0.0334654   0.0327811
           13          14
    1   0.0086511   0.0076911
    2   0.0159132   0.0156630
    3   0.0301372  -0.0307283
 Max gradient component =       1.555E-01
 RMS gradient           =       3.437E-02
 Computing fast CPCM-SWIG gradient
 Updating gradient with PCM contributions...
 -- total gradient after adding PCM contribution --
---------------------------------------------------
  Atom         X              Y              Z     
---------------------------------------------------
   1       0.000006       0.000015      -0.000013
   2       0.000054       0.000226      -0.000014
   3      -0.000088      -0.000202       0.000030
   4       0.000032      -0.000016      -0.000100
   5      -0.000015       0.000007      -0.000002
   6       0.000003      -0.000013       0.000008
   7      -0.000002       0.000002       0.000008
   8      -0.000038      -0.000015       0.001255
   9      -0.000048       0.000006      -0.000124
  10      -0.000002      -0.000004       0.000002
  11      -0.000206      -0.000068      -0.000505
  12       0.000207       0.000079      -0.000524
  13       0.000016      -0.000033       0.000010
  14       0.000082       0.000017      -0.000031
---------------------------------------------------
 Number of fixed atoms: 0
 Gradient time:  CPU 518.27 s  wall 26.49 s
 ----------------------------------------------------------------
             Standard Nuclear Orientation (Angstroms)
    I     Atom           X                Y                Z
 ----------------------------------------------------------------
    1      O       4.1540939956    -3.1580883065     0.2673137932
    2      C       4.3771956256    -2.0227680818     0.1979382726
    3      O       4.6358376966    -0.8941669225     0.1324806683
    4      O       1.6625417854    -1.2780625765    -0.1472976630
    5      O      -0.8455671934     2.5219977436    -0.0839313237
    6      C      -1.9339614640     2.7651534904     0.0498941036
    7      O      -3.0811971999     3.1450385360     0.2029055151
    8      C       0.3244161905    -0.7767766997    -0.1315996909
    9      C       1.4652003222     0.1364738918    -0.1472279306
   10      H      -3.7961418261     2.4445905625     0.2079556941
   11      H      -0.2379169570    -0.9467876173    -1.0453827747
   12      H      -0.2137063279    -0.9431475427     0.7993329963
   13      H       1.7611017600     0.6387560640     0.7705406856
   14      H       1.7373081177     0.6359619873    -1.0739223486
 ----------------------------------------------------------------
 Nuclear Repulsion Energy =         372.96084307 hartrees
 There are       34 alpha and       34 beta electrons
 Discretize the solute cavity surface with Lebedev spheres
	Using 110 Lebedev grid points for each H atom
	Using 194 Lebedev grid points for other atoms
	Atomic van der Waals radii will be scaled by 1.20
 Remove points where switching function is < 1.0e-08
 Keep 1141 surface tesserae and discard 1155 interior tesserae
 Molecular Surface Area = 241.706 Angst**2

                       Distance Matrix (Angstroms)
             O (  1)   C (  2)   O (  3)   O (  4)   O (  5)   C (  6)
   C (  2)  1.159111
   O (  3)  2.318533  1.159707
   O (  4)  3.148687  2.836039  3.011003
   O (  5)  7.575181  6.929040  6.462416  4.553579
   C (  6)  8.496851  7.923182  7.520619  5.414916  1.123226
   O (  7)  9.595988  9.073801  8.710498  6.495346  2.338482  1.218144
   C (  8)  4.527274  4.252777  4.321096  1.429026  3.500435  4.204578
   C (  9)  4.272720  3.641591  3.345654  1.428236  3.321803  4.301525
   H ( 10)  9.726242  9.314550  9.069249  6.616765  2.965987  1.896170
   H ( 11)  5.089478  4.899270  5.014341  2.127920  3.650493  4.225483
   H ( 12)  4.926123  4.754328  4.895423  2.128047  3.631341  4.156012
   H ( 13)  4.516157  3.775650  3.319801  2.127519  3.327378  4.323701
   H ( 14)  4.694101  3.956701  3.492589  2.127842  3.347904  4.390289
             O (  7)   C (  8)   C (  9)   H ( 10)   H ( 11)   H ( 12)
   C (  8)  5.204876
   C (  9)  5.462947  1.461390
   H ( 10)  1.000899  5.241326  5.756325
   H ( 11)  5.136683  1.086334  2.209241  5.072797
   H ( 12)  5.029065  1.088067  2.209137  4.965918  1.844878
   H ( 13)  5.481927  2.209447  1.087265  5.870306  3.131709  2.530438
   H ( 14)  5.580658  2.209087  1.087333  5.960991  2.531289  3.131953
             H ( 13)
   H ( 14)  1.844619
 
 Requested basis set is def2-TZVPPD
 There are 157 shells and 433 basis functions
 A cutoff of  1.0D-14 yielded  10206 shell pairs
 There are     76688 function pairs (     97957 Cartesian)
 Smallest overlap matrix eigenvalue = 5.69E-06
 Guess MOs from SCF MO coefficient file

 -----------------------------------------------------------------------
  General SCF calculation program by
  Eric Jon Sundstrom, Paul Horn, Yuezhi Mao, Dmitri Zuev, Alec White,
  David Stuck, Shaama M.S., Shane Yost, Joonho Lee, David Small,
  Daniel Levine, Susi Lehtola, Hugh Burton, Evgeny Epifanovsky,
  Bang C. Huynh
 -----------------------------------------------------------------------
 Exchange:     0.1670 Hartree-Fock + 1.0000 wB97X-V + LR-HF
 Correlation:  1.0000 wB97X-V
 Using SG-3 standard quadrature grid
 Nonlocal Correlation:  VV10 with C = 0.0100 and b = 6.00 and scale = 1.00000
 Grid used for NLC:  SG-1 standard quadrature
 
 Citation of the SMD model:
 Marenich, A.V.; Cramer, C.J.; Truhlar, D.G.
 J. Phys. Chem. B 2009, 113, 6378-6396.
 iSolventCode=           0
 Solvent: other                                                           
 
 vradii
            1           2           3           4           5           6
    1   2.2940000   1.8500000   2.2940000   2.2940000   2.2940000   1.8500000
            7           8           9          10          11          12
    1   2.2940000   1.8500000   1.8500000   1.2000000   1.2000000   1.2000000
           13          14
    1   1.2000000   1.2000000
 using 32 threads for integral computing
 -------------------------------------------------------
 OpenMP Integral computing Module                
 Release: version 1.0, May 2013, Q-Chem Inc. Pittsburgh 
 -------------------------------------------------------
