
Running Job 1 of 1 mol.qin
qchem mol.qin_9951.0 /tmp/qchem810563411/chain_scratch/ 0
/global/project/projectdirs/jcesr/qchem_sblau/qc521_exe/qcprog.LINUX_Ix86_64.20190628.exe mol.qin_9951.0 /tmp/qchem810563411/chain_scratch/
                  Welcome to Q-Chem
     A Quantum Leap Into The Future Of Chemistry


 Q-Chem 5.2, Q-Chem, Inc., Pleasanton, CA (2019)

 License issued to: National Energy Research Scientific Computing Center

 Yihan Shao,  Zhengting Gan,  E. Epifanovsky,  A. T. B. Gilbert,  M. Wormit,  
 J. Kussmann,  A. W. Lange,  A. Behn,  Jia Deng,  Xintian Feng,  D. Ghosh,  
 M. Goldey,  P. R. Horn,  L. D. Jacobson,  I. Kaliman,  T. Kus,  A. Landau,  
 Jie Liu,  E. I. Proynov,  R. M. Richard,  R. P. Steele,  E. J. Sundstrom,  
 H. L. Woodcock III,  P. M. Zimmerman,  D. Zuev,  B. Albrecht,  E. Alguire,  
 S. A. Baeppler,  D. Barton,  Z. Benda,  Y. A. Bernard,  E. J. Berquist,  
 K. B. Bravaya,  H. Burton,  D. Casanova,  Chun-Min Chang,  Yunqing Chen,  
 A. Chien,  K. D. Closser,  M. P. Coons,  S. Coriani,  S. Dasgupta,  
 A. L. Dempwolff,  M. Diedenhofen,  Hainam Do,  R. G. Edgar,  Po-Tung Fang,  
 S. Faraji,  S. Fatehi,  Qingguo Feng,  K. D. Fenk,  J. Fosso-Tande,  
 J. Gayvert,  Qinghui Ge,  A. Ghysels,  G. Gidofalvi,  J. Gomes,  
 J. Gonthier,  A. Gunina,  D. Hait,  M. W. D. Hanson-Heine,  
 P. H. P. Harbach,  A. W. Hauser,  M. F. Herbst,  J. E. Herr,  
 E. G. Hohenstein,  Z. C. Holden,  Kerwin Hui,  B. C. Huynh,  T.-C. Jagau,  
 Hyunjun Ji,  B. Kaduk,  K. Khistyaev,  Jaehoon Kim,  P. Klunzinger,  K. Koh,  
 D. Kosenkov,  L. Koulias,  T. Kowalczyk,  C. M. Krauter,  A. Kunitsa,  
 Ka Un Lao,  A. Laurent,  K. V. Lawler,  Joonho Lee,  D. Lefrancois,  
 S. Lehtola,  D. S. Levine,  Yi-Pei Li,  You-Sheng Lin,  Fenglai Liu,  
 E. Livshits,  A. Luenser,  P. Manohar,  E. Mansoor,  S. F. Manzer,  
 Shan-Ping Mao,  Yuezhi Mao,  N. Mardirossian,  A. V. Marenich,  
 T. Markovich,  L. A. Martinez-Martinez,  S. A. Maurer,  N. J. Mayhall,  
 S. C. McKenzie,  J.-M. Mewes,  P. Morgante,  A. F. Morrison,  
 J. W. Mullinax,  K. Nanda,  T. S. Nguyen-Beck,  R. Olivares-Amaya,  
 J. A. Parkhill,  Zheng Pei,  T. M. Perrine,  F. Plasser,  P. Pokhilko,  
 S. Prager,  A. Prociuk,  E. Ramos,  D. R. Rehn,  F. Rob,  M. Scheurer,  
 M. Schneider,  N. Sergueev,  S. M. Sharada,  S. Sharma,  D. W. Small,  
 T. Stauch,  T. Stein,  Yu-Chuan Su,  A. J. W. Thom,  A. Tkatchenko,  
 T. Tsuchimochi,  N. M. Tubman,  L. Vogt,  M. L. Vidal,  O. Vydrov,  
 M. A. Watson,  J. Wenzel,  M. de Wergifosse,  T. A. Wesolowski,  A. White,  
 J. Witte,  A. Yamada,  Jun Yang,  K. Yao,  S. Yeganeh,  S. R. Yost,  
 Zhi-Qiang You,  A. Zech,  Igor Ying Zhang,  Xing Zhang,  Yan Zhao,  
 Ying Zhu,  B. R. Brooks,  G. K. L. Chan,  C. J. Cramer,  M. S. Gordon,  
 W. J. Hehre,  A. Klamt,  M. W. Schmidt,  C. D. Sherrill,  D. G. Truhlar,  
 A. Aspuru-Guzik,  R. Baer,  A. T. Bell,  N. A. Besley,  Jeng-Da Chai,  
 A. E. DePrince, III,  R. A. DiStasio Jr.,  A. Dreuw,  B. D. Dunietz,  
 T. R. Furlani,  Chao-Ping Hsu,  Yousung Jung,  Jing Kong,  D. S. Lambrecht,  
 WanZhen Liang,  C. Ochsenfeld,  V. A. Rassolov,  L. V. Slipchenko,  
 J. E. Subotnik,  T. Van Voorhis,  J. M. Herbert,  A. I. Krylov,  
 P. M. W. Gill,  M. Head-Gordon

 Contributors to earlier versions of Q-Chem not listed above: 
 R. D. Adamson,  B. Austin,  J. Baker,  G. J. O. Beran,  K. Brandhorst,  
 S. T. Brown,  E. F. C. Byrd,  A. K. Chakraborty,  C.-L. Cheng,  
 Siu Hung Chien,  D. M. Chipman,  D. L. Crittenden,  H. Dachsel,  
 R. J. Doerksen,  A. D. Dutoi,  L. Fusti-Molnar,  W. A. Goddard III,  
 A. Golubeva-Zadorozhnaya,  S. R. Gwaltney,  G. Hawkins,  A. Heyden,  
 S. Hirata,  G. Kedziora,  F. J. Keil,  C. Kelley,  Jihan Kim,  R. A. King,  
 R. Z. Khaliullin,  P. P. Korambath,  W. Kurlancheek,  A. M. Lee,  M. S. Lee,  
 S. V. Levchenko,  Ching Yeh Lin,  D. Liotard,  R. C. Lochan,  I. Lotan,  
 P. E. Maslen,  N. Nair,  D. P. O'Neill,  D. Neuhauser,  E. Neuscamman,  
 C. M. Oana,  R. Olson,  B. Peters,  R. Peverati,  P. A. Pieniazek,  
 Y. M. Rhee,  J. Ritchie,  M. A. Rohrdanz,  E. Rosta,  N. J. Russ,  
 H. F. Schaefer III,  N. E. Schultz,  N. Shenvi,  A. C. Simmonett,  A. Sodt,  
 D. Stuck,  K. S. Thanthiriwatte,  V. Vanovschi,  Tao Wang,  A. Warshel,  
 C. F. Williams,  Q. Wu,  X. Xu,  W. Zhang

 Please cite Q-Chem as follows:
 Y. Shao et al., Mol. Phys. 113, 184-215 (2015)
 DOI: 10.1080/00268976.2014.952696

 Q-Chem 5.2.0 for Intel X86 EM64T Linux

 Parts of Q-Chem use Armadillo 8.300.2 (Tropical Shenanigans).
 http://arma.sourceforge.net/

 Q-Chem begins on Wed Jul 17 06:42:01 2019  

Host: cori09
0

     Scratch files written to /tmp/qchem810563411/chain_scratch//
 Jun2719 |scratch|qcdevops|jenkins|workspace|build_RNUM -1
Processing $rem in /global/common/cori/software/qchem/5.2/config/preferences:
	 MEM_TOTAL  96000 
NAlpha2: 68
NElect   68
Mult     1
Symmetry turned off for PCM/SM12/SMD calculation

Checking the input file for inconsistencies... 	...done.

--------------------------------------------------------------
User input:
--------------------------------------------------------------
$molecule
1 1
O      4.0308545510     -3.3111820198      0.0000000000
C      4.4033231973     -2.2134032886      0.0000000000
O      4.8145626186     -1.1289968426      0.0000000000
O      1.8250110644     -1.1486100613      0.0000000000
O     -1.0138466844      2.4981699776      0.0000000000
C     -2.1003963841      2.7824822079      0.0000000000
O     -3.2415039747      3.2080745857      0.0000000000
C      0.4486516377     -0.7660772933      0.0000000000
C      1.5052553249      0.2434454047      0.0000000000
H     -3.9807628519      2.5332791753      0.0000000000
H     -0.0845465613     -0.9818796859     -0.9224256779
H     -0.0845465708     -0.9818796525      0.9224256828
H      1.7435745597      0.7673760133      0.9224268510
H      1.7435745990      0.7673760080     -0.9224268584
$end

$rem
job_type = freq
basis = def2-tzvppd
max_scf_cycles = 200
gen_scfman = true
xc_grid = 3
scf_algorithm = diis
resp_charges = true
symmetry = false
sym_ignore = true
method = wb97xv
geom_opt_max_cycles = 100
solvent_method = smd
ideriv = 1
thresh = 14
$end

$smx
solvent other
$end
--------------------------------------------------------------
 ----------------------------------------------------------------
             Standard Nuclear Orientation (Angstroms)
    I     Atom           X                Y                Z
 ----------------------------------------------------------------
    1      O       4.0308545510    -3.3111820198     0.0000000000
    2      C       4.4033231973    -2.2134032886     0.0000000000
    3      O       4.8145626186    -1.1289968426     0.0000000000
    4      O       1.8250110644    -1.1486100613     0.0000000000
    5      O      -1.0138466844     2.4981699776     0.0000000000
    6      C      -2.1003963841     2.7824822079     0.0000000000
    7      O      -3.2415039747     3.2080745857     0.0000000000
    8      C       0.4486516377    -0.7660772933     0.0000000000
    9      C       1.5052553249     0.2434454047     0.0000000000
   10      H      -3.9807628519     2.5332791753     0.0000000000
   11      H      -0.0845465613    -0.9818796859    -0.9224256779
   12      H      -0.0845465708    -0.9818796525     0.9224256828
   13      H       1.7435745597     0.7673760133     0.9224268510
   14      H       1.7435745990     0.7673760080    -0.9224268584
 ----------------------------------------------------------------
 Nuclear Repulsion Energy =         369.60169915 hartrees
 There are       34 alpha and       34 beta electrons
 Requested basis set is def2-TZVPPD
 There are 157 shells and 433 basis functions

 Total QAlloc Memory Limit  96000 MB
 Mega-Array Size       188 MB
 MEM_STATIC part       192 MB
 
 Citation of the SMD model:
 Marenich, A.V.; Cramer, C.J.; Truhlar, D.G.
 J. Phys. Chem. B 2009, 113, 6378-6396.
 iSolventCode=           0
 Solvent: other                                                           
 
 vradii
            1           2           3           4           5           6
    1   2.2940000   1.8500000   2.2940000   2.2940000   2.2940000   1.8500000
            7           8           9          10          11          12
    1   2.2940000   1.8500000   1.8500000   1.2000000   1.2000000   1.2000000
           13          14
    1   1.2000000   1.2000000
 Changing PCM_VDW_RADII to SMD_RADIUS
 Discretize the solute cavity surface with Lebedev spheres
	Using 110 Lebedev grid points for each H atom
	Using 194 Lebedev grid points for other atoms
	Atomic van der Waals radii will be scaled by 1.20
 Remove points where switching function is < 1.0e-08
 Keep 1169 surface tesserae and discard 1127 interior tesserae
 Molecular Surface Area = 241.190 Angst**2

                       Distance Matrix (Angstroms)
             O (  1)   C (  2)   O (  3)   O (  4)   O (  5)   C (  6)
   C (  2)  1.159246
   O (  3)  2.318648  1.159765
   O (  4)  3.089088  2.789530  2.989616
   O (  5)  7.693996  7.179460  6.864889  4.621484
   C (  6)  8.644361  8.201051  7.944578  5.555386  1.123131
   O (  7)  9.766673  9.372076  9.149339  6.682086  2.338038  1.217890
   C (  8)  4.394284  4.211197  4.380969  1.428530  3.576900  4.369201
   C (  9)  4.360508  3.799329  3.582613  1.428307  3.380778  4.409924
   H ( 10)  9.916841  9.634516  9.527330  6.874832  2.967124  1.896808
   H ( 11)  4.817992  4.744312  4.987362  2.127223  3.718227  4.368631
   H ( 12)  4.817992  4.744312  4.987362  2.127223  3.718227  4.368631
   H ( 13)  4.766252  4.100022  3.725328  2.128029  3.383769  4.437075
   H ( 14)  4.766252  4.100022  3.725328  2.128029  3.383769  4.437075
             O (  7)   C (  8)   C (  9)   H ( 10)   H ( 11)   H ( 12)
   C (  8)  5.423203
   C (  9)  5.596494  1.461351
   H ( 10)  1.000926  5.523175  5.944723
   H ( 11)  5.326628  1.087079  2.209018  5.328012
   H ( 12)  5.326628  1.087079  2.209018  5.328012  1.844851
   H ( 13)  5.626623  2.208886  1.087277  6.061132  3.131358  2.530202
   H ( 14)  5.626623  2.208886  1.087277  6.061132  2.530202  3.131358
             H ( 13)
   H ( 14)  1.844854
 
 A cutoff of  1.0D-14 yielded  10103 shell pairs
 There are     75729 function pairs (     96625 Cartesian)
 Smallest overlap matrix eigenvalue = 5.72E-06
 Guess from superposition of atomic densities
 Warning:  Energy on first SCF cycle will be non-variational
 SAD guess density has 68.075651 electrons

 -----------------------------------------------------------------------
  General SCF calculation program by
  Eric Jon Sundstrom, Paul Horn, Yuezhi Mao, Dmitri Zuev, Alec White,
  David Stuck, Shaama M.S., Shane Yost, Joonho Lee, David Small,
  Daniel Levine, Susi Lehtola, Hugh Burton, Evgeny Epifanovsky,
  Bang C. Huynh
 -----------------------------------------------------------------------
 Exchange:     0.1670 Hartree-Fock + 1.0000 wB97X-V + LR-HF
 Correlation:  1.0000 wB97X-V
 Using SG-3 standard quadrature grid
 Nonlocal Correlation:  VV10 with C = 0.0100 and b = 6.00 and scale = 1.00000
 Grid used for NLC:  SG-1 standard quadrature
 
 Citation of the SMD model:
 Marenich, A.V.; Cramer, C.J.; Truhlar, D.G.
 J. Phys. Chem. B 2009, 113, 6378-6396.
 iSolventCode=           0
 Solvent: other                                                           
 
 vradii
            1           2           3           4           5           6
    1   2.2940000   1.8500000   2.2940000   2.2940000   2.2940000   1.8500000
            7           8           9          10          11          12
    1   2.2940000   1.8500000   1.8500000   1.2000000   1.2000000   1.2000000
           13          14
    1   1.2000000   1.2000000
 using 32 threads for integral computing
 -------------------------------------------------------
 OpenMP Integral computing Module                
 Release: version 1.0, May 2013, Q-Chem Inc. Pittsburgh 
 -------------------------------------------------------
 using 32 threads for integral computing
 -------------------------------------------------------
 OpenMP Integral computing Module                
 Release: version 1.0, May 2013, Q-Chem Inc. Pittsburgh 
 -------------------------------------------------------
 -------------------------------------------------------
 OpenMP BLAS3 based DFT computing Module                
 Release: version 1.0, May 2013, Q-Chem Inc. Pittsburgh 
 -------------------------------------------------------
 -------------------------------------------------------
 OpenMP BLAS3 based DFT computing Module                
 Release: version 1.0, May 2013, Q-Chem Inc. Pittsburgh 
 -------------------------------------------------------
 -------------------------------------------------------
 OpenMP BLAS3 based DFT computing Module                
 Release: version 1.0, May 2013, Q-Chem Inc. Pittsburgh 
 -------------------------------------------------------
 A restricted SCF calculation will be
 performed using DIIS
 SCF converges when DIIS error is below 1.0e-08
 ---------------------------------------
  Cycle       Energy         DIIS error
 ---------------------------------------
    1    -530.3648726731      2.55e-02  
    2    -530.1214908961      9.01e-03  
    3    -530.2817484886      8.31e-03  
    4    -531.3258250098      9.25e-04  
    5    -531.3364630218      4.93e-04  
    6    -531.3400613001      8.20e-05  
    7    -531.3401786232      3.10e-05  
    8    -531.3401947349      1.13e-05  
    9    -531.3401976500      2.53e-06  
   10    -531.3401978791      1.21e-06  
   11    -531.3401979164      3.87e-07  
   12    -531.3401979227      1.48e-07  
   13    -531.3401979236      4.60e-08  
   14    -531.3401979237      3.29e-08  
   15    -531.3401979238      6.42e-09  Convergence criterion met
 ---------------------------------------
 SCF time:   CPU 2826.59s  wall 117.00s 
(3)  G-ENP(liq) elect-nuc-pol free energy of system     -531.340197924 a.u.
(4)  G-CDS(liq) cavity-dispersion-solvent structure 
     free energy                                               -2.3260 kcal/mol
(6)  G-S(liq) free energy of system                     -531.343904579 a.u.
 SCF   energy in the final basis set =     -531.3401979238
 Total energy in the final basis set =     -531.3439045790
 
 --------------------------------------------------------------
 
                    Orbital Energies (a.u.)
 --------------------------------------------------------------
 
 Alpha MOs
 -- Occupied --
-19.4652 -19.4363 -19.2868 -19.2867 -19.2352 -10.6100 -10.4535 -10.3224
-10.3218  -1.4475  -1.4064  -1.2894  -1.2452  -1.2135  -0.9399  -0.8105
 -0.7854  -0.7672  -0.7667  -0.7604  -0.6787  -0.6561  -0.6351  -0.6347
 -0.6322  -0.6309  -0.6244  -0.5946  -0.5093  -0.4897  -0.4745  -0.4730
 -0.4275  -0.3904
 -- Virtual --
 -0.0329  -0.0072   0.0020   0.0451   0.0636   0.0715   0.0798   0.0805
  0.0877   0.0948   0.1031   0.1080   0.1176   0.1223   0.1259   0.1303
  0.1328   0.1365   0.1369   0.1442   0.1531   0.1617   0.1704   0.1710
  0.1818   0.1830   0.1947   0.2002   0.2110   0.2228   0.2258   0.2383
  0.2456   0.2494   0.2573   0.2575   0.2713   0.2749   0.2849   0.2906
  0.3036   0.3055   0.3153   0.3155   0.3178   0.3305   0.3322   0.3376
  0.3433   0.3457   0.3642   0.3657   0.3682   0.3761   0.3786   0.3879
  0.3901   0.3994   0.4035   0.4040   0.4134   0.4138   0.4189   0.4211
  0.4288   0.4335   0.4464   0.4477   0.4582   0.4587   0.4705   0.4747
  0.4856   0.4878   0.4960   0.4966   0.5067   0.5122   0.5271   0.5361
  0.5421   0.5426   0.5484   0.5505   0.5620   0.5704   0.5732   0.5857
  0.5877   0.5992   0.5999   0.6052   0.6221   0.6289   0.6416   0.6469
  0.6640   0.6759   0.6881   0.6949   0.7074   0.7222   0.7357   0.7480
  0.7533   0.7582   0.7716   0.7739   0.7814   0.7859   0.7869   0.8033
  0.8046   0.8155   0.8318   0.8354   0.8603   0.8718   0.8825   0.8936
  0.8936   0.9149   0.9180   0.9221   0.9310   0.9359   0.9419   0.9677
  0.9841   0.9862   0.9970   0.9975   1.0040   1.0051   1.0202   1.0365
  1.0381   1.0622   1.0936   1.0982   1.1276   1.1281   1.1477   1.1527
  1.1743   1.1944   1.1992   1.2060   1.2077   1.2324   1.2336   1.2701
  1.2763   1.2819   1.2851   1.2900   1.3019   1.3340   1.3409   1.3535
  1.3627   1.3828   1.3996   1.4334   1.4614   1.5095   1.5132   1.5510
  1.6424   1.6680   1.6861   1.6961   1.7173   1.7307   1.7343   1.7512
  1.7519   1.7685   1.7787   1.8024   1.8189   1.8402   1.8499   1.8746
  1.8850   1.8983   1.9007   1.9131   1.9202   1.9294   1.9492   1.9680
  1.9776   2.0280   2.0340   2.0639   2.0733   2.0939   2.1079   2.1408
  2.1727   2.2094   2.2266   2.2550   2.3258   2.3503   2.3733   2.3849
  2.4471   2.4556   2.4821   2.5025   2.5168   2.5329   2.5715   2.5758
  2.6351   2.7113   2.7241   2.7395   2.7602   2.7833   2.7944   2.8191
  2.8329   2.8804   2.9136   2.9464   2.9470   2.9651   2.9684   2.9749
  2.9842   2.9860   3.0033   3.0223   3.0309   3.0419   3.0455   3.0522
  3.0644   3.0749   3.1026   3.1237   3.1242   3.1379   3.1415   3.1560
  3.1600   3.2025   3.2110   3.2195   3.2244   3.2899   3.2928   3.2952
  3.3238   3.3426   3.3543   3.3596   3.3710   3.4213   3.4383   3.4505
  3.4827   3.5118   3.5136   3.5245   3.5306   3.5585   3.5752   3.6345
  3.6430   3.6889   3.6906   3.7150   3.7413   3.7628   3.7657   3.8023
  3.8085   3.8109   3.8155   3.8377   3.8708   3.8957   3.9631   3.9997
  4.0391   4.0421   4.0475   4.0634   4.1085   4.1467   4.2002   4.2200
  4.2883   4.3011   4.3117   4.3710   4.3780   4.3883   4.3936   4.4249
  4.4848   4.6286   4.6539   4.7085   4.7361   4.7816   4.7997   4.8116
  4.9617   4.9842   4.9866   5.0622   5.0913   5.1005   5.1117   5.1184
  5.1780   5.1909   5.2014   5.2415   5.2466   5.2528   5.2546   5.2972
  5.3062   5.3264   5.3291   5.3520   5.4159   5.4766   5.5524   5.5808
  5.6270   5.6552   5.6804   5.7122   5.7137   5.7322   5.7751   5.8864
  5.9335   5.9393   5.9748   6.0713   6.0713   6.1570   6.1928   6.2553
  6.2632   6.3283   6.3287   6.4109   6.4133   6.4236   6.4311   6.4481
  6.4820   6.5224   6.5415   6.5427   6.5539   6.5789   6.5987   6.6165
  6.6592   6.7851   6.8584   6.8631   6.8808   6.9562   6.9780   7.0432
  7.0465   7.0523   7.0725   7.1043   7.2131   7.2274   7.2875   7.3229
  7.3448   7.4962   7.6012   7.6575   7.8752   7.8762  23.6626  23.6784
 24.0303  24.3340  44.0670  44.1504  44.3553  44.4057  44.4450
 --------------------------------------------------------------
 
          Ground-State Mulliken Net Atomic Charges

     Atom                 Charge (a.u.)
  ----------------------------------------
      1 O                    -0.307482
      2 C                     0.637470
      3 O                    -0.309327
      4 O                    -0.320803
      5 O                     0.021545
      6 C                     0.704626
      7 O                    -0.105982
      8 C                    -0.046338
      9 C                     0.120745
     10 H                     0.370380
     11 H                     0.062523
     12 H                     0.062523
     13 H                     0.055059
     14 H                     0.055059
  ----------------------------------------
  Sum of atomic charges =     1.000000

  Building new vdw surfaces
         Merz-Kollman RESP Net Atomic Charges

     Atom                 Charge (a.u.)
  ----------------------------------------
      1 O                    -0.381808
      2 C                     0.713142
      3 O                    -0.363352
      4 O                    -0.196171
      5 O                    -0.094670
      6 C                     0.777535
      7 O                    -0.208598
      8 C                    -0.275037
      9 C                    -0.275037
     10 H                     0.524338
     11 H                     0.194915
     12 H                     0.194915
     13 H                     0.194915
     14 H                     0.194915
  ----------------------------------------
  Sum of atomic charges =     1.000000

  Related Dipole Moment =    21.4784 (X -16.0673 Y 14.2536 Z -0.0000)

 -----------------------------------------------------------------
                    Cartesian Multipole Moments
 -----------------------------------------------------------------
    Charge (ESU x 10^10)
                 4.8032
    Dipole Moment (Debye)
         X     -16.0515      Y      14.2811      Z       0.0000
       Tot      21.4849
    Quadrupole Moments (Debye-Ang)
        XX      -8.1966     XY     -30.7163     YY     -21.2618
        XZ      -0.0000     YZ       0.0000     ZZ     -45.9404
    Octopole Moments (Debye-Ang^2)
       XXX    -367.4204    XXY     119.4123    XYY    -167.6717
       YYY     128.9942    XXZ      -0.0000    XYZ       0.0000
       YYZ      -0.0000    XZZ     -57.6230    YZZ       3.6305
       ZZZ       0.0000
    Hexadecapole Moments (Debye-Ang^3)
      XXXX   -2015.7455   XXXY     305.0890   XXYY    -413.7412
      XYYY     615.1576   YYYY   -1220.9561   XXXZ      -0.0000
      XXYZ      -0.0000   XYYZ       0.0000   YYYZ       0.0000
      XXZZ    -421.9271   XYZZ     243.0427   YYZZ    -226.7925
      XZZZ       0.0000   YZZZ       0.0000   ZZZZ     -52.2254
 -----------------------------------------------------------------
 Calculating analytic gradient of the SCF energy
 Gradient of CDS energy
            1           2           3           4           5           6
    1  -0.0007565   0.0012107  -0.0006392  -0.0000708   0.0001053   0.0006283
    2   0.0000878  -0.0004536   0.0003668   0.0003836  -0.0001052   0.0002193
    3   0.0000000  -0.0000000   0.0000000   0.0000000   0.0000000   0.0000000
            7           8           9          10          11          12
    1  -0.0003618  -0.0010611   0.0010981  -0.0003073   0.0001393   0.0001393
    2  -0.0006352  -0.0011955   0.0010660   0.0004267   0.0000564   0.0000564
    3   0.0000000  -0.0000000   0.0000000   0.0000000   0.0002410  -0.0002410
           13          14
    1  -0.0000622  -0.0000622
    2  -0.0001367  -0.0001367
    3  -0.0002406   0.0002406
 Gradient of SCF Energy
            1           2           3           4           5           6
    1  -0.0100233  -0.0029910   0.0116198   0.0072899   0.1554679  -0.0496218
    2  -0.0293096   0.0005571   0.0297560  -0.0092701  -0.0298528   0.0009332
    3   0.0000000  -0.0000000   0.0000000  -0.0000000   0.0000000  -0.0000000
            7           8           9          10          11          12
    1  -0.0436775   0.0221829  -0.0091423  -0.0605973  -0.0170202  -0.0170202
    2   0.0693514   0.0210820  -0.0264929  -0.0412211  -0.0088953  -0.0088953
    3   0.0000000   0.0000000   0.0000000   0.0000000  -0.0312187   0.0312187
           13          14
    1   0.0067666   0.0067666
    2   0.0161287   0.0161287
    3   0.0295865  -0.0295865
 Max gradient component =       1.555E-01
 RMS gradient           =       3.399E-02
 Computing fast CPCM-SWIG gradient
 Updating gradient with PCM contributions...
 -- total gradient after adding PCM contribution --
---------------------------------------------------
  Atom         X              Y              Z     
---------------------------------------------------
   1      -0.000115      -0.000038       0.000000
   2      -0.000131      -0.000056      -0.000000
   3       0.000072       0.000111       0.000000
   4       0.000142      -0.000095      -0.000000
   5      -0.000066       0.000019       0.000000
   6       0.000072      -0.000008       0.000000
   7      -0.000028       0.000003      -0.000000
   8       0.000089       0.000045       0.000000
   9      -0.000049       0.000026       0.000000
  10      -0.000058       0.000053       0.000000
  11       0.000073      -0.000054       0.000018
  12       0.000073      -0.000054      -0.000018
  13      -0.000037       0.000024       0.000012
  14      -0.000037       0.000024      -0.000012
---------------------------------------------------
 Number of fixed atoms: 0
 Gradient time:  CPU 503.86 s  wall 25.91 s
 ######################################################
 ######################################################
 # Starting finite difference calculation for IDERIV  #
 Finite diff step size:  1.88973e-03 a.u.
 ----------------------------------------------------------------
             Standard Nuclear Orientation (Angstroms)
    I     Atom           X                Y                Z
 ----------------------------------------------------------------
    1      O       4.0318545510    -3.3111820198     0.0000000000
    2      C       4.4033231973    -2.2134032886     0.0000000000
    3      O       4.8145626186    -1.1289968426     0.0000000000
    4      O       1.8250110644    -1.1486100613     0.0000000000
    5      O      -1.0138466844     2.4981699776     0.0000000000
    6      C      -2.1003963841     2.7824822079     0.0000000000
    7      O      -3.2415039747     3.2080745857     0.0000000000
    8      C       0.4486516377    -0.7660772933     0.0000000000
    9      C       1.5052553249     0.2434454047     0.0000000000
   10      H      -3.9807628519     2.5332791753     0.0000000000
   11      H      -0.0845465613    -0.9818796859    -0.9224256779
   12      H      -0.0845465708    -0.9818796525     0.9224256828
   13      H       1.7435745597     0.7673760133     0.9224268510
   14      H       1.7435745990     0.7673760080    -0.9224268584
 ----------------------------------------------------------------
 Nuclear Repulsion Energy =         369.60410926 hartrees
 There are       34 alpha and       34 beta electrons
 Discretize the solute cavity surface with Lebedev spheres
	Using 110 Lebedev grid points for each H atom
	Using 194 Lebedev grid points for other atoms
	Atomic van der Waals radii will be scaled by 1.20
 Remove points where switching function is < 1.0e-08
 Keep 1169 surface tesserae and discard 1127 interior tesserae
 Molecular Surface Area = 241.196 Angst**2

                       Distance Matrix (Angstroms)
             O (  1)   C (  2)   O (  3)   O (  4)   O (  5)   C (  6)
   C (  2)  1.158925
   O (  3)  2.318311  1.159765
   O (  4)  3.089802  2.789530  2.989616
   O (  5)  7.694652  7.179460  6.864889  4.621484
   C (  6)  8.645071  8.201051  7.944578  5.555386  1.123131
   O (  7)  9.767418  9.372076  9.149339  6.682086  2.338038  1.217890
   C (  8)  4.395100  4.211197  4.380969  1.428530  3.576900  4.369201
   C (  9)  4.361087  3.799329  3.582613  1.428307  3.380778  4.409924
   H ( 10)  9.917649  9.634516  9.527330  6.874832  2.967124  1.896808
   H ( 11)  4.818846  4.744312  4.987362  2.127223  3.718227  4.368631
   H ( 12)  4.818846  4.744312  4.987362  2.127223  3.718227  4.368631
   H ( 13)  4.766732  4.100022  3.725328  2.128029  3.383769  4.437075
   H ( 14)  4.766732  4.100022  3.725328  2.128029  3.383769  4.437075
             O (  7)   C (  8)   C (  9)   H ( 10)   H ( 11)   H ( 12)
   C (  8)  5.423203
   C (  9)  5.596494  1.461351
   H ( 10)  1.000926  5.523175  5.944723
   H ( 11)  5.326628  1.087079  2.209018  5.328012
   H ( 12)  5.326628  1.087079  2.209018  5.328012  1.844851
   H ( 13)  5.626623  2.208886  1.087277  6.061132  3.131358  2.530202
   H ( 14)  5.626623  2.208886  1.087277  6.061132  2.530202  3.131358
             H ( 13)
   H ( 14)  1.844854
 
 Requested basis set is def2-TZVPPD
 There are 157 shells and 433 basis functions
 A cutoff of  1.0D-14 yielded  10103 shell pairs
 There are     75729 function pairs (     96625 Cartesian)
 Smallest overlap matrix eigenvalue = 5.72E-06
 Guess MOs from SCF MO coefficient file

 -----------------------------------------------------------------------
  General SCF calculation program by
  Eric Jon Sundstrom, Paul Horn, Yuezhi Mao, Dmitri Zuev, Alec White,
  David Stuck, Shaama M.S., Shane Yost, Joonho Lee, David Small,
  Daniel Levine, Susi Lehtola, Hugh Burton, Evgeny Epifanovsky,
  Bang C. Huynh
 -----------------------------------------------------------------------
 Exchange:     0.1670 Hartree-Fock + 1.0000 wB97X-V + LR-HF
 Correlation:  1.0000 wB97X-V
 Using SG-3 standard quadrature grid
 Nonlocal Correlation:  VV10 with C = 0.0100 and b = 6.00 and scale = 1.00000
 Grid used for NLC:  SG-1 standard quadrature
 
 Citation of the SMD model:
 Marenich, A.V.; Cramer, C.J.; Truhlar, D.G.
 J. Phys. Chem. B 2009, 113, 6378-6396.
 iSolventCode=           0
 Solvent: other                                                           
 
 vradii
            1           2           3           4           5           6
    1   2.2940000   1.8500000   2.2940000   2.2940000   2.2940000   1.8500000
            7           8           9          10          11          12
    1   2.2940000   1.8500000   1.8500000   1.2000000   1.2000000   1.2000000
           13          14
    1   1.2000000   1.2000000
 using 32 threads for integral computing
 -------------------------------------------------------
 OpenMP Integral computing Module                
 Release: version 1.0, May 2013, Q-Chem Inc. Pittsburgh 
 -------------------------------------------------------
 using 32 threads for integral computing
 -------------------------------------------------------
 OpenMP Integral computing Module                
 Release: version 1.0, May 2013, Q-Chem Inc. Pittsburgh 
 -------------------------------------------------------
 -------------------------------------------------------
 OpenMP BLAS3 based DFT computing Module                
 Release: version 1.0, May 2013, Q-Chem Inc. Pittsburgh 
 -------------------------------------------------------
 -------------------------------------------------------
 OpenMP BLAS3 based DFT computing Module                
 Release: version 1.0, May 2013, Q-Chem Inc. Pittsburgh 
 -------------------------------------------------------
 -------------------------------------------------------
 OpenMP BLAS3 based DFT computing Module                
 Release: version 1.0, May 2013, Q-Chem Inc. Pittsburgh 
 -------------------------------------------------------
 A restricted SCF calculation will be
 performed using Roothaan-Hall, DIIS
 SCF converges when DIIS error is below 1.0e-08
 ---------------------------------------
  Cycle       Energy         DIIS error
 ---------------------------------------
    1    -539.1266907942      2.79e-04  Roothaan Step
 ---------------------------------------
  Cycle       Energy         DIIS error
 ---------------------------------------
    1    -531.3354311513      3.92e-04  
    2    -531.3365930336      4.84e-04  
    3    -531.3401145300      4.81e-05  
    4    -531.3401729117      3.30e-05  
    5    -531.3401917240      1.43e-05  
    6    -531.3401962591      2.23e-06  
    7    -531.3401964030      1.43e-06  
    8    -531.3401964424      2.74e-07  
    9    -531.3401964454      1.30e-07  
   10    -531.3401964458      5.87e-08  
   11    -531.3401964459      1.79e-08  
   12    -531.3401964459      4.57e-09  Convergence criterion met
 ---------------------------------------
 SCF time:   CPU 2475.53s  wall 102.00s 
(3)  G-ENP(liq) elect-nuc-pol free energy of system     -531.340196446 a.u.
(4)  G-CDS(liq) cavity-dispersion-solvent structure 
     free energy                                               -2.3269 kcal/mol
(6)  G-S(liq) free energy of system                     -531.343904530 a.u.
 SCF   energy in the final basis set =     -531.3401964459
 Total energy in the final basis set =     -531.3439045299
 
 --------------------------------------------------------------
 
                    Orbital Energies (a.u.)
 --------------------------------------------------------------
 
 Alpha MOs
 -- Occupied --
-19.4652 -19.4363 -19.2868 -19.2867 -19.2352 -10.6100 -10.4534 -10.3224
-10.3218  -1.4475  -1.4064  -1.2895  -1.2453  -1.2135  -0.9399  -0.8105
 -0.7854  -0.7672  -0.7667  -0.7604  -0.6787  -0.6561  -0.6351  -0.6348
 -0.6322  -0.6309  -0.6244  -0.5946  -0.5093  -0.4897  -0.4745  -0.4730
 -0.4275  -0.3904
 -- Virtual --
 -0.0329  -0.0072   0.0020   0.0451   0.0636   0.0715   0.0798   0.0805
  0.0877   0.0948   0.1031   0.1080   0.1176   0.1223   0.1259   0.1303
  0.1328   0.1366   0.1370   0.1442   0.1531   0.1617   0.1704   0.1711
  0.1818   0.1830   0.1947   0.2002   0.2110   0.2228   0.2258   0.2383
  0.2456   0.2494   0.2573   0.2575   0.2713   0.2749   0.2849   0.2905
  0.3036   0.3055   0.3153   0.3154   0.3178   0.3305   0.3322   0.3376
  0.3433   0.3457   0.3642   0.3657   0.3682   0.3761   0.3786   0.3879
  0.3901   0.3994   0.4035   0.4040   0.4134   0.4138   0.4189   0.4211
  0.4288   0.4335   0.4464   0.4477   0.4582   0.4587   0.4705   0.4747
  0.4856   0.4878   0.4960   0.4966   0.5067   0.5122   0.5271   0.5361
  0.5421   0.5426   0.5484   0.5505   0.5621   0.5704   0.5732   0.5857
  0.5877   0.5992   0.5999   0.6052   0.6222   0.6289   0.6416   0.6469
  0.6640   0.6759   0.6881   0.6949   0.7074   0.7222   0.7357   0.7480
  0.7533   0.7582   0.7716   0.7740   0.7814   0.7859   0.7869   0.8033
  0.8046   0.8155   0.8318   0.8354   0.8603   0.8718   0.8825   0.8936
  0.8936   0.9149   0.9181   0.9221   0.9310   0.9359   0.9418   0.9677
  0.9841   0.9862   0.9970   0.9975   1.0040   1.0051   1.0201   1.0364
  1.0381   1.0622   1.0938   1.0982   1.1276   1.1281   1.1476   1.1526
  1.1743   1.1944   1.1992   1.2060   1.2077   1.2324   1.2336   1.2702
  1.2764   1.2819   1.2852   1.2901   1.3019   1.3340   1.3409   1.3535
  1.3627   1.3828   1.3996   1.4334   1.4613   1.5095   1.5132   1.5510
  1.6424   1.6680   1.6861   1.6961   1.7173   1.7307   1.7343   1.7512
  1.7519   1.7685   1.7787   1.8023   1.8189   1.8402   1.8499   1.8746
  1.8851   1.8983   1.9007   1.9130   1.9202   1.9294   1.9493   1.9681
  1.9776   2.0281   2.0340   2.0639   2.0735   2.0939   2.1079   2.1408
  2.1726   2.2094   2.2266   2.2550   2.3258   2.3503   2.3733   2.3849
  2.4471   2.4556   2.4822   2.5024   2.5168   2.5329   2.5715   2.5758
  2.6354   2.7113   2.7241   2.7395   2.7602   2.7833   2.7945   2.8191
  2.8328   2.8804   2.9136   2.9464   2.9470   2.9651   2.9685   2.9748
  2.9842   2.9860   3.0033   3.0223   3.0309   3.0420   3.0455   3.0525
  3.0646   3.0749   3.1027   3.1237   3.1243   3.1379   3.1415   3.1560
  3.1600   3.2025   3.2110   3.2195   3.2244   3.2899   3.2928   3.2952
  3.3238   3.3426   3.3543   3.3596   3.3710   3.4213   3.4385   3.4505
  3.4827   3.5118   3.5136   3.5245   3.5309   3.5585   3.5753   3.6345
  3.6430   3.6889   3.6906   3.7150   3.7414   3.7630   3.7657   3.8023
  3.8087   3.8111   3.8155   3.8377   3.8708   3.8957   3.9631   3.9997
  4.0391   4.0421   4.0476   4.0635   4.1085   4.1467   4.2002   4.2200
  4.2883   4.3011   4.3117   4.3710   4.3780   4.3883   4.3936   4.4249
  4.4848   4.6286   4.6539   4.7084   4.7361   4.7816   4.7997   4.8116
  4.9617   4.9842   4.9875   5.0622   5.0913   5.1005   5.1117   5.1184
  5.1780   5.1909   5.2014   5.2415   5.2467   5.2529   5.2546   5.2972
  5.3062   5.3266   5.3292   5.3515   5.4159   5.4766   5.5524   5.5808
  5.6270   5.6552   5.6804   5.7122   5.7137   5.7322   5.7751   5.8864
  5.9338   5.9396   5.9748   6.0713   6.0713   6.1577   6.1928   6.2560
  6.2641   6.3283   6.3287   6.4109   6.4133   6.4236   6.4311   6.4481
  6.4820   6.5225   6.5415   6.5427   6.5540   6.5789   6.5985   6.6165
  6.6592   6.7851   6.8584   6.8631   6.8808   6.9560   6.9780   7.0432
  7.0464   7.0523   7.0725   7.1043   7.2134   7.2277   7.2875   7.3229
  7.3447   7.4962   7.6017   7.6575   7.8753   7.8770  23.6626  23.6784
 24.0303  24.3356  44.0670  44.1509  44.3553  44.4057  44.4451
 --------------------------------------------------------------
 
          Ground-State Mulliken Net Atomic Charges

     Atom                 Charge (a.u.)
  ----------------------------------------
      1 O                    -0.306978
      2 C                     0.637044
      3 O                    -0.309413
      4 O                    -0.320852
      5 O                     0.021545
      6 C                     0.704627
      7 O                    -0.105982
      8 C                    -0.046307
      9 C                     0.120788
     10 H                     0.370380
     11 H                     0.062526
     12 H                     0.062526
     13 H                     0.055047
     14 H                     0.055047
  ----------------------------------------
  Sum of atomic charges =     1.000000

  Building new vdw surfaces
         Merz-Kollman RESP Net Atomic Charges

     Atom                 Charge (a.u.)
  ----------------------------------------
      1 O                    -0.381745
      2 C                     0.713358
      3 O                    -0.363597
      4 O                    -0.196292
      5 O                    -0.094680
      6 C                     0.777537
      7 O                    -0.208592
      8 C                    -0.274978
      9 C                    -0.274978
     10 H                     0.524335
     11 H                     0.194908
     12 H                     0.194908
     13 H                     0.194908
     14 H                     0.194908
  ----------------------------------------
  Sum of atomic charges =     1.000000

  Related Dipole Moment =    21.4791 (X -16.0696 Y 14.2521 Z -0.0000)

 -----------------------------------------------------------------
                    Cartesian Multipole Moments
 -----------------------------------------------------------------
    Charge (ESU x 10^10)
                 4.8032
    Dipole Moment (Debye)
         X     -16.0537      Y      14.2796      Z       0.0000
       Tot      21.4856
    Quadrupole Moments (Debye-Ang)
        XX      -8.2134     XY     -30.7173     YY     -21.2550
        XZ      -0.0000     YZ       0.0000     ZZ     -45.9395
    Octopole Moments (Debye-Ang^2)
       XXX    -367.5351    XXY     119.4266    XYY    -167.6640
       YYY     128.9674    XXZ      -0.0000    XYZ       0.0000
       YYZ      -0.0000    XZZ     -57.6250    YZZ       3.6270
       ZZZ       0.0000
    Hexadecapole Moments (Debye-Ang^3)
      XXXX   -2016.5237   XXXY     305.2670   XXYY    -413.7822
      XYYY     615.1415   YYYY   -1220.8477   XXXZ      -0.0000
      XXYZ      -0.0000   XYYZ       0.0000   YYYZ       0.0000
      XXZZ    -421.9576   XYZZ     243.0463   YYZZ    -226.7803
      XZZZ       0.0000   YZZZ       0.0000   ZZZZ     -52.2235
 -----------------------------------------------------------------
 Calculating analytic gradient of the SCF energy
 Gradient of CDS energy
            1           2           3           4           5           6
    1  -0.0007555   0.0012098  -0.0006392  -0.0000710   0.0001053   0.0006283
    2   0.0000880  -0.0004543   0.0003668   0.0003841  -0.0001052   0.0002193
    3  -0.0000000  -0.0000000   0.0000000   0.0000000   0.0000000   0.0000000
            7           8           9          10          11          12
    1  -0.0003618  -0.0010611   0.0010981  -0.0003073   0.0001393   0.0001393
    2  -0.0006352  -0.0011955   0.0010660   0.0004267   0.0000564   0.0000564
    3   0.0000000  -0.0000000   0.0000000   0.0000000   0.0002410  -0.0002410
           13          14
    1  -0.0000622  -0.0000622
    2  -0.0001367  -0.0001367
    3  -0.0002406   0.0002406
 Gradient of SCF Energy
            1           2           3           4           5           6
    1  -0.0096983  -0.0033565   0.0116648   0.0072868   0.1554689  -0.0496220
    2  -0.0287151   0.0000649   0.0296452  -0.0092626  -0.0298531   0.0009330
    3   0.0000000  -0.0000000   0.0000000  -0.0000000   0.0000000  -0.0000000
            7           8           9          10          11          12
    1  -0.0436780   0.0221877  -0.0091459  -0.0605977  -0.0170214  -0.0170214
    2   0.0693519   0.0210806  -0.0264920  -0.0412215  -0.0088953  -0.0088953
    3   0.0000000   0.0000000   0.0000000   0.0000000  -0.0312206   0.0312206
           13          14
    1   0.0067666   0.0067666
    2   0.0161297   0.0161297
    3   0.0295863  -0.0295863
 Max gradient component =       1.555E-01
 RMS gradient           =       3.397E-02
 Computing fast CPCM-SWIG gradient
 Updating gradient with PCM contributions...
 -- total gradient after adding PCM contribution --
---------------------------------------------------
  Atom         X              Y              Z     
---------------------------------------------------
   1       0.000167       0.000557       0.000000
   2      -0.000447      -0.000572      -0.000000
   3       0.000109       0.000024       0.000000
   4       0.000138      -0.000088      -0.000000
   5      -0.000066       0.000019       0.000000
   6       0.000072      -0.000008       0.000000
   7      -0.000028       0.000003      -0.000000
   8       0.000090       0.000045       0.000000
   9      -0.000050       0.000026       0.000000
  10      -0.000058       0.000053       0.000000
  11       0.000073      -0.000054       0.000018
  12       0.000073      -0.000054      -0.000018
  13      -0.000037       0.000024       0.000012
  14      -0.000037       0.000024      -0.000012
---------------------------------------------------
 Number of fixed atoms: 0
 Gradient time:  CPU 499.12 s  wall 25.66 s
 ----------------------------------------------------------------
             Standard Nuclear Orientation (Angstroms)
    I     Atom           X                Y                Z
 ----------------------------------------------------------------
    1      O       4.0298545510    -3.3111820198     0.0000000000
    2      C       4.4033231973    -2.2134032886     0.0000000000
    3      O       4.8145626186    -1.1289968426     0.0000000000
    4      O       1.8250110644    -1.1486100613     0.0000000000
    5      O      -1.0138466844     2.4981699776     0.0000000000
    6      C      -2.1003963841     2.7824822079     0.0000000000
    7      O      -3.2415039747     3.2080745857     0.0000000000
    8      C       0.4486516377    -0.7660772933     0.0000000000
    9      C       1.5052553249     0.2434454047     0.0000000000
   10      H      -3.9807628519     2.5332791753     0.0000000000
   11      H      -0.0845465613    -0.9818796859    -0.9224256779
   12      H      -0.0845465708    -0.9818796525     0.9224256828
   13      H       1.7435745597     0.7673760133     0.9224268510
   14      H       1.7435745990     0.7673760080    -0.9224268584
 ----------------------------------------------------------------
 Nuclear Repulsion Energy =         369.59927704 hartrees
 There are       34 alpha and       34 beta electrons
 Discretize the solute cavity surface with Lebedev spheres
	Using 110 Lebedev grid points for each H atom
	Using 194 Lebedev grid points for other atoms
	Atomic van der Waals radii will be scaled by 1.20
 Remove points where switching function is < 1.0e-08
 Keep 1169 surface tesserae and discard 1127 interior tesserae
 Molecular Surface Area = 241.184 Angst**2

                       Distance Matrix (Angstroms)
             O (  1)   C (  2)   O (  3)   O (  4)   O (  5)   C (  6)
   C (  2)  1.159568
   O (  3)  2.318987  1.159765
   O (  4)  3.088374  2.789530  2.989616
   O (  5)  7.693341  7.179460  6.864889  4.621484
   C (  6)  8.643652  8.201051  7.944578  5.555386  1.123131
   O (  7)  9.765929  9.372076  9.149339  6.682086  2.338038  1.217890
   C (  8)  4.393469  4.211197  4.380969  1.428530  3.576900  4.369201
   C (  9)  4.359929  3.799329  3.582613  1.428307  3.380778  4.409924
   H ( 10)  9.916033  9.634516  9.527330  6.874832  2.967124  1.896808
   H ( 11)  4.817138  4.744312  4.987362  2.127223  3.718227  4.368631
   H ( 12)  4.817138  4.744312  4.987362  2.127223  3.718227  4.368631
   H ( 13)  4.765772  4.100022  3.725328  2.128029  3.383769  4.437075
   H ( 14)  4.765772  4.100022  3.725328  2.128029  3.383769  4.437075
             O (  7)   C (  8)   C (  9)   H ( 10)   H ( 11)   H ( 12)
   C (  8)  5.423203
   C (  9)  5.596494  1.461351
   H ( 10)  1.000926  5.523175  5.944723
   H ( 11)  5.326628  1.087079  2.209018  5.328012
   H ( 12)  5.326628  1.087079  2.209018  5.328012  1.844851
   H ( 13)  5.626623  2.208886  1.087277  6.061132  3.131358  2.530202
   H ( 14)  5.626623  2.208886  1.087277  6.061132  2.530202  3.131358
             H ( 13)
   H ( 14)  1.844854
 
 Requested basis set is def2-TZVPPD
 There are 157 shells and 433 basis functions
 A cutoff of  1.0D-14 yielded  10104 shell pairs
 There are     75736 function pairs (     96635 Cartesian)
 Smallest overlap matrix eigenvalue = 5.72E-06
 Guess MOs from SCF MO coefficient file

 -----------------------------------------------------------------------
  General SCF calculation program by
  Eric Jon Sundstrom, Paul Horn, Yuezhi Mao, Dmitri Zuev, Alec White,
  David Stuck, Shaama M.S., Shane Yost, Joonho Lee, David Small,
  Daniel Levine, Susi Lehtola, Hugh Burton, Evgeny Epifanovsky,
  Bang C. Huynh
 -----------------------------------------------------------------------
 Exchange:     0.1670 Hartree-Fock + 1.0000 wB97X-V + LR-HF
 Correlation:  1.0000 wB97X-V
 Using SG-3 standard quadrature grid
 Nonlocal Correlation:  VV10 with C = 0.0100 and b = 6.00 and scale = 1.00000
 Grid used for NLC:  SG-1 standard quadrature
 
 Citation of the SMD model:
 Marenich, A.V.; Cramer, C.J.; Truhlar, D.G.
 J. Phys. Chem. B 2009, 113, 6378-6396.
 iSolventCode=           0
 Solvent: other                                                           
 
 vradii
            1           2           3           4           5           6
    1   2.2940000   1.8500000   2.2940000   2.2940000   2.2940000   1.8500000
            7           8           9          10          11          12
    1   2.2940000   1.8500000   1.8500000   1.2000000   1.2000000   1.2000000
           13          14
    1   1.2000000   1.2000000
 using 32 threads for integral computing
 -------------------------------------------------------
 OpenMP Integral computing Module                
 Release: version 1.0, May 2013, Q-Chem Inc. Pittsburgh 
 -------------------------------------------------------
 using 32 threads for integral computing
 -------------------------------------------------------
 OpenMP Integral computing Module                
 Release: version 1.0, May 2013, Q-Chem Inc. Pittsburgh 
 -------------------------------------------------------
 -------------------------------------------------------
 OpenMP BLAS3 based DFT computing Module                
 Release: version 1.0, May 2013, Q-Chem Inc. Pittsburgh 
 -------------------------------------------------------
 -------------------------------------------------------
 OpenMP BLAS3 based DFT computing Module                
 Release: version 1.0, May 2013, Q-Chem Inc. Pittsburgh 
 -------------------------------------------------------
 -------------------------------------------------------
 OpenMP BLAS3 based DFT computing Module                
 Release: version 1.0, May 2013, Q-Chem Inc. Pittsburgh 
 -------------------------------------------------------
 A restricted SCF calculation will be
 performed using Roothaan-Hall, DIIS
 SCF converges when DIIS error is below 1.0e-08
 ---------------------------------------
  Cycle       Energy         DIIS error
 ---------------------------------------
    1    -539.1266771463      2.79e-04  Roothaan Step
 ---------------------------------------
  Cycle       Energy         DIIS error
 ---------------------------------------
    1    -531.3354305118      3.92e-04  
    2    -531.3365873905      4.85e-04  
    3    -531.3401169132      4.81e-05  
    4    -531.3401752805      3.31e-05  
    5    -531.3401941480      1.43e-05  
    6    -531.3401986818      2.23e-06  
    7    -531.3401988255      1.44e-06  
    8    -531.3401988650      2.74e-07  
    9    -531.3401988681      1.34e-07  
   10    -531.3401988685      5.87e-08  
   11    -531.3401988686      1.77e-08  
   12    -531.3401988686      4.55e-09  Convergence criterion met
 ---------------------------------------
 SCF time:   CPU 2503.42s  wall 101.00s 
(3)  G-ENP(liq) elect-nuc-pol free energy of system     -531.340198869 a.u.
(4)  G-CDS(liq) cavity-dispersion-solvent structure 
     free energy                                               -2.3251 kcal/mol
(6)  G-S(liq) free energy of system                     -531.343904093 a.u.
 SCF   energy in the final basis set =     -531.3401988686
 Total energy in the final basis set =     -531.3439040933
 
 --------------------------------------------------------------
 
                    Orbital Energies (a.u.)
 --------------------------------------------------------------
 
 Alpha MOs
 -- Occupied --
-19.4652 -19.4363 -19.2869 -19.2867 -19.2352 -10.6100 -10.4535 -10.3224
-10.3218  -1.4475  -1.4064  -1.2893  -1.2451  -1.2135  -0.9399  -0.8105
 -0.7854  -0.7672  -0.7667  -0.7604  -0.6787  -0.6561  -0.6350  -0.6347
 -0.6322  -0.6309  -0.6244  -0.5946  -0.5093  -0.4897  -0.4744  -0.4730
 -0.4275  -0.3904
 -- Virtual --
 -0.0329  -0.0072   0.0020   0.0451   0.0636   0.0715   0.0798   0.0805
  0.0877   0.0948   0.1031   0.1081   0.1176   0.1223   0.1259   0.1303
  0.1328   0.1364   0.1368   0.1442   0.1531   0.1617   0.1704   0.1710
  0.1818   0.1830   0.1946   0.2002   0.2110   0.2228   0.2258   0.2383
  0.2456   0.2494   0.2573   0.2575   0.2713   0.2749   0.2849   0.2906
  0.3036   0.3055   0.3153   0.3155   0.3178   0.3305   0.3322   0.3375
  0.3433   0.3457   0.3642   0.3657   0.3682   0.3761   0.3786   0.3879
  0.3901   0.3994   0.4035   0.4040   0.4134   0.4138   0.4189   0.4210
  0.4288   0.4335   0.4464   0.4476   0.4582   0.4587   0.4705   0.4747
  0.4856   0.4878   0.4960   0.4966   0.5068   0.5122   0.5271   0.5361
  0.5421   0.5426   0.5484   0.5505   0.5620   0.5704   0.5732   0.5856
  0.5877   0.5992   0.5999   0.6052   0.6221   0.6289   0.6416   0.6469
  0.6640   0.6760   0.6882   0.6949   0.7074   0.7222   0.7357   0.7480
  0.7533   0.7582   0.7716   0.7739   0.7814   0.7859   0.7870   0.8033
  0.8046   0.8155   0.8318   0.8354   0.8603   0.8718   0.8825   0.8936
  0.8937   0.9149   0.9180   0.9221   0.9310   0.9359   0.9419   0.9678
  0.9841   0.9862   0.9970   0.9975   1.0040   1.0051   1.0202   1.0366
  1.0380   1.0622   1.0934   1.0981   1.1276   1.1281   1.1477   1.1527
  1.1743   1.1944   1.1992   1.2060   1.2077   1.2325   1.2336   1.2700
  1.2762   1.2819   1.2850   1.2900   1.3018   1.3340   1.3409   1.3536
  1.3627   1.3828   1.3996   1.4334   1.4614   1.5095   1.5132   1.5510
  1.6424   1.6680   1.6861   1.6961   1.7173   1.7306   1.7343   1.7512
  1.7519   1.7685   1.7787   1.8025   1.8189   1.8402   1.8499   1.8746
  1.8850   1.8984   1.9007   1.9131   1.9202   1.9294   1.9492   1.9679
  1.9777   2.0278   2.0340   2.0639   2.0732   2.0939   2.1079   2.1408
  2.1728   2.2094   2.2265   2.2550   2.3258   2.3503   2.3733   2.3849
  2.4471   2.4556   2.4820   2.5025   2.5168   2.5329   2.5715   2.5758
  2.6349   2.7113   2.7242   2.7395   2.7603   2.7833   2.7944   2.8191
  2.8329   2.8804   2.9136   2.9464   2.9470   2.9652   2.9683   2.9749
  2.9842   2.9860   3.0033   3.0223   3.0309   3.0417   3.0455   3.0519
  3.0643   3.0748   3.1026   3.1237   3.1242   3.1379   3.1415   3.1560
  3.1600   3.2025   3.2110   3.2195   3.2244   3.2899   3.2928   3.2952
  3.3239   3.3426   3.3543   3.3596   3.3710   3.4213   3.4382   3.4505
  3.4827   3.5118   3.5136   3.5245   3.5302   3.5585   3.5751   3.6345
  3.6431   3.6889   3.6906   3.7150   3.7412   3.7626   3.7657   3.8023
  3.8082   3.8107   3.8155   3.8377   3.8708   3.8957   3.9631   3.9996
  4.0391   4.0421   4.0475   4.0634   4.1085   4.1467   4.2002   4.2201
  4.2883   4.3011   4.3117   4.3710   4.3780   4.3883   4.3937   4.4249
  4.4848   4.6286   4.6539   4.7085   4.7361   4.7816   4.7997   4.8116
  4.9617   4.9842   4.9858   5.0622   5.0914   5.1005   5.1117   5.1184
  5.1781   5.1910   5.2014   5.2415   5.2466   5.2528   5.2546   5.2972
  5.3062   5.3263   5.3289   5.3525   5.4160   5.4766   5.5524   5.5808
  5.6270   5.6552   5.6804   5.7122   5.7137   5.7322   5.7751   5.8864
  5.9331   5.9389   5.9748   6.0713   6.0713   6.1564   6.1928   6.2546
  6.2622   6.3283   6.3287   6.4109   6.4133   6.4236   6.4311   6.4481
  6.4820   6.5224   6.5414   6.5427   6.5538   6.5789   6.5988   6.6165
  6.6591   6.7851   6.8584   6.8631   6.8808   6.9563   6.9780   7.0432
  7.0466   7.0523   7.0725   7.1042   7.2128   7.2271   7.2875   7.3229
  7.3448   7.4962   7.6006   7.6575   7.8752   7.8755  23.6626  23.6784
 24.0303  24.3324  44.0670  44.1499  44.3553  44.4057  44.4449
 --------------------------------------------------------------
 
          Ground-State Mulliken Net Atomic Charges

     Atom                 Charge (a.u.)
  ----------------------------------------
      1 O                    -0.307985
      2 C                     0.637896
      3 O                    -0.309240
      4 O                    -0.320754
      5 O                     0.021545
      6 C                     0.704626
      7 O                    -0.105982
      8 C                    -0.046368
      9 C                     0.120703
     10 H                     0.370380
     11 H                     0.062520
     12 H                     0.062520
     13 H                     0.055070
     14 H                     0.055070
  ----------------------------------------
  Sum of atomic charges =     1.000000

  Building new vdw surfaces
         Merz-Kollman RESP Net Atomic Charges

     Atom                 Charge (a.u.)
  ----------------------------------------
      1 O                    -0.381871
      2 C                     0.712925
      3 O                    -0.363106
      4 O                    -0.196051
      5 O                    -0.094659
      6 C                     0.777533
      7 O                    -0.208604
      8 C                    -0.275096
      9 C                    -0.275096
     10 H                     0.524342
     11 H                     0.194921
     12 H                     0.194921
     13 H                     0.194921
     14 H                     0.194921
  ----------------------------------------
  Sum of atomic charges =     1.000000

  Related Dipole Moment =    21.4777 (X -16.0650 Y 14.2550 Z -0.0000)

 -----------------------------------------------------------------
                    Cartesian Multipole Moments
 -----------------------------------------------------------------
    Charge (ESU x 10^10)
                 4.8032
    Dipole Moment (Debye)
         X     -16.0493      Y      14.2826      Z       0.0000
       Tot      21.4842
    Quadrupole Moments (Debye-Ang)
        XX      -8.1799     XY     -30.7152     YY     -21.2687
        XZ      -0.0000     YZ       0.0000     ZZ     -45.9413
    Octopole Moments (Debye-Ang^2)
       XXX    -367.3056    XXY     119.3981    XYY    -167.6795
       YYY     129.0211    XXZ      -0.0000    XYZ       0.0000
       YYZ      -0.0000    XZZ     -57.6209    YZZ       3.6340
       ZZZ       0.0000
    Hexadecapole Moments (Debye-Ang^3)
      XXXX   -2014.9672   XXXY     304.9111   XXYY    -413.7005
      XYYY     615.1741   YYYY   -1221.0650   XXXZ      -0.0000
      XXYZ      -0.0000   XYYZ       0.0000   YYYZ       0.0000
      XXZZ    -421.8967   XYZZ     243.0391   YYZZ    -226.8047
      XZZZ       0.0000   YZZZ       0.0000   ZZZZ     -52.2272
 -----------------------------------------------------------------
 Calculating analytic gradient of the SCF energy
 Gradient of CDS energy
            1           2           3           4           5           6
    1  -0.0007575   0.0012115  -0.0006392  -0.0000706   0.0001053   0.0006283
    2   0.0000875  -0.0004529   0.0003668   0.0003831  -0.0001052   0.0002193
    3   0.0000000  -0.0000000   0.0000000   0.0000000   0.0000000   0.0000000
            7           8           9          10          11          12
    1  -0.0003618  -0.0010611   0.0010981  -0.0003073   0.0001393   0.0001393
    2  -0.0006352  -0.0011955   0.0010660   0.0004267   0.0000564   0.0000564
    3   0.0000000  -0.0000000   0.0000000   0.0000000   0.0002410  -0.0002410
           13          14
    1  -0.0000622  -0.0000622
    2  -0.0001367  -0.0001367
    3  -0.0002406   0.0002406
 Gradient of SCF Energy
            1           2           3           4           5           6
    1  -0.0103491  -0.0026248   0.0115750   0.0072931   0.1554667  -0.0496214
    2  -0.0299038   0.0010489   0.0298669  -0.0092776  -0.0298525   0.0009334
    3   0.0000000  -0.0000000   0.0000000  -0.0000000   0.0000000  -0.0000000
            7           8           9          10          11          12
    1  -0.0436772   0.0221780  -0.0091386  -0.0605969  -0.0170189  -0.0170189
    2   0.0693509   0.0210834  -0.0264937  -0.0412208  -0.0088953  -0.0088953
    3   0.0000000   0.0000000   0.0000000   0.0000000  -0.0312167   0.0312167
           13          14
    1   0.0067665   0.0067665
    2   0.0161278   0.0161278
    3   0.0295866  -0.0295866
 Max gradient component =       1.555E-01
 RMS gradient           =       3.400E-02
 Computing fast CPCM-SWIG gradient
 Updating gradient with PCM contributions...
 -- total gradient after adding PCM contribution --
---------------------------------------------------
  Atom         X              Y              Z     
---------------------------------------------------
   1      -0.000399      -0.000633       0.000000
   2       0.000186       0.000459      -0.000000
   3       0.000035       0.000198       0.000000
   4       0.000145      -0.000101      -0.000000
   5      -0.000066       0.000019       0.000000
   6       0.000072      -0.000008       0.000000
   7      -0.000028       0.000003      -0.000000
   8       0.000087       0.000044       0.000000
   9      -0.000047       0.000026       0.000000
  10      -0.000058       0.000053       0.000000
  11       0.000074      -0.000054       0.000018
  12       0.000073      -0.000054      -0.000018
  13      -0.000037       0.000024       0.000011
  14      -0.000037       0.000024      -0.000011
---------------------------------------------------
 Number of fixed atoms: 0
 Gradient time:  CPU 551.36 s  wall 27.99 s
 ----------------------------------------------------------------
             Standard Nuclear Orientation (Angstroms)
    I     Atom           X                Y                Z
 ----------------------------------------------------------------
    1      O       4.0308545510    -3.3101820198     0.0000000000
    2      C       4.4033231973    -2.2134032886     0.0000000000
    3      O       4.8145626186    -1.1289968426     0.0000000000
    4      O       1.8250110644    -1.1486100613     0.0000000000
    5      O      -1.0138466844     2.4981699776     0.0000000000
    6      C      -2.1003963841     2.7824822079     0.0000000000
    7      O      -3.2415039747     3.2080745857     0.0000000000
    8      C       0.4486516377    -0.7660772933     0.0000000000
    9      C       1.5052553249     0.2434454047     0.0000000000
   10      H      -3.9807628519     2.5332791753     0.0000000000
   11      H      -0.0845465613    -0.9818796859    -0.9224256779
   12      H      -0.0845465708    -0.9818796525     0.9224256828
   13      H       1.7435745597     0.7673760133     0.9224268510
   14      H       1.7435745990     0.7673760080    -0.9224268584
 ----------------------------------------------------------------
 Nuclear Repulsion Energy =         369.63130830 hartrees
 There are       34 alpha and       34 beta electrons
 Discretize the solute cavity surface with Lebedev spheres
	Using 110 Lebedev grid points for each H atom
	Using 194 Lebedev grid points for other atoms
	Atomic van der Waals radii will be scaled by 1.20
 Remove points where switching function is < 1.0e-08
 Keep 1169 surface tesserae and discard 1127 interior tesserae
 Molecular Surface Area = 241.173 Angst**2

                       Distance Matrix (Angstroms)
             O (  1)   C (  2)   O (  3)   O (  4)   O (  5)   C (  6)
   C (  2)  1.158299
   O (  3)  2.317707  1.159765
   O (  4)  3.088388  2.789530  2.989616
   O (  5)  7.693241  7.179460  6.864889  4.621484
   C (  6)  8.643656  8.201051  7.944578  5.555386  1.123131
   O (  7)  9.766006  9.372076  9.149339  6.682086  2.338038  1.217890
   C (  8)  4.393705  4.211197  4.380969  1.428530  3.576900  4.369201
   C (  9)  4.359693  3.799329  3.582613  1.428307  3.380778  4.409924
   H ( 10)  9.916252  9.634516  9.527330  6.874832  2.967124  1.896808
   H ( 11)  4.817508  4.744312  4.987362  2.127223  3.718227  4.368631
   H ( 12)  4.817508  4.744312  4.987362  2.127223  3.718227  4.368631
   H ( 13)  4.765396  4.100022  3.725328  2.128029  3.383769  4.437075
   H ( 14)  4.765396  4.100022  3.725328  2.128029  3.383769  4.437075
             O (  7)   C (  8)   C (  9)   H ( 10)   H ( 11)   H ( 12)
   C (  8)  5.423203
   C (  9)  5.596494  1.461351
   H ( 10)  1.000926  5.523175  5.944723
   H ( 11)  5.326628  1.087079  2.209018  5.328012
   H ( 12)  5.326628  1.087079  2.209018  5.328012  1.844851
   H ( 13)  5.626623  2.208886  1.087277  6.061132  3.131358  2.530202
   H ( 14)  5.626623  2.208886  1.087277  6.061132  2.530202  3.131358
             H ( 13)
   H ( 14)  1.844854
 
 Requested basis set is def2-TZVPPD
 There are 157 shells and 433 basis functions
 A cutoff of  1.0D-14 yielded  10103 shell pairs
 There are     75729 function pairs (     96625 Cartesian)
 Smallest overlap matrix eigenvalue = 5.72E-06
 Guess MOs from SCF MO coefficient file

 -----------------------------------------------------------------------
  General SCF calculation program by
  Eric Jon Sundstrom, Paul Horn, Yuezhi Mao, Dmitri Zuev, Alec White,
  David Stuck, Shaama M.S., Shane Yost, Joonho Lee, David Small,
  Daniel Levine, Susi Lehtola, Hugh Burton, Evgeny Epifanovsky,
  Bang C. Huynh
 -----------------------------------------------------------------------
 Exchange:     0.1670 Hartree-Fock + 1.0000 wB97X-V + LR-HF
 Correlation:  1.0000 wB97X-V
 Using SG-3 standard quadrature grid
 Nonlocal Correlation:  VV10 with C = 0.0100 and b = 6.00 and scale = 1.00000
 Grid used for NLC:  SG-1 standard quadrature
 
 Citation of the SMD model:
 Marenich, A.V.; Cramer, C.J.; Truhlar, D.G.
 J. Phys. Chem. B 2009, 113, 6378-6396.
 iSolventCode=           0
 Solvent: other                                                           
 
 vradii
            1           2           3           4           5           6
    1   2.2940000   1.8500000   2.2940000   2.2940000   2.2940000   1.8500000
            7           8           9          10          11          12
    1   2.2940000   1.8500000   1.8500000   1.2000000   1.2000000   1.2000000
           13          14
    1   1.2000000   1.2000000
 using 32 threads for integral computing
 -------------------------------------------------------
 OpenMP Integral computing Module                
 Release: version 1.0, May 2013, Q-Chem Inc. Pittsburgh 
 -------------------------------------------------------
 using 32 threads for integral computing
 -------------------------------------------------------
 OpenMP Integral computing Module                
 Release: version 1.0, May 2013, Q-Chem Inc. Pittsburgh 
 -------------------------------------------------------
 -------------------------------------------------------
 OpenMP BLAS3 based DFT computing Module                
 Release: version 1.0, May 2013, Q-Chem Inc. Pittsburgh 
 -------------------------------------------------------
 -------------------------------------------------------
 OpenMP BLAS3 based DFT computing Module                
 Release: version 1.0, May 2013, Q-Chem Inc. Pittsburgh 
 -------------------------------------------------------
 -------------------------------------------------------
 OpenMP BLAS3 based DFT computing Module                
 Release: version 1.0, May 2013, Q-Chem Inc. Pittsburgh 
 -------------------------------------------------------
 A restricted SCF calculation will be
 performed using Roothaan-Hall, DIIS
 SCF converges when DIIS error is below 1.0e-08
 ---------------------------------------
  Cycle       Energy         DIIS error
 ---------------------------------------
    1    -539.1267071050      2.79e-04  Roothaan Step
 ---------------------------------------
  Cycle       Energy         DIIS error
 ---------------------------------------
    1    -531.3354324864      3.92e-04  
    2    -531.3365975971      4.84e-04  
    3    -531.3401145554      4.81e-05  
    4    -531.3401729543      3.30e-05  
    5    -531.3401917287      1.44e-05  
    6    -531.3401962681      2.23e-06  
    7    -531.3401964106      1.43e-06  
    8    -531.3401964499      2.73e-07  
    9    -531.3401964529      1.27e-07  
   10    -531.3401964533      5.86e-08  
   11    -531.3401964534      1.80e-08  
   12    -531.3401964534      4.60e-09  Convergence criterion met
 ---------------------------------------
 SCF time:   CPU 2520.66s  wall 103.00s 
(3)  G-ENP(liq) elect-nuc-pol free energy of system     -531.340196453 a.u.
(4)  G-CDS(liq) cavity-dispersion-solvent structure 
     free energy                                               -2.3259 kcal/mol
(6)  G-S(liq) free energy of system                     -531.343902939 a.u.
 SCF   energy in the final basis set =     -531.3401964534
 Total energy in the final basis set =     -531.3439029392
 
 --------------------------------------------------------------
 
                    Orbital Energies (a.u.)
 --------------------------------------------------------------
 
 Alpha MOs
 -- Occupied --
-19.4652 -19.4363 -19.2867 -19.2866 -19.2352 -10.6100 -10.4532 -10.3224
-10.3218  -1.4475  -1.4064  -1.2896  -1.2454  -1.2135  -0.9399  -0.8105
 -0.7854  -0.7672  -0.7667  -0.7604  -0.6786  -0.6561  -0.6352  -0.6348
 -0.6322  -0.6310  -0.6244  -0.5946  -0.5093  -0.4897  -0.4745  -0.4730
 -0.4275  -0.3904
 -- Virtual --
 -0.0329  -0.0072   0.0020   0.0451   0.0636   0.0715   0.0798   0.0805
  0.0877   0.0948   0.1031   0.1080   0.1176   0.1223   0.1259   0.1303
  0.1328   0.1367   0.1371   0.1443   0.1531   0.1617   0.1704   0.1711
  0.1818   0.1830   0.1947   0.2002   0.2110   0.2228   0.2258   0.2383
  0.2456   0.2494   0.2573   0.2575   0.2713   0.2749   0.2849   0.2906
  0.3036   0.3055   0.3153   0.3155   0.3178   0.3305   0.3322   0.3376
  0.3433   0.3457   0.3642   0.3657   0.3682   0.3761   0.3786   0.3879
  0.3901   0.3995   0.4036   0.4040   0.4134   0.4138   0.4189   0.4211
  0.4289   0.4335   0.4463   0.4477   0.4582   0.4587   0.4705   0.4747
  0.4856   0.4878   0.4960   0.4966   0.5068   0.5122   0.5271   0.5361
  0.5421   0.5426   0.5484   0.5505   0.5621   0.5704   0.5733   0.5857
  0.5877   0.5992   0.5999   0.6052   0.6222   0.6290   0.6416   0.6469
  0.6640   0.6760   0.6881   0.6949   0.7075   0.7222   0.7357   0.7480
  0.7533   0.7582   0.7717   0.7740   0.7814   0.7859   0.7870   0.8034
  0.8046   0.8155   0.8318   0.8355   0.8604   0.8718   0.8825   0.8936
  0.8937   0.9149   0.9181   0.9221   0.9310   0.9359   0.9419   0.9677
  0.9841   0.9862   0.9970   0.9976   1.0040   1.0051   1.0202   1.0365
  1.0381   1.0622   1.0944   1.0983   1.1276   1.1281   1.1477   1.1527
  1.1743   1.1944   1.1994   1.2060   1.2078   1.2325   1.2336   1.2701
  1.2767   1.2819   1.2852   1.2902   1.3019   1.3340   1.3409   1.3536
  1.3627   1.3828   1.3996   1.4334   1.4614   1.5095   1.5132   1.5510
  1.6424   1.6680   1.6861   1.6961   1.7173   1.7308   1.7343   1.7512
  1.7519   1.7685   1.7787   1.8024   1.8189   1.8402   1.8499   1.8746
  1.8855   1.8981   1.9007   1.9131   1.9202   1.9293   1.9494   1.9681
  1.9777   2.0284   2.0340   2.0639   2.0737   2.0939   2.1079   2.1408
  2.1723   2.2094   2.2266   2.2550   2.3258   2.3503   2.3733   2.3849
  2.4472   2.4556   2.4824   2.5026   2.5168   2.5330   2.5715   2.5758
  2.6361   2.7113   2.7242   2.7395   2.7603   2.7833   2.7944   2.8191
  2.8329   2.8804   2.9136   2.9464   2.9470   2.9652   2.9686   2.9749
  2.9842   2.9861   3.0033   3.0223   3.0314   3.0422   3.0456   3.0525
  3.0646   3.0749   3.1027   3.1237   3.1243   3.1380   3.1415   3.1560
  3.1601   3.2025   3.2110   3.2195   3.2244   3.2899   3.2928   3.2953
  3.3239   3.3426   3.3543   3.3599   3.3711   3.4213   3.4387   3.4506
  3.4827   3.5118   3.5137   3.5246   3.5314   3.5585   3.5759   3.6346
  3.6431   3.6889   3.6906   3.7150   3.7414   3.7630   3.7657   3.8023
  3.8094   3.8117   3.8155   3.8377   3.8708   3.8957   3.9631   3.9997
  4.0391   4.0421   4.0476   4.0635   4.1086   4.1467   4.2002   4.2201
  4.2883   4.3011   4.3117   4.3710   4.3780   4.3883   4.3937   4.4249
  4.4848   4.6286   4.6539   4.7085   4.7361   4.7816   4.7997   4.8116
  4.9617   4.9842   4.9894   5.0622   5.0914   5.1005   5.1117   5.1184
  5.1780   5.1909   5.2014   5.2415   5.2468   5.2530   5.2546   5.2972
  5.3062   5.3268   5.3294   5.3514   5.4159   5.4766   5.5524   5.5808
  5.6270   5.6552   5.6804   5.7122   5.7137   5.7322   5.7751   5.8864
  5.9348   5.9406   5.9748   6.0713   6.0713   6.1591   6.1928   6.2574
  6.2652   6.3283   6.3287   6.4109   6.4133   6.4236   6.4311   6.4481
  6.4820   6.5226   6.5416   6.5427   6.5542   6.5792   6.5981   6.6165
  6.6589   6.7851   6.8584   6.8631   6.8808   6.9560   6.9780   7.0432
  7.0474   7.0523   7.0725   7.1039   7.2141   7.2284   7.2875   7.3229
  7.3448   7.4962   7.6028   7.6575   7.8753   7.8785  23.6626  23.6784
 24.0303  24.3391  44.0670  44.1521  44.3553  44.4057  44.4453
 --------------------------------------------------------------
 
          Ground-State Mulliken Net Atomic Charges

     Atom                 Charge (a.u.)
  ----------------------------------------
      1 O                    -0.305952
      2 C                     0.636297
      3 O                    -0.309668
      4 O                    -0.320760
      5 O                     0.021546
      6 C                     0.704626
      7 O                    -0.105982
      8 C                    -0.046357
      9 C                     0.120742
     10 H                     0.370380
     11 H                     0.062518
     12 H                     0.062518
     13 H                     0.055046
     14 H                     0.055046
  ----------------------------------------
  Sum of atomic charges =     1.000000

  Building new vdw surfaces
         Merz-Kollman RESP Net Atomic Charges

     Atom                 Charge (a.u.)
  ----------------------------------------
      1 O                    -0.381679
      2 C                     0.713813
      3 O                    -0.364145
      4 O                    -0.196151
      5 O                    -0.094652
      6 C                     0.777511
      7 O                    -0.208588
      8 C                    -0.275061
      9 C                    -0.275061
     10 H                     0.524336
     11 H                     0.194919
     12 H                     0.194919
     13 H                     0.194919
     14 H                     0.194919
  ----------------------------------------
  Sum of atomic charges =     1.000000

  Related Dipole Moment =    21.4751 (X -16.0689 Y 14.2468 Z -0.0000)

 -----------------------------------------------------------------
                    Cartesian Multipole Moments
 -----------------------------------------------------------------
    Charge (ESU x 10^10)
                 4.8032
    Dipole Moment (Debye)
         X     -16.0530      Y      14.2744      Z       0.0000
       Tot      21.4816
    Quadrupole Moments (Debye-Ang)
        XX      -8.2097     XY     -30.7427     YY     -21.2298
        XZ      -0.0000     YZ       0.0000     ZZ     -45.9379
    Octopole Moments (Debye-Ang^2)
       XXX    -367.5017    XXY     119.2951    XYY    -167.5376
       YYY     128.8447    XXZ      -0.0000    XYZ       0.0000
       YYZ      -0.0000    XZZ     -57.6135    YZZ       3.6146
       ZZZ       0.0000
    Hexadecapole Moments (Debye-Ang^3)
      XXXX   -2016.2146   XXXY     304.5216   XXYY    -413.1160
      XYYY     614.5275   YYYY   -1220.2142   XXXZ      -0.0000
      XXYZ      -0.0000   XYYZ       0.0000   YYYZ       0.0000
      XXZZ    -421.8918   XYZZ     242.9783   YYZZ    -226.7206
      XZZZ       0.0000   YZZZ       0.0000   ZZZZ     -52.2211
 -----------------------------------------------------------------
 Calculating analytic gradient of the SCF energy
 Gradient of CDS energy
            1           2           3           4           5           6
    1  -0.0007563   0.0012104  -0.0006392  -0.0000707   0.0001053   0.0006283
    2   0.0000916  -0.0004572   0.0003668   0.0003834  -0.0001052   0.0002193
    3   0.0000000  -0.0000000   0.0000000   0.0000000   0.0000000   0.0000000
            7           8           9          10          11          12
    1  -0.0003618  -0.0010611   0.0010981  -0.0003073   0.0001393   0.0001393
    2  -0.0006352  -0.0011955   0.0010660   0.0004267   0.0000564   0.0000564
    3   0.0000000  -0.0000000   0.0000000   0.0000000   0.0002410  -0.0002410
           13          14
    1  -0.0000622  -0.0000622
    2  -0.0001367  -0.0001367
    3  -0.0002406   0.0002406
 Gradient of SCF Energy
            1           2           3           4           5           6
    1  -0.0094314  -0.0034823   0.0115163   0.0072952   0.1554640  -0.0496207
    2  -0.0274778  -0.0010623   0.0295419  -0.0092703  -0.0298521   0.0009329
    3   0.0000000  -0.0000000   0.0000000  -0.0000000   0.0000000  -0.0000000
            7           8           9          10          11          12
    1  -0.0436761   0.0221857  -0.0091460  -0.0605968  -0.0170199  -0.0170199
    2   0.0693506   0.0210776  -0.0264806  -0.0412209  -0.0088951  -0.0088951
    3   0.0000000   0.0000000   0.0000000   0.0000000  -0.0312186   0.0312186
           13          14
    1   0.0067659   0.0067659
    2   0.0161256   0.0161256
    3   0.0295814  -0.0295814
 Max gradient component =       1.555E-01
 RMS gradient           =       3.394E-02
 Computing fast CPCM-SWIG gradient
 Updating gradient with PCM contributions...
 -- total gradient after adding PCM contribution --
---------------------------------------------------
  Atom         X              Y              Z     
---------------------------------------------------
   1       0.000482       0.001775       0.000000
   2      -0.000642      -0.001694      -0.000000
   3      -0.000017      -0.000066       0.000000
   4       0.000145      -0.000096      -0.000000
   5      -0.000066       0.000019       0.000000
   6       0.000072      -0.000008       0.000000
   7      -0.000028       0.000003      -0.000000
   8       0.000089       0.000045       0.000000
   9      -0.000050       0.000028       0.000000
  10      -0.000058       0.000053       0.000000
  11       0.000074      -0.000054       0.000018
  12       0.000074      -0.000054      -0.000018
  13      -0.000037       0.000024       0.000012
  14      -0.000037       0.000024      -0.000012
---------------------------------------------------
 Number of fixed atoms: 0
 Gradient time:  CPU 496.60 s  wall 25.63 s
 ----------------------------------------------------------------
             Standard Nuclear Orientation (Angstroms)
    I     Atom           X                Y                Z
 ----------------------------------------------------------------
    1      O       4.0308545510    -3.3121820198     0.0000000000
    2      C       4.4033231973    -2.2134032886     0.0000000000
    3      O       4.8145626186    -1.1289968426     0.0000000000
    4      O       1.8250110644    -1.1486100613     0.0000000000
    5      O      -1.0138466844     2.4981699776     0.0000000000
    6      C      -2.1003963841     2.7824822079     0.0000000000
    7      O      -3.2415039747     3.2080745857     0.0000000000
    8      C       0.4486516377    -0.7660772933     0.0000000000
    9      C       1.5052553249     0.2434454047     0.0000000000
   10      H      -3.9807628519     2.5332791753     0.0000000000
   11      H      -0.0845465613    -0.9818796859    -0.9224256779
   12      H      -0.0845465708    -0.9818796525     0.9224256828
   13      H       1.7435745597     0.7673760133     0.9224268510
   14      H       1.7435745990     0.7673760080    -0.9224268584
 ----------------------------------------------------------------
 Nuclear Repulsion Energy =         369.57212307 hartrees
 There are       34 alpha and       34 beta electrons
 Discretize the solute cavity surface with Lebedev spheres
	Using 110 Lebedev grid points for each H atom
	Using 194 Lebedev grid points for other atoms
	Atomic van der Waals radii will be scaled by 1.20
 Remove points where switching function is < 1.0e-08
 Keep 1169 surface tesserae and discard 1127 interior tesserae
 Molecular Surface Area = 241.207 Angst**2

                       Distance Matrix (Angstroms)
             O (  1)   C (  2)   O (  3)   O (  4)   O (  5)   C (  6)
   C (  2)  1.160193
   O (  3)  2.319590  1.159765
   O (  4)  3.089788  2.789530  2.989616
   O (  5)  7.694752  7.179460  6.864889  4.621484
   C (  6)  8.645066  8.201051  7.944578  5.555386  1.123131
   O (  7)  9.767341  9.372076  9.149339  6.682086  2.338038  1.217890
   C (  8)  4.394864  4.211197  4.380969  1.428530  3.576900  4.369201
   C (  9)  4.361323  3.799329  3.582613  1.428307  3.380778  4.409924
   H ( 10)  9.917431  9.634516  9.527330  6.874832  2.967124  1.896808
   H ( 11)  4.818475  4.744312  4.987362  2.127223  3.718227  4.368631
   H ( 12)  4.818475  4.744312  4.987362  2.127223  3.718227  4.368631
   H ( 13)  4.767108  4.100022  3.725328  2.128029  3.383769  4.437075
   H ( 14)  4.767108  4.100022  3.725328  2.128029  3.383769  4.437075
             O (  7)   C (  8)   C (  9)   H ( 10)   H ( 11)   H ( 12)
   C (  8)  5.423203
   C (  9)  5.596494  1.461351
   H ( 10)  1.000926  5.523175  5.944723
   H ( 11)  5.326628  1.087079  2.209018  5.328012
   H ( 12)  5.326628  1.087079  2.209018  5.328012  1.844851
   H ( 13)  5.626623  2.208886  1.087277  6.061132  3.131358  2.530202
   H ( 14)  5.626623  2.208886  1.087277  6.061132  2.530202  3.131358
             H ( 13)
   H ( 14)  1.844854
 
 Requested basis set is def2-TZVPPD
 There are 157 shells and 433 basis functions
 A cutoff of  1.0D-14 yielded  10103 shell pairs
 There are     75729 function pairs (     96625 Cartesian)
 Smallest overlap matrix eigenvalue = 5.72E-06
 Guess MOs from SCF MO coefficient file

 -----------------------------------------------------------------------
  General SCF calculation program by
  Eric Jon Sundstrom, Paul Horn, Yuezhi Mao, Dmitri Zuev, Alec White,
  David Stuck, Shaama M.S., Shane Yost, Joonho Lee, David Small,
  Daniel Levine, Susi Lehtola, Hugh Burton, Evgeny Epifanovsky,
  Bang C. Huynh
 -----------------------------------------------------------------------
 Exchange:     0.1670 Hartree-Fock + 1.0000 wB97X-V + LR-HF
 Correlation:  1.0000 wB97X-V
 Using SG-3 standard quadrature grid
 Nonlocal Correlation:  VV10 with C = 0.0100 and b = 6.00 and scale = 1.00000
 Grid used for NLC:  SG-1 standard quadrature
 
 Citation of the SMD model:
 Marenich, A.V.; Cramer, C.J.; Truhlar, D.G.
 J. Phys. Chem. B 2009, 113, 6378-6396.
 iSolventCode=           0
 Solvent: other                                                           
 
 vradii
            1           2           3           4           5           6
    1   2.2940000   1.8500000   2.2940000   2.2940000   2.2940000   1.8500000
            7           8           9          10          11          12
    1   2.2940000   1.8500000   1.8500000   1.2000000   1.2000000   1.2000000
           13          14
    1   1.2000000   1.2000000
 using 32 threads for integral computing
 -------------------------------------------------------
 OpenMP Integral computing Module                
 Release: version 1.0, May 2013, Q-Chem Inc. Pittsburgh 
 -------------------------------------------------------
 using 32 threads for integral computing
[...]
 Red. Mass:       4.9106                 8.7376                 8.5401
 IR Active:          YES                    YES                    YES
 IR Intens:        9.544                  7.141                  1.009
 Raman Active:       YES                    YES                    YES
               X      Y      Z        X      Y      Z        X      Y      Z
 O          0.165 -0.086 -0.000    0.064 -0.084  0.000    0.310 -0.150  0.000
 C          0.050 -0.047  0.000    0.039 -0.076  0.000    0.266 -0.135  0.000
 O         -0.068 -0.002  0.000    0.010 -0.065 -0.000    0.195 -0.108 -0.000
 O         -0.050 -0.181 -0.000   -0.057 -0.035  0.000   -0.302  0.131 -0.000
 O         -0.162  0.020  0.000    0.127  0.551 -0.000   -0.002 -0.100  0.000
 C         -0.147  0.077  0.000    0.011  0.109  0.000    0.015 -0.035  0.000
 O         -0.125  0.137  0.000   -0.166 -0.364 -0.000    0.041  0.035 -0.000
 C          0.049  0.176  0.000   -0.039  0.032 -0.000   -0.285  0.206 -0.000
 C          0.309 -0.097 -0.000    0.010 -0.019  0.000   -0.233  0.149  0.000
 H         -0.160  0.176  0.000    0.114 -0.670  0.000   -0.000  0.081  0.000
 H         -0.007  0.313  0.000   -0.049  0.058  0.000   -0.298  0.236  0.000
 H         -0.007  0.313 -0.000   -0.049  0.058 -0.000   -0.298  0.236 -0.000
 H          0.443 -0.158 -0.000    0.035 -0.030 -0.000   -0.208  0.138 -0.000
 H          0.443 -0.158  0.000    0.035 -0.030  0.000   -0.208  0.138  0.000
 TransDip  -0.026  0.095  0.000    0.038 -0.077  0.000    0.032  0.003  0.000

 Mode:                10                     11                     12
 Frequency:       117.84                 125.75                 540.93
 Force Cnst:      0.0891                 0.0103                 0.6926
 Red. Mass:      10.8940                 1.1097                 4.0175
 IR Active:          YES                    YES                    YES
 IR Intens:        0.437                261.443                 51.578
 Raman Active:       YES                    YES                    YES
               X      Y      Z        X      Y      Z        X      Y      Z
 O         -0.343  0.283 -0.000    0.000 -0.000 -0.011    0.000  0.000  0.000
 C          0.102  0.127  0.000   -0.000 -0.000  0.005    0.000  0.000 -0.000
 O          0.534 -0.032  0.000   -0.000  0.000  0.021   -0.000  0.000 -0.000
 O         -0.215 -0.254 -0.000    0.000  0.000 -0.007   -0.000  0.001  0.000
 O         -0.005  0.012 -0.000   -0.000 -0.000 -0.015   -0.043 -0.196 -0.000
 C         -0.007  0.005  0.000   -0.000 -0.000  0.034    0.123  0.431  0.000
 O         -0.010 -0.003 -0.000   -0.000  0.000 -0.070   -0.080 -0.083 -0.000
 C         -0.135  0.054 -0.000    0.000 -0.000 -0.016   -0.000 -0.000 -0.000
 C          0.088 -0.183  0.000   -0.000  0.000  0.006    0.000  0.000  0.000
 H         -0.005 -0.008  0.000   -0.000  0.000  0.995    0.479 -0.719 -0.000
 H         -0.181  0.170 -0.000    0.008  0.011 -0.023   -0.000 -0.000 -0.000
 H         -0.181  0.170  0.000   -0.008 -0.011 -0.023   -0.000 -0.000  0.000
 H          0.204 -0.235 -0.000   -0.008 -0.011  0.014    0.000  0.000  0.000
 H          0.204 -0.235  0.000    0.008  0.011  0.014    0.000  0.000 -0.000
 TransDip   0.019  0.008  0.000   -0.000 -0.000  0.518    0.226  0.042 -0.000

 Mode:                13                     14                     15
 Frequency:       590.79                 668.37                 680.01
 Force Cnst:      1.7670                 3.3976                 3.5056
 Red. Mass:       8.5928                12.9091                12.8671
 IR Active:          YES                    YES                    YES
 IR Intens:       21.351                 79.401                 43.102
 Raman Active:       YES                    YES                    YES
               X      Y      Z        X      Y      Z        X      Y      Z
 O          0.000  0.000  0.000   -0.324  0.096 -0.000    0.000 -0.000 -0.330
 C          0.000 -0.000  0.000    0.826 -0.297  0.000   -0.000  0.000  0.885
 O          0.000 -0.000  0.000   -0.311  0.131 -0.000    0.000 -0.000 -0.330
 O         -0.000 -0.000  0.000   -0.001  0.009 -0.000    0.000 -0.000 -0.004
 O          0.000  0.000 -0.290   -0.000  0.000  0.000   -0.000  0.000 -0.000
 C         -0.000 -0.000  0.717   -0.000 -0.000 -0.000   -0.000  0.000  0.000
 O          0.000 -0.000 -0.211   -0.000  0.000  0.000   -0.000 -0.000  0.000
 C          0.000  0.000 -0.000    0.011 -0.014 -0.000   -0.000  0.000 -0.001
 C         -0.000  0.000  0.000    0.010 -0.005 -0.000   -0.000  0.000 -0.000
 H         -0.000  0.000 -0.597    0.000 -0.000  0.000   -0.000 -0.000  0.000
 H         -0.000  0.000 -0.000    0.004 -0.010  0.002    0.002 -0.003 -0.001
 H          0.000 -0.000 -0.000    0.004 -0.010 -0.002   -0.002  0.003 -0.001
 H          0.000  0.000 -0.000    0.004  0.003 -0.001   -0.004 -0.003  0.003
 H         -0.000 -0.000 -0.000    0.004  0.003  0.001    0.004  0.003  0.003
 TransDip  -0.000 -0.000  0.148    0.263 -0.111  0.000   -0.000  0.000  0.210

 Mode:                16                     17                     18
 Frequency:       814.86                 891.73                 920.90
 Force Cnst:      0.4002                 4.5180                 1.6917
 Red. Mass:       1.0231                 9.6433                 3.3858
 IR Active:          YES                    YES                    YES
 IR Intens:        1.877                 20.116                143.250
 Raman Active:       YES                    YES                    YES
               X      Y      Z        X      Y      Z        X      Y      Z
 O         -0.000 -0.000 -0.000    0.000  0.001  0.000    0.003 -0.001 -0.000
 C          0.000  0.000  0.001   -0.000  0.001  0.000   -0.006  0.002  0.000
 O         -0.000  0.000 -0.000    0.001 -0.001 -0.000    0.004 -0.001  0.000
 O          0.000 -0.000  0.026   -0.301 -0.300 -0.000   -0.212  0.212 -0.000
 O         -0.000  0.000  0.000   -0.000 -0.000 -0.000    0.000  0.000 -0.000
 C         -0.000 -0.000 -0.000    0.000  0.000 -0.000    0.000 -0.002  0.000
 O          0.000  0.000 -0.000    0.001 -0.000  0.000   -0.002  0.002 -0.000
 C         -0.000 -0.000  0.015    0.493 -0.157 -0.000   -0.019 -0.216 -0.000
 C         -0.000  0.000  0.015   -0.150  0.499  0.000    0.215  0.018  0.000
 H          0.000 -0.000 -0.000    0.001 -0.001  0.000    0.006 -0.006  0.000
 H          0.177  0.425 -0.194    0.238  0.109  0.059    0.042 -0.449  0.007
 H         -0.177 -0.425 -0.194    0.238  0.109 -0.059    0.042 -0.449 -0.007
 H          0.432  0.159 -0.194    0.092  0.237  0.059    0.449 -0.058 -0.005
 H         -0.432 -0.159 -0.194    0.092  0.237 -0.059    0.449 -0.058  0.005
 TransDip   0.000 -0.000 -0.044    0.100  0.103  0.000    0.272 -0.270  0.000

 Mode:                19                     20                     21
 Frequency:      1039.78                1063.49                1170.37
 Force Cnst:      0.9040                 0.6822                 1.2264
 Red. Mass:       1.4192                 1.0237                 1.5196
 IR Active:          YES                    YES                    YES
 IR Intens:      327.185                  0.007                  0.881
 Raman Active:       YES                    YES                    YES
               X      Y      Z        X      Y      Z        X      Y      Z
 O         -0.000  0.000 -0.000    0.000  0.000 -0.000    0.001  0.000  0.000
 C          0.000 -0.000  0.000    0.000  0.000  0.000   -0.003  0.001  0.000
 O         -0.000  0.000  0.000    0.000  0.000 -0.000    0.001 -0.001 -0.000
 O         -0.001  0.001 -0.000   -0.000 -0.000  0.001   -0.066  0.074  0.000
 O         -0.011 -0.019  0.000    0.000  0.000  0.000    0.000  0.000 -0.000
 C          0.020  0.123 -0.000   -0.000 -0.000 -0.000    0.000 -0.000 -0.000
 O          0.038 -0.118 -0.000   -0.000  0.000  0.000   -0.000  0.000  0.000
 C         -0.000 -0.001 -0.000    0.000  0.000 -0.028    0.093 -0.096 -0.000
 C          0.001  0.000  0.000   -0.000 -0.000  0.026    0.078 -0.096 -0.000
 H         -0.678  0.713  0.000    0.000 -0.000  0.000   -0.001  0.000 -0.000
 H          0.000 -0.002  0.000   -0.349  0.353  0.088   -0.043  0.515 -0.061
 H          0.000 -0.002 -0.000    0.349 -0.353  0.088   -0.043  0.515  0.061
 H          0.002 -0.000 -0.000   -0.334  0.355 -0.086   -0.451  0.037  0.057
 H          0.002 -0.000  0.000    0.334 -0.355 -0.086   -0.451  0.037 -0.057
 TransDip  -0.445  0.371  0.000    0.000 -0.000 -0.003    0.023 -0.019 -0.000

 Mode:                22                     23                     24
 Frequency:      1173.49                1177.17                1183.43
 Force Cnst:      1.1395                 1.0346                 1.0691
 Red. Mass:       1.4044                 1.2672                 1.2956
 IR Active:          YES                    YES                    YES
 IR Intens:        0.024                 10.024                  0.680
 Raman Active:       YES                    YES                    YES
               X      Y      Z        X      Y      Z        X      Y      Z
 O         -0.000  0.000 -0.000   -0.000  0.000 -0.000   -0.000 -0.000  0.000
 C          0.000 -0.000 -0.000    0.000 -0.000  0.000    0.000 -0.000  0.000
 O         -0.000 -0.000  0.000   -0.000 -0.000 -0.000   -0.000  0.000 -0.000
 O          0.000 -0.000 -0.004    0.000 -0.000  0.091    0.047  0.037  0.000
 O          0.000 -0.000  0.000   -0.000  0.000 -0.000    0.001 -0.000 -0.000
 C          0.000 -0.000  0.000   -0.000  0.000 -0.000    0.000 -0.000 -0.000
 O         -0.000  0.000 -0.000    0.000 -0.000  0.000   -0.001  0.000  0.000
 C         -0.000  0.000  0.137   -0.000  0.000 -0.073   -0.005 -0.098 -0.000
 C         -0.000  0.000 -0.131   -0.000  0.000 -0.084   -0.108  0.010 -0.000
 H          0.000 -0.000  0.000   -0.000  0.000 -0.000   -0.001  0.000 -0.000
 H          0.309  0.368 -0.122   -0.413  0.232  0.102   -0.178  0.429 -0.025
 H         -0.309 -0.368 -0.122    0.413 -0.232  0.102   -0.178  0.429  0.025
 H         -0.398 -0.256  0.113    0.193 -0.452  0.113    0.479 -0.202 -0.032
 H          0.398  0.256  0.113   -0.193  0.452  0.113    0.479 -0.202  0.032
 TransDip  -0.000 -0.000  0.005   -0.000  0.000 -0.101    0.016  0.021 -0.000

 Mode:                25                     26                     27
 Frequency:      1288.45                1326.33                1392.54
 Force Cnst:      8.2372                 2.2629                18.2673
 Red. Mass:       8.4216                 2.1833                15.9884
 IR Active:          YES                    YES                    YES
 IR Intens:       11.650                 26.891                  0.309
 Raman Active:       YES                    YES                    YES
               X      Y      Z        X      Y      Z        X      Y      Z
 O         -0.000 -0.000  0.000    0.001  0.001 -0.000    0.228  0.668 -0.000
 C          0.000 -0.000 -0.000   -0.000  0.000 -0.000    0.028 -0.008  0.000
 O         -0.000  0.000 -0.000   -0.000 -0.001  0.000   -0.249 -0.662  0.000
 O         -0.001  0.002 -0.000   -0.078  0.082 -0.000    0.001 -0.001 -0.000
 O         -0.438  0.124 -0.000    0.001 -0.000 -0.000   -0.000  0.000 -0.000
 C         -0.140  0.045 -0.000    0.000 -0.000 -0.000   -0.000  0.000 -0.000
 O          0.502 -0.141  0.000   -0.001  0.000 -0.000    0.000 -0.000  0.000
 C          0.001 -0.001  0.000    0.159  0.139 -0.000   -0.001 -0.001  0.000
 C         -0.001 -0.002  0.000   -0.146 -0.153  0.000    0.001  0.000  0.000
 H          0.649 -0.279  0.000   -0.001  0.000  0.000    0.000  0.000 -0.000
 H          0.001  0.003 -0.000    0.454 -0.104 -0.088   -0.007 -0.001  0.003
 H          0.001  0.003  0.000    0.454 -0.104  0.088   -0.007 -0.001 -0.003
 H          0.006 -0.005 -0.001    0.085 -0.457  0.087    0.001  0.007 -0.003
 H          0.006 -0.005  0.001    0.085 -0.457 -0.087    0.001  0.007  0.003
 TransDip  -0.109  0.011  0.000    0.117 -0.118  0.000    0.017 -0.005  0.000

 Mode:                28                     29                     30
 Frequency:      1495.46                1537.50                2406.40
 Force Cnst:      1.4161                 2.0160                43.9219
 Red. Mass:       1.0747                 1.4475                12.8734
 IR Active:          YES                    YES                    YES
 IR Intens:        2.259                  5.414                960.892
 Raman Active:       YES                    YES                    YES
               X      Y      Z        X      Y      Z        X      Y      Z
 O         -0.000 -0.000 -0.000    0.000 -0.000  0.000   -0.108 -0.313  0.000
 C          0.000  0.000  0.000   -0.001  0.000 -0.000    0.299  0.832 -0.000
 O         -0.000  0.000  0.000    0.001  0.000 -0.000   -0.115 -0.309  0.000
 O         -0.013 -0.012  0.000   -0.026  0.027  0.000   -0.001 -0.000 -0.000
 O         -0.000 -0.000  0.000    0.000 -0.000 -0.000    0.001 -0.000 -0.000
 C          0.000  0.000  0.000   -0.000 -0.000 -0.000   -0.001  0.000 -0.000
 O          0.000 -0.000 -0.000   -0.000  0.000  0.000    0.000 -0.000 -0.000
 C         -0.049 -0.023  0.000    0.129  0.049 -0.000   -0.000 -0.000  0.000
 C         -0.024 -0.047 -0.000   -0.055 -0.127  0.000    0.001 -0.002  0.000
 H         -0.000  0.000  0.000   -0.000 -0.000 -0.000    0.000 -0.001  0.000
 H          0.399  0.119 -0.277   -0.358 -0.109  0.312   -0.002  0.001  0.002
 H          0.399  0.119  0.277   -0.358 -0.109 -0.312   -0.002  0.001 -0.002
 H          0.134  0.392 -0.275    0.124  0.358 -0.315    0.002 -0.000  0.000
 H          0.134  0.392  0.275    0.124  0.358  0.315    0.002 -0.000 -0.000
 TransDip   0.035  0.033  0.000    0.051 -0.054 -0.000    0.322  0.939 -0.000

 Mode:                31                     32                     33
 Frequency:      2475.39                3118.20                3127.39
 Force Cnst:     43.6130                 5.9880                 6.1040
 Red. Mass:      12.0803                 1.0453                 1.0592
 IR Active:          YES                    YES                    YES
 IR Intens:      653.812                 36.621                 19.379
 Raman Active:       YES                    YES                    YES
               X      Y      Z        X      Y      Z        X      Y      Z
 O         -0.000 -0.000 -0.000   -0.000 -0.000 -0.000    0.000 -0.000 -0.000
 C          0.000  0.001 -0.000    0.000  0.000  0.000   -0.000  0.000  0.000
 O         -0.000 -0.000 -0.000   -0.000 -0.000  0.000    0.000 -0.000  0.000
 O          0.000 -0.000 -0.000    0.001  0.001  0.000   -0.000  0.000  0.000
 O         -0.421  0.107 -0.000    0.000  0.000 -0.000   -0.000  0.000  0.000
 C          0.812 -0.212  0.000    0.000 -0.000 -0.000   -0.000  0.000 -0.000
 O         -0.178  0.038 -0.000    0.000  0.000  0.000   -0.000 -0.000  0.000
 C          0.000  0.001 -0.000    0.034  0.015  0.000    0.047  0.021 -0.000
 C         -0.001 -0.000  0.000    0.020  0.040 -0.000   -0.020 -0.040 -0.000
 H         -0.148  0.227  0.000   -0.001 -0.001 -0.000    0.000  0.000 -0.000
 H         -0.000  0.001  0.001   -0.215 -0.089 -0.392   -0.253 -0.104 -0.465
 H         -0.000  0.001 -0.001   -0.215 -0.089  0.392   -0.253 -0.104  0.465
 H         -0.001  0.000  0.000   -0.116 -0.250 -0.464    0.096  0.210  0.392
 H         -0.001  0.000 -0.000   -0.116 -0.250  0.464    0.096  0.210 -0.392
 TransDip   0.799 -0.180  0.000    0.132  0.142 -0.000    0.112 -0.085  0.000

 Mode:                34                     35                     36
 Frequency:      3208.97                3221.02                3342.23
 Force Cnst:      6.8054                 6.8545                 7.0170
 Red. Mass:       1.1217                 1.1214                 1.0662
 IR Active:          YES                    YES                    YES
 IR Intens:        0.080                 36.282                863.001
 Raman Active:       YES                    YES                    YES
               X      Y      Z        X      Y      Z        X      Y      Z
 O         -0.000  0.000  0.000   -0.000 -0.000 -0.000    0.000 -0.000  0.000
 C          0.000  0.000 -0.000    0.000  0.000  0.000   -0.000  0.000 -0.000
 O         -0.000 -0.000 -0.000    0.000 -0.000  0.000    0.000 -0.000 -0.000
 O         -0.000  0.000  0.000   -0.000  0.000  0.002    0.000 -0.000  0.000
 O         -0.000  0.000 -0.000    0.000 -0.000 -0.000    0.006 -0.002 -0.000
 C          0.000 -0.000  0.000   -0.000  0.000 -0.000   -0.010  0.002  0.000
 O         -0.000 -0.000 -0.000   -0.000 -0.000 -0.000   -0.046 -0.040  0.000
 C         -0.000 -0.000  0.068   -0.000 -0.000 -0.076    0.000  0.000  0.000
 C         -0.000 -0.000 -0.076   -0.000 -0.000 -0.068   -0.000  0.000  0.000
 H          0.000  0.000  0.000    0.000  0.000 -0.000    0.755  0.653 -0.000
 H         -0.227 -0.092 -0.399    0.254  0.113  0.445   -0.000 -0.000 -0.000
 H          0.227  0.092 -0.399   -0.254 -0.113  0.445   -0.000 -0.000  0.000
 H          0.115  0.249  0.447    0.111  0.222  0.397   -0.000 -0.000 -0.001
 H         -0.115 -0.249  0.447   -0.111 -0.222  0.397   -0.000 -0.000  0.001
 TransDip  -0.000 -0.000 -0.009    0.000  0.000 -0.193    0.864  0.372  0.000

 STANDARD THERMODYNAMIC QUANTITIES AT   298.15 K  AND     1.00 ATM

   This Molecule has  3 Imaginary Frequencies
   Zero point vibrational energy:       57.694 kcal/mol

   Atom    1 Element O  Has Mass   15.99491
   Atom    2 Element C  Has Mass   12.00000
   Atom    3 Element O  Has Mass   15.99491
   Atom    4 Element O  Has Mass   15.99491
   Atom    5 Element O  Has Mass   15.99491
   Atom    6 Element C  Has Mass   12.00000
   Atom    7 Element O  Has Mass   15.99491
   Atom    8 Element C  Has Mass   12.00000
   Atom    9 Element C  Has Mass   12.00000
   Atom   10 Element H  Has Mass    1.00783
   Atom   11 Element H  Has Mass    1.00783
   Atom   12 Element H  Has Mass    1.00783
   Atom   13 Element H  Has Mass    1.00783
   Atom   14 Element H  Has Mass    1.00783
   Molecular Mass:   133.013700 amu
   Principal axes and moments of inertia in amu*Bohr^2:
                             1           2           3
    Eigenvalues --      283.14077  5740.37531  5999.01765
          X               0.79005     0.61305     0.00000
          Y              -0.61305     0.79005     0.00000
          Z              -0.00000    -0.00000     1.00000
   Rotational Symmetry Number is   1
   The Molecule is an Asymmetric Top
   Translational Enthalpy:        0.889 kcal/mol
   Rotational Enthalpy:           0.889 kcal/mol
   Vibrational Enthalpy:         62.369 kcal/mol
   gas constant (RT):             0.592 kcal/mol
   Translational Entropy:        40.568  cal/mol.K
   Rotational Entropy:           30.656  cal/mol.K
   Vibrational Entropy:          41.494  cal/mol.K

   Total Enthalpy:               64.739 kcal/mol
   Total Entropy:               112.718  cal/mol.K
Archival summary:
1\1\nid01744\FREQ\ProcedureUnspecified\BasisUnspecified\545(1+,1)\sblau\WedJul1709:45:382019WedJul1709:45:382019\0\\#,FREQ,ProcedureUnspecified,BasisUnspecified,\\1,1\O\C,1,1.42831\H,2,1.08728,1,114.871\H,2,1.08728,1,114.871,3,138.491,0\C,1,1.42853,2,61.5313,3,110.755,0\H,5,1.08708,1,114.798,2,110.817,0\H,5,1.08708,1,114.798,2,-110.817,0\C,1,2.78953,2,125.376,3,-69.2453,0\O,8,1.15925,1,93.698,2,-180,0\O,8,1.15977,1,88.3285,2,-0,0\O,2,3.38078,1,144.767,3,-110.755,0\C,11,1.12313,2,152.833,1,-0,0\O,12,1.21789,11,174.21,2,-180,0\H,13,1.00093,12,117.156,11,-180,0\\\@

 Total job time:  11017.14s(wall), 258381.56s(cpu) 
 Wed Jul 17 09:45:38 2019

        *************************************************************
        *                                                           *
        *  Thank you very much for using Q-Chem.  Have a nice day.  *
        *                                                           *
        *************************************************************


