
Running Job 1 of 1 mol.qin
qchem mol.qin_16992.0 /tmp/qchem862860345/chain_scratch/ 0
/global/project/projectdirs/jcesr/qchem_sblau/qc521_exe/qcprog.LINUX_Ix86_64.20190628.exe mol.qin_16992.0 /tmp/qchem862860345/chain_scratch/
                  Welcome to Q-Chem
     A Quantum Leap Into The Future Of Chemistry


 Q-Chem 5.2, Q-Chem, Inc., Pleasanton, CA (2019)

 License issued to: National Energy Research Scientific Computing Center

 Yihan Shao,  Zhengting Gan,  E. Epifanovsky,  A. T. B. Gilbert,  M. Wormit,  
 J. Kussmann,  A. W. Lange,  A. Behn,  Jia Deng,  Xintian Feng,  D. Ghosh,  
 M. Goldey,  P. R. Horn,  L. D. Jacobson,  I. Kaliman,  T. Kus,  A. Landau,  
 Jie Liu,  E. I. Proynov,  R. M. Richard,  R. P. Steele,  E. J. Sundstrom,  
 H. L. Woodcock III,  P. M. Zimmerman,  D. Zuev,  B. Albrecht,  E. Alguire,  
 S. A. Baeppler,  D. Barton,  Z. Benda,  Y. A. Bernard,  E. J. Berquist,  
 K. B. Bravaya,  H. Burton,  D. Casanova,  Chun-Min Chang,  Yunqing Chen,  
 A. Chien,  K. D. Closser,  M. P. Coons,  S. Coriani,  S. Dasgupta,  
 A. L. Dempwolff,  M. Diedenhofen,  Hainam Do,  R. G. Edgar,  Po-Tung Fang,  
 S. Faraji,  S. Fatehi,  Qingguo Feng,  K. D. Fenk,  J. Fosso-Tande,  
 J. Gayvert,  Qinghui Ge,  A. Ghysels,  G. Gidofalvi,  J. Gomes,  
 J. Gonthier,  A. Gunina,  D. Hait,  M. W. D. Hanson-Heine,  
 P. H. P. Harbach,  A. W. Hauser,  M. F. Herbst,  J. E. Herr,  
 E. G. Hohenstein,  Z. C. Holden,  Kerwin Hui,  B. C. Huynh,  T.-C. Jagau,  
 Hyunjun Ji,  B. Kaduk,  K. Khistyaev,  Jaehoon Kim,  P. Klunzinger,  K. Koh,  
 D. Kosenkov,  L. Koulias,  T. Kowalczyk,  C. M. Krauter,  A. Kunitsa,  
 Ka Un Lao,  A. Laurent,  K. V. Lawler,  Joonho Lee,  D. Lefrancois,  
 S. Lehtola,  D. S. Levine,  Yi-Pei Li,  You-Sheng Lin,  Fenglai Liu,  
 E. Livshits,  A. Luenser,  P. Manohar,  E. Mansoor,  S. F. Manzer,  
 Shan-Ping Mao,  Yuezhi Mao,  N. Mardirossian,  A. V. Marenich,  
 T. Markovich,  L. A. Martinez-Martinez,  S. A. Maurer,  N. J. Mayhall,  
 S. C. McKenzie,  J.-M. Mewes,  P. Morgante,  A. F. Morrison,  
 J. W. Mullinax,  K. Nanda,  T. S. Nguyen-Beck,  R. Olivares-Amaya,  
 J. A. Parkhill,  Zheng Pei,  T. M. Perrine,  F. Plasser,  P. Pokhilko,  
 S. Prager,  A. Prociuk,  E. Ramos,  D. R. Rehn,  F. Rob,  M. Scheurer,  
 M. Schneider,  N. Sergueev,  S. M. Sharada,  S. Sharma,  D. W. Small,  
 T. Stauch,  T. Stein,  Yu-Chuan Su,  A. J. W. Thom,  A. Tkatchenko,  
 T. Tsuchimochi,  N. M. Tubman,  L. Vogt,  M. L. Vidal,  O. Vydrov,  
 M. A. Watson,  J. Wenzel,  M. de Wergifosse,  T. A. Wesolowski,  A. White,  
 J. Witte,  A. Yamada,  Jun Yang,  K. Yao,  S. Yeganeh,  S. R. Yost,  
 Zhi-Qiang You,  A. Zech,  Igor Ying Zhang,  Xing Zhang,  Yan Zhao,  
 Ying Zhu,  B. R. Brooks,  G. K. L. Chan,  C. J. Cramer,  M. S. Gordon,  
 W. J. Hehre,  A. Klamt,  M. W. Schmidt,  C. D. Sherrill,  D. G. Truhlar,  
 A. Aspuru-Guzik,  R. Baer,  A. T. Bell,  N. A. Besley,  Jeng-Da Chai,  
 A. E. DePrince, III,  R. A. DiStasio Jr.,  A. Dreuw,  B. D. Dunietz,  
 T. R. Furlani,  Chao-Ping Hsu,  Yousung Jung,  Jing Kong,  D. S. Lambrecht,  
 WanZhen Liang,  C. Ochsenfeld,  V. A. Rassolov,  L. V. Slipchenko,  
 J. E. Subotnik,  T. Van Voorhis,  J. M. Herbert,  A. I. Krylov,  
 P. M. W. Gill,  M. Head-Gordon

 Contributors to earlier versions of Q-Chem not listed above: 
 R. D. Adamson,  B. Austin,  J. Baker,  G. J. O. Beran,  K. Brandhorst,  
 S. T. Brown,  E. F. C. Byrd,  A. K. Chakraborty,  C.-L. Cheng,  
 Siu Hung Chien,  D. M. Chipman,  D. L. Crittenden,  H. Dachsel,  
 R. J. Doerksen,  A. D. Dutoi,  L. Fusti-Molnar,  W. A. Goddard III,  
 A. Golubeva-Zadorozhnaya,  S. R. Gwaltney,  G. Hawkins,  A. Heyden,  
 S. Hirata,  G. Kedziora,  F. J. Keil,  C. Kelley,  Jihan Kim,  R. A. King,  
 R. Z. Khaliullin,  P. P. Korambath,  W. Kurlancheek,  A. M. Lee,  M. S. Lee,  
 S. V. Levchenko,  Ching Yeh Lin,  D. Liotard,  R. C. Lochan,  I. Lotan,  
 P. E. Maslen,  N. Nair,  D. P. O'Neill,  D. Neuhauser,  E. Neuscamman,  
 C. M. Oana,  R. Olson,  B. Peters,  R. Peverati,  P. A. Pieniazek,  
 Y. M. Rhee,  J. Ritchie,  M. A. Rohrdanz,  E. Rosta,  N. J. Russ,  
 H. F. Schaefer III,  N. E. Schultz,  N. Shenvi,  A. C. Simmonett,  A. Sodt,  
 D. Stuck,  K. S. Thanthiriwatte,  V. Vanovschi,  Tao Wang,  A. Warshel,  
 C. F. Williams,  Q. Wu,  X. Xu,  W. Zhang

 Please cite Q-Chem as follows:
 Y. Shao et al., Mol. Phys. 113, 184-215 (2015)
 DOI: 10.1080/00268976.2014.952696

 Q-Chem 5.2.0 for Intel X86 EM64T Linux

 Parts of Q-Chem use Armadillo 8.300.2 (Tropical Shenanigans).
 http://arma.sourceforge.net/

 Q-Chem begins on Wed Jul 17 10:19:40 2019  

Host: cori09
0

     Scratch files written to /tmp/qchem862860345/chain_scratch//
 Jun2719 |scratch|qcdevops|jenkins|workspace|build_RNUM -1
Processing $rem in /global/common/cori/software/qchem/5.2/config/preferences:
	 MEM_TOTAL  96000 
NAlpha2: 68
NElect   68
Mult     1
Symmetry turned off for PCM/SM12/SMD calculation

Checking the input file for inconsistencies... 	...done.

--------------------------------------------------------------
User input:
--------------------------------------------------------------
$molecule
1 1
O      4.1950273101     -3.1452599080      0.1068380808
C      4.3879990982     -2.0023581909      0.1150265170
O      4.6160114534     -0.8651829983      0.1259158049
O      1.6423327964     -1.2960938573     -0.0588589007
O     -0.8306930824      2.5263581394     -0.1267666672
C     -1.9190699274      2.7710028375      0.0043884721
O     -3.0662768562      3.1520597432      0.1547237560
C      0.3081594866     -0.7845675986     -0.0811767992
C      1.4559952627      0.1199021898     -0.0734453786
H     -3.7822361786      2.4526364528      0.1548662883
H     -0.2307172919     -0.9566557906     -1.0096013456
H     -0.2559943479     -0.9406579754      0.8349820681
H      1.7316382350      0.6266304766      0.8488176499
H      1.7570285674      0.6103610085     -0.9957095484
$end

$rem
job_type = freq
basis = def2-tzvppd
max_scf_cycles = 200
gen_scfman = true
xc_grid = 3
scf_algorithm = diis
resp_charges = true
symmetry = false
sym_ignore = true
method = wb97xv
geom_opt_max_cycles = 100
solvent_method = smd
ideriv = 1
thresh = 14
$end

$smx
solvent other
$end
--------------------------------------------------------------
 ----------------------------------------------------------------
             Standard Nuclear Orientation (Angstroms)
    I     Atom           X                Y                Z
 ----------------------------------------------------------------
    1      O       4.1950273101    -3.1452599080     0.1068380808
    2      C       4.3879990982    -2.0023581909     0.1150265170
    3      O       4.6160114534    -0.8651829983     0.1259158049
    4      O       1.6423327964    -1.2960938573    -0.0588589007
    5      O      -0.8306930824     2.5263581394    -0.1267666672
    6      C      -1.9190699274     2.7710028375     0.0043884721
    7      O      -3.0662768562     3.1520597432     0.1547237560
    8      C       0.3081594866    -0.7845675986    -0.0811767992
    9      C       1.4559952627     0.1199021898    -0.0734453786
   10      H      -3.7822361786     2.4526364528     0.1548662883
   11      H      -0.2307172919    -0.9566557906    -1.0096013456
   12      H      -0.2559943479    -0.9406579754     0.8349820681
   13      H       1.7316382350     0.6266304766     0.8488176499
   14      H       1.7570285674     0.6103610085    -0.9957095484
 ----------------------------------------------------------------
 Nuclear Repulsion Energy =         373.17846874 hartrees
 There are       34 alpha and       34 beta electrons
 Requested basis set is def2-TZVPPD
 There are 157 shells and 433 basis functions

 Total QAlloc Memory Limit  96000 MB
 Mega-Array Size       188 MB
 MEM_STATIC part       192 MB
 
 Citation of the SMD model:
 Marenich, A.V.; Cramer, C.J.; Truhlar, D.G.
 J. Phys. Chem. B 2009, 113, 6378-6396.
 iSolventCode=           0
 Solvent: other                                                           
 
 vradii
            1           2           3           4           5           6
    1   2.2940000   1.8500000   2.2940000   2.2940000   2.2940000   1.8500000
            7           8           9          10          11          12
    1   2.2940000   1.8500000   1.8500000   1.2000000   1.2000000   1.2000000
           13          14
    1   1.2000000   1.2000000
 Changing PCM_VDW_RADII to SMD_RADIUS
 Discretize the solute cavity surface with Lebedev spheres
	Using 110 Lebedev grid points for each H atom
	Using 194 Lebedev grid points for other atoms
	Atomic van der Waals radii will be scaled by 1.20
 Remove points where switching function is < 1.0e-08
 Keep 1145 surface tesserae and discard 1151 interior tesserae
 Molecular Surface Area = 241.431 Angst**2

                       Distance Matrix (Angstroms)
             O (  1)   C (  2)   O (  3)   O (  4)   O (  5)   C (  6)
   C (  2)  1.159107
   O (  3)  2.318694  1.159860
   O (  4)  3.156441  2.840375  3.010414
   O (  5)  7.581536  6.913934  6.421292  4.553198
   C (  6)  8.508516  7.910521  7.479566  5.406373  1.123217
   O (  7)  9.611715  9.062882  8.669292  6.480948  2.338498  1.218150
   C (  8)  4.551479  4.262230  4.313580  1.429047  3.501613  4.196421
   C (  9)  4.265687  3.624384  3.315998  1.428278  3.320063  4.292489
   H ( 10)  9.745537  9.305982  9.029913  6.597318  2.965866  1.896151
   H ( 11)  5.061980  4.867322  4.978810  2.127780  3.642905  4.215940
   H ( 12)  5.020165  4.817906  4.923912  2.128129  3.643548  4.151160
   H ( 13)  4.565739  3.808712  3.326816  2.128079  3.335607  4.317298
   H ( 14)  4.611305  3.870664  3.407207  2.127302  3.335028  4.379757
             O (  7)   C (  8)   C (  9)   H ( 10)   H ( 11)   H ( 12)
   C (  8)  5.190328
   C (  9)  5.449494  1.461387
   H ( 10)  1.000895  5.221738  5.738714
   H ( 11)  5.126168  1.087187  2.209155  5.058907
   H ( 12)  5.011066  1.087189  2.209284  4.940788  1.844826
   H ( 13)  5.466219  2.209675  1.087806  5.849673  3.132308  2.531258
   H ( 14)  5.572074  2.209393  1.087080  5.949896  2.531179  3.131989
             H ( 13)
   H ( 14)  1.844774
 
 A cutoff of  1.0D-14 yielded  10214 shell pairs
 There are     76770 function pairs (     98060 Cartesian)
 Smallest overlap matrix eigenvalue = 5.64E-06
 Guess from superposition of atomic densities
 Warning:  Energy on first SCF cycle will be non-variational
 SAD guess density has 68.075651 electrons

 -----------------------------------------------------------------------
  General SCF calculation program by
  Eric Jon Sundstrom, Paul Horn, Yuezhi Mao, Dmitri Zuev, Alec White,
  David Stuck, Shaama M.S., Shane Yost, Joonho Lee, David Small,
  Daniel Levine, Susi Lehtola, Hugh Burton, Evgeny Epifanovsky,
  Bang C. Huynh
 -----------------------------------------------------------------------
 Exchange:     0.1670 Hartree-Fock + 1.0000 wB97X-V + LR-HF
 Correlation:  1.0000 wB97X-V
 Using SG-3 standard quadrature grid
 Nonlocal Correlation:  VV10 with C = 0.0100 and b = 6.00 and scale = 1.00000
 Grid used for NLC:  SG-1 standard quadrature
 
 Citation of the SMD model:
 Marenich, A.V.; Cramer, C.J.; Truhlar, D.G.
 J. Phys. Chem. B 2009, 113, 6378-6396.
 iSolventCode=           0
 Solvent: other                                                           
 
 vradii
            1           2           3           4           5           6
    1   2.2940000   1.8500000   2.2940000   2.2940000   2.2940000   1.8500000
            7           8           9          10          11          12
    1   2.2940000   1.8500000   1.8500000   1.2000000   1.2000000   1.2000000
           13          14
    1   1.2000000   1.2000000
 using 32 threads for integral computing
 -------------------------------------------------------
 OpenMP Integral computing Module                
 Release: version 1.0, May 2013, Q-Chem Inc. Pittsburgh 
 -------------------------------------------------------
 using 32 threads for integral computing
 -------------------------------------------------------
 OpenMP Integral computing Module                
 Release: version 1.0, May 2013, Q-Chem Inc. Pittsburgh 
 -------------------------------------------------------
 -------------------------------------------------------
 OpenMP BLAS3 based DFT computing Module                
 Release: version 1.0, May 2013, Q-Chem Inc. Pittsburgh 
 -------------------------------------------------------
 -------------------------------------------------------
 OpenMP BLAS3 based DFT computing Module                
 Release: version 1.0, May 2013, Q-Chem Inc. Pittsburgh 
 -------------------------------------------------------
 -------------------------------------------------------
 OpenMP BLAS3 based DFT computing Module                
 Release: version 1.0, May 2013, Q-Chem Inc. Pittsburgh 
 -------------------------------------------------------
 A restricted SCF calculation will be
 performed using DIIS
 SCF converges when DIIS error is below 1.0e-08
 ---------------------------------------
  Cycle       Energy         DIIS error
 ---------------------------------------
    1    -530.3646527820      2.55e-02  
    2    -530.1227219344      9.01e-03  
    3    -530.2812184732      8.31e-03  
    4    -531.3259840290      9.22e-04  
    5    -531.3365550820      4.93e-04  
    6    -531.3401454361      8.22e-05  
    7    -531.3402628456      3.12e-05  
    8    -531.3402791595      1.12e-05  
    9    -531.3402820614      2.54e-06  
   10    -531.3402822906      1.21e-06  
   11    -531.3402823279      3.90e-07  
   12    -531.3402823342      1.52e-07  
   13    -531.3402823351      5.11e-08  
   14    -531.3402823352      3.68e-08  
   15    -531.3402823353      6.01e-09  Convergence criterion met
 ---------------------------------------
 SCF time:   CPU 2906.52s  wall 118.00s 
(3)  G-ENP(liq) elect-nuc-pol free energy of system     -531.340282335 a.u.
(4)  G-CDS(liq) cavity-dispersion-solvent structure 
     free energy                                               -2.3911 kcal/mol
(6)  G-S(liq) free energy of system                     -531.344092750 a.u.
 SCF   energy in the final basis set =     -531.3402823353
 Total energy in the final basis set =     -531.3440927497
 
 --------------------------------------------------------------
 
                    Orbital Energies (a.u.)
 --------------------------------------------------------------
 
 Alpha MOs
 -- Occupied --
-19.4651 -19.4362 -19.2886 -19.2884 -19.2353 -10.6099 -10.4550 -10.3228
-10.3220  -1.4473  -1.4062  -1.2911  -1.2469  -1.2135  -0.9396  -0.8106
 -0.7853  -0.7669  -0.7665  -0.7607  -0.6802  -0.6560  -0.6363  -0.6354
 -0.6337  -0.6318  -0.6242  -0.5954  -0.5092  -0.4900  -0.4759  -0.4751
 -0.4276  -0.3905
 -- Virtual --
 -0.0327  -0.0071   0.0021   0.0447   0.0629   0.0724   0.0794   0.0801
  0.0879   0.0949   0.1048   0.1088   0.1185   0.1199   0.1269   0.1290
  0.1321   0.1358   0.1378   0.1427   0.1526   0.1618   0.1685   0.1728
  0.1805   0.1826   0.1928   0.1999   0.2151   0.2234   0.2285   0.2377
  0.2410   0.2558   0.2563   0.2616   0.2675   0.2730   0.2834   0.2953
  0.3041   0.3064   0.3162   0.3192   0.3208   0.3270   0.3326   0.3388
  0.3436   0.3482   0.3656   0.3671   0.3712   0.3757   0.3820   0.3877
  0.3929   0.3958   0.4005   0.4060   0.4081   0.4124   0.4219   0.4293
  0.4341   0.4379   0.4433   0.4518   0.4602   0.4623   0.4646   0.4809
  0.4882   0.4933   0.4975   0.4992   0.5072   0.5140   0.5313   0.5351
  0.5395   0.5503   0.5521   0.5565   0.5701   0.5738   0.5826   0.5895
  0.5969   0.6001   0.6034   0.6049   0.6229   0.6299   0.6422   0.6599
  0.6728   0.6777   0.6905   0.6984   0.7156   0.7206   0.7293   0.7377
  0.7595   0.7769   0.7816   0.7825   0.7864   0.7902   0.7938   0.8036
  0.8074   0.8130   0.8325   0.8381   0.8666   0.8798   0.8818   0.8939
  0.8976   0.9081   0.9116   0.9273   0.9372   0.9414   0.9585   0.9702
  0.9829   0.9903   0.9916   0.9949   1.0011   1.0125   1.0212   1.0305
  1.0433   1.0680   1.0840   1.0981   1.1180   1.1259   1.1303   1.1479
  1.1721   1.1958   1.2039   1.2087   1.2113   1.2273   1.2366   1.2689
  1.2777   1.2866   1.2874   1.2998   1.3213   1.3395   1.3438   1.3549
  1.3745   1.3841   1.4066   1.4352   1.4505   1.5118   1.5151   1.5593
  1.6327   1.6696   1.6864   1.7019   1.7153   1.7165   1.7313   1.7533
  1.7563   1.7756   1.7870   1.8019   1.8211   1.8304   1.8468   1.8801
  1.8880   1.9010   1.9069   1.9137   1.9195   1.9382   1.9517   1.9774
  1.9837   2.0238   2.0301   2.0652   2.0891   2.0965   2.1048   2.1308
  2.1718   2.2114   2.2216   2.2526   2.3146   2.3445   2.3750   2.3848
  2.4266   2.4628   2.4904   2.5019   2.5115   2.5435   2.5744   2.5773
  2.6373   2.7189   2.7243   2.7472   2.7595   2.7764   2.8016   2.8165
  2.8234   2.8805   2.9191   2.9443   2.9479   2.9671   2.9682   2.9728
  2.9822   2.9909   3.0016   3.0137   3.0292   3.0397   3.0471   3.0511
  3.0662   3.0752   3.1062   3.1243   3.1340   3.1364   3.1553   3.1591
  3.1779   3.1996   3.2049   3.2124   3.2312   3.2908   3.2946   3.3025
  3.3268   3.3411   3.3571   3.3583   3.3906   3.4214   3.4351   3.4603
  3.4838   3.5130   3.5162   3.5283   3.5291   3.5641   3.5839   3.6234
  3.6370   3.6808   3.6921   3.7226   3.7468   3.7642   3.7718   3.7983
  3.8035   3.8154   3.8178   3.8394   3.8753   3.8976   3.9640   4.0000
  4.0394   4.0420   4.0475   4.0626   4.1106   4.1474   4.2016   4.2172
  4.2922   4.3042   4.3283   4.3731   4.3805   4.3870   4.3934   4.4370
  4.4849   4.6403   4.6583   4.7062   4.7349   4.7806   4.7961   4.8120
  4.9610   4.9842   4.9860   5.0632   5.0922   5.1022   5.1169   5.1207
  5.1774   5.1883   5.2020   5.2419   5.2458   5.2524   5.2547   5.2983
  5.3070   5.3244   5.3281   5.3531   5.4180   5.4764   5.5543   5.5810
  5.6215   5.6547   5.6819   5.7132   5.7143   5.7334   5.7745   5.8870
  5.9326   5.9391   5.9739   6.0698   6.0715   6.1560   6.1904   6.2539
  6.2624   6.3281   6.3304   6.4122   6.4157   6.4247   6.4300   6.4519
  6.4840   6.5221   6.5389   6.5437   6.5551   6.5781   6.6005   6.6185
  6.6682   6.7877   6.8589   6.8649   6.8817   6.9598   6.9798   7.0430
  7.0454   7.0529   7.0720   7.0996   7.2122   7.2339   7.2925   7.3237
  7.3347   7.4950   7.5980   7.6560   7.8738   7.8766  23.6677  23.7003
 24.0177  24.3338  44.0681  44.1542  44.3504  44.4053  44.4489
 --------------------------------------------------------------
 
          Ground-State Mulliken Net Atomic Charges

     Atom                 Charge (a.u.)
  ----------------------------------------
      1 O                    -0.303930
      2 C                     0.628451
      3 O                    -0.309849
      4 O                    -0.350178
      5 O                     0.021089
      6 C                     0.705519
      7 O                    -0.106837
      8 C                    -0.052814
      9 C                     0.181585
     10 H                     0.369848
     11 H                     0.060292
     12 H                     0.060747
     13 H                     0.048182
     14 H                     0.047894
  ----------------------------------------
  Sum of atomic charges =     1.000000

  Building new vdw surfaces
         Merz-Kollman RESP Net Atomic Charges

     Atom                 Charge (a.u.)
  ----------------------------------------
      1 O                    -0.391612
      2 C                     0.740097
      3 O                    -0.371711
      4 O                    -0.220546
      5 O                    -0.096457
      6 C                     0.776001
      7 O                    -0.205683
      8 C                    -0.257537
      9 C                    -0.257537
     10 H                     0.522154
     11 H                     0.190708
     12 H                     0.190708
     13 H                     0.190708
     14 H                     0.190708
  ----------------------------------------
  Sum of atomic charges =     1.000000

  Related Dipole Moment =    20.5571 (X -14.9305 Y 14.1283 Z  0.2529)

 -----------------------------------------------------------------
                    Cartesian Multipole Moments
 -----------------------------------------------------------------
    Charge (ESU x 10^10)
                 4.8032
    Dipole Moment (Debye)
         X     -14.9134      Y      14.1552      Z       0.2594
       Tot      20.5632
    Quadrupole Moments (Debye-Ang)
        XX     -11.6102     XY     -27.3451     YY     -23.3019
        XZ      -1.1611     YZ       0.6180     ZZ     -45.9069
    Octopole Moments (Debye-Ang^2)
       XXX    -330.8378    XXY     104.0269    XYY    -163.0768
       YYY     122.0975    XXZ       3.3527    XYZ      -2.7953
       YYZ       0.5045    XZZ     -57.8563    YZZ       2.3438
       ZZZ      -2.2036
    Hexadecapole Moments (Debye-Ang^3)
      XXXX   -1958.3914   XXXY     333.8844   XXYY    -457.4659
      XYYY     591.0588   YYYY   -1143.5688   XXXZ     -33.5165
      XXYZ      10.0795   XYYZ     -10.4151   YYYZ      10.0471
      XXZZ    -402.6009   XYZZ     222.8088   YYZZ    -215.5513
      XZZZ     -12.7077   YZZZ       4.6162   ZZZZ     -55.2128
 -----------------------------------------------------------------
 Calculating analytic gradient of the SCF energy
 Gradient of CDS energy
            1           2           3           4           5           6
    1  -0.0007156   0.0012333  -0.0006597  -0.0000263   0.0000926   0.0006284
    2  -0.0000448  -0.0002415   0.0002248   0.0004281  -0.0001130   0.0002394
    3  -0.0000445   0.0000777  -0.0000420   0.0000131  -0.0000022  -0.0000375
            7           8           9          10          11          12
    1  -0.0003437  -0.0011221   0.0010934  -0.0003180   0.0001407   0.0001473
    2  -0.0006450  -0.0010463   0.0009592   0.0004131   0.0000449   0.0000407
    3  -0.0000308  -0.0000063  -0.0000043   0.0000724   0.0002423  -0.0002391
           13          14
    1  -0.0000716  -0.0000786
    2  -0.0001316  -0.0001281
    3  -0.0002395   0.0002409
 Gradient of SCF Energy
            1           2           3           4           5           6
    1  -0.0057419  -0.0023114   0.0071696   0.0045030   0.1553888  -0.0489966
    2  -0.0323887  -0.0002838   0.0335945  -0.0072412  -0.0268012   0.0021970
    3  -0.0002583  -0.0001218   0.0003176   0.0000620  -0.0179835   0.0043111
            7           8           9          10          11          12
    1  -0.0456801   0.0273917  -0.0126759  -0.0591036  -0.0175947  -0.0189359
    2   0.0671965   0.0194055  -0.0281625  -0.0434708  -0.0085736  -0.0069734
    3   0.0120308   0.0007822  -0.0004759   0.0015076  -0.0334135   0.0329321
           13          14
    1   0.0079636   0.0086234
    2   0.0163210   0.0151805
    3   0.0307309  -0.0304212
 Max gradient component =       1.554E-01
 RMS gradient           =       3.439E-02
 Computing fast CPCM-SWIG gradient
 Updating gradient with PCM contributions...
 -- total gradient after adding PCM contribution --
---------------------------------------------------
  Atom         X              Y              Z     
---------------------------------------------------
   1      -0.000002      -0.000007       0.000047
   2       0.000003      -0.000031      -0.000095
   3      -0.000001       0.000044       0.000047
   4      -0.000001      -0.000018      -0.000071
   5      -0.000038      -0.000014      -0.000007
   6       0.000039       0.000024       0.000035
   7      -0.000031      -0.000009      -0.000020
   8      -0.000030      -0.000012       0.000114
   9      -0.000049      -0.000034      -0.000405
  10      -0.000001      -0.000001      -0.000007
  11       0.000026      -0.000009      -0.000011
  12      -0.000008       0.000006      -0.000031
  13       0.000076       0.000162       0.000297
  14       0.000016      -0.000100       0.000106
---------------------------------------------------
 Number of fixed atoms: 0
 Gradient time:  CPU 508.70 s  wall 26.20 s
 ######################################################
 ######################################################
 # Starting finite difference calculation for IDERIV  #
 Finite diff step size:  1.88973e-03 a.u.
 ----------------------------------------------------------------
             Standard Nuclear Orientation (Angstroms)
    I     Atom           X                Y                Z
 ----------------------------------------------------------------
    1      O       4.1960273101    -3.1452599080     0.1068380808
    2      C       4.3879990982    -2.0023581909     0.1150265170
    3      O       4.6160114534    -0.8651829983     0.1259158049
    4      O       1.6423327964    -1.2960938573    -0.0588589007
    5      O      -0.8306930824     2.5263581394    -0.1267666672
    6      C      -1.9190699274     2.7710028375     0.0043884721
    7      O      -3.0662768562     3.1520597432     0.1547237560
    8      C       0.3081594866    -0.7845675986    -0.0811767992
    9      C       1.4559952627     0.1199021898    -0.0734453786
   10      H      -3.7822361786     2.4526364528     0.1548662883
   11      H      -0.2307172919    -0.9566557906    -1.0096013456
   12      H      -0.2559943479    -0.9406579754     0.8349820681
   13      H       1.7316382350     0.6266304766     0.8488176499
   14      H       1.7570285674     0.6103610085    -0.9957095484
 ----------------------------------------------------------------
 Nuclear Repulsion Energy =         373.17659519 hartrees
 There are       34 alpha and       34 beta electrons
 Discretize the solute cavity surface with Lebedev spheres
	Using 110 Lebedev grid points for each H atom
	Using 194 Lebedev grid points for other atoms
	Atomic van der Waals radii will be scaled by 1.20
 Remove points where switching function is < 1.0e-08
 Keep 1144 surface tesserae and discard 1152 interior tesserae
 Molecular Surface Area = 241.437 Angst**2

                       Distance Matrix (Angstroms)
             O (  1)   C (  2)   O (  3)   O (  4)   O (  5)   C (  6)
   C (  2)  1.158941
   O (  3)  2.318513  1.159860
   O (  4)  3.157250  2.840375  3.010414
   O (  5)  7.582199  6.913934  6.421292  4.553198
   C (  6)  8.509235  7.910521  7.479566  5.406373  1.123217
   O (  7)  9.612471  9.062882  8.669292  6.480948  2.338498  1.218150
   C (  8)  4.552333  4.262230  4.313580  1.429047  3.501613  4.196421
   C (  9)  4.266329  3.624384  3.315998  1.428278  3.320063  4.292489
   H ( 10)  9.746355  9.305982  9.029913  6.597318  2.965866  1.896151
   H ( 11)  5.062854  4.867322  4.978810  2.127780  3.642905  4.215940
   H ( 12)  5.021052  4.817906  4.923912  2.128129  3.643548  4.151160
   H ( 13)  4.566279  3.808712  3.326816  2.128079  3.335607  4.317298
   H ( 14)  4.611834  3.870664  3.407207  2.127302  3.335028  4.379757
             O (  7)   C (  8)   C (  9)   H ( 10)   H ( 11)   H ( 12)
   C (  8)  5.190328
   C (  9)  5.449494  1.461387
   H ( 10)  1.000895  5.221738  5.738714
   H ( 11)  5.126168  1.087187  2.209155  5.058907
   H ( 12)  5.011066  1.087189  2.209284  4.940788  1.844826
   H ( 13)  5.466219  2.209675  1.087806  5.849673  3.132308  2.531258
   H ( 14)  5.572074  2.209393  1.087080  5.949896  2.531179  3.131989
             H ( 13)
   H ( 14)  1.844774
 
 Requested basis set is def2-TZVPPD
 There are 157 shells and 433 basis functions
 A cutoff of  1.0D-14 yielded  10214 shell pairs
 There are     76770 function pairs (     98060 Cartesian)
 Smallest overlap matrix eigenvalue = 5.64E-06
 Guess MOs from SCF MO coefficient file

 -----------------------------------------------------------------------
  General SCF calculation program by
  Eric Jon Sundstrom, Paul Horn, Yuezhi Mao, Dmitri Zuev, Alec White,
  David Stuck, Shaama M.S., Shane Yost, Joonho Lee, David Small,
  Daniel Levine, Susi Lehtola, Hugh Burton, Evgeny Epifanovsky,
  Bang C. Huynh
 -----------------------------------------------------------------------
 Exchange:     0.1670 Hartree-Fock + 1.0000 wB97X-V + LR-HF
 Correlation:  1.0000 wB97X-V
 Using SG-3 standard quadrature grid
 Nonlocal Correlation:  VV10 with C = 0.0100 and b = 6.00 and scale = 1.00000
 Grid used for NLC:  SG-1 standard quadrature
 
 Citation of the SMD model:
 Marenich, A.V.; Cramer, C.J.; Truhlar, D.G.
 J. Phys. Chem. B 2009, 113, 6378-6396.
 iSolventCode=           0
 Solvent: other                                                           
 
 vradii
            1           2           3           4           5           6
    1   2.2940000   1.8500000   2.2940000   2.2940000   2.2940000   1.8500000
            7           8           9          10          11          12
    1   2.2940000   1.8500000   1.8500000   1.2000000   1.2000000   1.2000000
           13          14
    1   1.2000000   1.2000000
 using 32 threads for integral computing
 -------------------------------------------------------
 OpenMP Integral computing Module                
 Release: version 1.0, May 2013, Q-Chem Inc. Pittsburgh 
 -------------------------------------------------------
 using 32 threads for integral computing
 -------------------------------------------------------
 OpenMP Integral computing Module                
 Release: version 1.0, May 2013, Q-Chem Inc. Pittsburgh 
 -------------------------------------------------------
 -------------------------------------------------------
 OpenMP BLAS3 based DFT computing Module                
 Release: version 1.0, May 2013, Q-Chem Inc. Pittsburgh 
 -------------------------------------------------------
 -------------------------------------------------------
 OpenMP BLAS3 based DFT computing Module                
 Release: version 1.0, May 2013, Q-Chem Inc. Pittsburgh 
 -------------------------------------------------------
 -------------------------------------------------------
 OpenMP BLAS3 based DFT computing Module                
 Release: version 1.0, May 2013, Q-Chem Inc. Pittsburgh 
 -------------------------------------------------------
 A restricted SCF calculation will be
 performed using Roothaan-Hall, DIIS
 SCF converges when DIIS error is below 1.0e-08
 ---------------------------------------
  Cycle       Energy         DIIS error
 ---------------------------------------
    1    -539.2803281261      2.91e-04  Roothaan Step
 ---------------------------------------
  Cycle       Energy         DIIS error
 ---------------------------------------
    1    -531.3350680304      4.09e-04  
    2    -531.3363068348      5.08e-04  
    3    -531.3401902833      5.03e-05  
    4    -531.3402544809      3.50e-05  
    5    -531.3402756509      1.50e-05  
    6    -531.3402806483      2.39e-06  
    7    -531.3402808123      1.52e-06  
    8    -531.3402808572      3.16e-07  
    9    -531.3402808607      1.70e-07  
   10    -531.3402808614      6.16e-08  
   11    -531.3402808615      1.94e-08  
   12    -531.3402808615      4.56e-09  Convergence criterion met
 ---------------------------------------
 SCF time:   CPU 2521.19s  wall 101.00s 
(3)  G-ENP(liq) elect-nuc-pol free energy of system     -531.340280861 a.u.
(4)  G-CDS(liq) cavity-dispersion-solvent structure 
     free energy                                               -2.3919 kcal/mol
(6)  G-S(liq) free energy of system                     -531.344092627 a.u.
 SCF   energy in the final basis set =     -531.3402808615
 Total energy in the final basis set =     -531.3440926270
 
 --------------------------------------------------------------
 
                    Orbital Energies (a.u.)
 --------------------------------------------------------------
 
 Alpha MOs
 -- Occupied --
-19.4651 -19.4362 -19.2885 -19.2884 -19.2353 -10.6099 -10.4550 -10.3228
-10.3220  -1.4473  -1.4062  -1.2911  -1.2469  -1.2135  -0.9396  -0.8106
 -0.7853  -0.7669  -0.7665  -0.7607  -0.6802  -0.6560  -0.6363  -0.6354
 -0.6337  -0.6319  -0.6242  -0.5954  -0.5092  -0.4900  -0.4759  -0.4751
 -0.4276  -0.3905
 -- Virtual --
 -0.0327  -0.0071   0.0021   0.0447   0.0629   0.0723   0.0794   0.0801
  0.0879   0.0949   0.1048   0.1088   0.1185   0.1200   0.1269   0.1290
  0.1321   0.1358   0.1378   0.1427   0.1526   0.1618   0.1686   0.1728
  0.1805   0.1826   0.1928   0.1999   0.2151   0.2234   0.2285   0.2377
  0.2410   0.2558   0.2563   0.2616   0.2675   0.2730   0.2834   0.2953
  0.3041   0.3064   0.3162   0.3192   0.3208   0.3270   0.3326   0.3388
  0.3436   0.3482   0.3656   0.3671   0.3712   0.3757   0.3819   0.3877
  0.3929   0.3957   0.4005   0.4060   0.4081   0.4124   0.4219   0.4293
  0.4341   0.4379   0.4433   0.4518   0.4602   0.4623   0.4646   0.4809
  0.4882   0.4933   0.4975   0.4992   0.5072   0.5140   0.5313   0.5351
  0.5395   0.5503   0.5521   0.5566   0.5701   0.5738   0.5827   0.5895
  0.5970   0.6001   0.6034   0.6049   0.6229   0.6299   0.6422   0.6598
  0.6728   0.6777   0.6905   0.6984   0.7156   0.7206   0.7293   0.7377
  0.7595   0.7769   0.7816   0.7825   0.7864   0.7902   0.7938   0.8036
  0.8074   0.8130   0.8325   0.8381   0.8665   0.8798   0.8818   0.8939
  0.8976   0.9081   0.9116   0.9273   0.9372   0.9414   0.9585   0.9702
  0.9829   0.9903   0.9916   0.9949   1.0011   1.0124   1.0212   1.0304
  1.0433   1.0680   1.0841   1.0982   1.1180   1.1259   1.1303   1.1479
  1.1721   1.1958   1.2039   1.2087   1.2113   1.2273   1.2366   1.2690
  1.2778   1.2867   1.2874   1.2998   1.3213   1.3395   1.3438   1.3549
  1.3745   1.3841   1.4066   1.4352   1.4504   1.5118   1.5151   1.5593
  1.6327   1.6696   1.6864   1.7019   1.7152   1.7164   1.7313   1.7533
  1.7563   1.7756   1.7870   1.8018   1.8211   1.8304   1.8468   1.8801
  1.8880   1.9010   1.9068   1.9137   1.9195   1.9382   1.9517   1.9774
  1.9837   2.0238   2.0302   2.0652   2.0891   2.0965   2.1048   2.1308
  2.1717   2.2114   2.2216   2.2526   2.3145   2.3445   2.3750   2.3848
  2.4265   2.4628   2.4905   2.5018   2.5115   2.5435   2.5744   2.5773
  2.6374   2.7189   2.7243   2.7472   2.7595   2.7764   2.8016   2.8165
  2.8234   2.8805   2.9191   2.9443   2.9479   2.9671   2.9682   2.9728
  2.9822   2.9909   3.0016   3.0137   3.0292   3.0398   3.0472   3.0513
  3.0663   3.0752   3.1063   3.1243   3.1340   3.1364   3.1552   3.1591
  3.1779   3.1996   3.2049   3.2125   3.2311   3.2908   3.2946   3.3025
  3.3268   3.3411   3.3571   3.3583   3.3906   3.4214   3.4352   3.4603
  3.4838   3.5130   3.5162   3.5284   3.5291   3.5641   3.5840   3.6233
  3.6370   3.6808   3.6921   3.7226   3.7468   3.7643   3.7718   3.7984
  3.8035   3.8154   3.8178   3.8395   3.8753   3.8976   3.9640   4.0000
  4.0394   4.0420   4.0476   4.0626   4.1105   4.1474   4.2016   4.2172
  4.2922   4.3042   4.3283   4.3731   4.3805   4.3870   4.3934   4.4370
  4.4849   4.6403   4.6583   4.7062   4.7349   4.7806   4.7961   4.8120
  4.9610   4.9842   4.9864   5.0632   5.0922   5.1022   5.1169   5.1207
  5.1774   5.1882   5.2020   5.2419   5.2459   5.2524   5.2547   5.2982
  5.3070   5.3245   5.3282   5.3528   5.4180   5.4764   5.5543   5.5810
  5.6215   5.6547   5.6819   5.7132   5.7143   5.7334   5.7745   5.8870
  5.9328   5.9392   5.9739   6.0698   6.0715   6.1563   6.1904   6.2543
  6.2630   6.3281   6.3303   6.4122   6.4157   6.4247   6.4300   6.4519
  6.4840   6.5221   6.5390   6.5437   6.5552   6.5781   6.6004   6.6185
  6.6683   6.7877   6.8589   6.8649   6.8817   6.9597   6.9798   7.0429
  7.0453   7.0529   7.0720   7.0997   7.2123   7.2341   7.2925   7.3237
  7.3347   7.4950   7.5983   7.6560   7.8738   7.8770  23.6677  23.7003
 24.0177  24.3345  44.0681  44.1544  44.3504  44.4053  44.4490
 --------------------------------------------------------------
 
          Ground-State Mulliken Net Atomic Charges

     Atom                 Charge (a.u.)
  ----------------------------------------
      1 O                    -0.303677
      2 C                     0.628214
      3 O                    -0.309874
      4 O                    -0.350238
      5 O                     0.021089
      6 C                     0.705520
      7 O                    -0.106837
      8 C                    -0.052767
      9 C                     0.181638
     10 H                     0.369848
     11 H                     0.060292
     12 H                     0.060751
     13 H                     0.048164
     14 H                     0.047877
  ----------------------------------------
  Sum of atomic charges =     1.000000

  Building new vdw surfaces
         Merz-Kollman RESP Net Atomic Charges

     Atom                 Charge (a.u.)
  ----------------------------------------
      1 O                    -0.391360
      2 C                     0.739915
      3 O                    -0.371638
      4 O                    -0.221583
      5 O                    -0.096704
      6 C                     0.776023
      7 O                    -0.205539
      8 C                    -0.256403
      9 C                    -0.256403
     10 H                     0.522077
     11 H                     0.190404
     12 H                     0.190404
     13 H                     0.190404
     14 H                     0.190404
  ----------------------------------------
  Sum of atomic charges =     1.000000

  Related Dipole Moment =    20.5585 (X -14.9324 Y 14.1283 Z  0.2531)

 -----------------------------------------------------------------
                    Cartesian Multipole Moments
 -----------------------------------------------------------------
    Charge (ESU x 10^10)
                 4.8032
    Dipole Moment (Debye)
         X     -14.9152      Y      14.1545      Z       0.2594
       Tot      20.5640
    Quadrupole Moments (Debye-Ang)
        XX     -11.6239     XY     -27.3435     YY     -23.2990
        XZ      -1.1613     YZ       0.6179     ZZ     -45.9064
    Octopole Moments (Debye-Ang^2)
       XXX    -330.9359    XXY     104.0520    XYY    -163.0831
       YYY     122.0866    XXZ       3.3512    XYZ      -2.7952
       YYZ       0.5049    XZZ     -57.8598    YZZ       2.3421
       ZZZ      -2.2035
    Hexadecapole Moments (Debye-Ang^3)
      XXXX   -1959.0991   XXXY     334.1137   XXYY    -457.5670
      XYYY     591.0992   YYYY   -1143.5260   XXXZ     -33.5274
      XXYZ      10.0820   XYYZ     -10.4155   YYYZ      10.0457
      XXZZ    -402.6379   XYZZ     222.8185   YYZZ    -215.5456
      XZZZ     -12.7088   YZZZ       4.6156   ZZZZ     -55.2117
 -----------------------------------------------------------------
 Calculating analytic gradient of the SCF energy
 Gradient of CDS energy
            1           2           3           4           5           6
    1  -0.0007144   0.0012324  -0.0006597  -0.0000266   0.0000926   0.0006284
    2  -0.0000450  -0.0002418   0.0002248   0.0004287  -0.0001130   0.0002394
    3  -0.0000445   0.0000776  -0.0000420   0.0000130  -0.0000022  -0.0000375
            7           8           9          10          11          12
    1  -0.0003437  -0.0011221   0.0010934  -0.0003180   0.0001407   0.0001473
    2  -0.0006450  -0.0010463   0.0009592   0.0004131   0.0000449   0.0000407
    3  -0.0000308  -0.0000063  -0.0000043   0.0000724   0.0002423  -0.0002391
           13          14
    1  -0.0000716  -0.0000786
    2  -0.0001316  -0.0001281
    3  -0.0002395   0.0002409
 Gradient of SCF Energy
            1           2           3           4           5           6
    1  -0.0055642  -0.0025577   0.0072434   0.0044985   0.1553900  -0.0489967
    2  -0.0320618  -0.0005519   0.0335298  -0.0072353  -0.0268014   0.0021968
    3  -0.0002553  -0.0001237   0.0003170   0.0000619  -0.0179836   0.0043112
            7           8           9          10          11          12
    1  -0.0456807   0.0273940  -0.0126772  -0.0591040  -0.0175958  -0.0189368
    2   0.0671970   0.0194048  -0.0281636  -0.0434711  -0.0085737  -0.0069736
    3   0.0120309   0.0007823  -0.0004763   0.0015076  -0.0334153   0.0329337
           13          14
    1   0.0079636   0.0086235
    2   0.0163222   0.0151816
    3   0.0307315  -0.0304217
 Max gradient component =       1.554E-01
 RMS gradient           =       3.438E-02
 Computing fast CPCM-SWIG gradient
 Updating gradient with PCM contributions...
 -- total gradient after adding PCM contribution --
---------------------------------------------------
  Atom         X              Y              Z     
---------------------------------------------------
   1       0.000131       0.000317       0.000050
   2      -0.000186      -0.000312      -0.000096
   3       0.000059      -0.000004       0.000047
   4      -0.000005      -0.000014      -0.000071
   5      -0.000038      -0.000013      -0.000007
   6       0.000039       0.000024       0.000035
   7      -0.000031      -0.000009      -0.000020
   8      -0.000029      -0.000011       0.000114
   9      -0.000050      -0.000035      -0.000405
  10      -0.000001      -0.000001      -0.000007
  11       0.000026      -0.000009      -0.000011
  12      -0.000009       0.000006      -0.000031
  13       0.000076       0.000162       0.000297
  14       0.000016      -0.000100       0.000106
---------------------------------------------------
 Number of fixed atoms: 0
 Gradient time:  CPU 511.53 s  wall 25.64 s
 ----------------------------------------------------------------
             Standard Nuclear Orientation (Angstroms)
    I     Atom           X                Y                Z
 ----------------------------------------------------------------
    1      O       4.1940273101    -3.1452599080     0.1068380808
    2      C       4.3879990982    -2.0023581909     0.1150265170
    3      O       4.6160114534    -0.8651829983     0.1259158049
    4      O       1.6423327964    -1.2960938573    -0.0588589007
    5      O      -0.8306930824     2.5263581394    -0.1267666672
    6      C      -1.9190699274     2.7710028375     0.0043884721
    7      O      -3.0662768562     3.1520597432     0.1547237560
    8      C       0.3081594866    -0.7845675986    -0.0811767992
    9      C       1.4559952627     0.1199021898    -0.0734453786
   10      H      -3.7822361786     2.4526364528     0.1548662883
   11      H      -0.2307172919    -0.9566557906    -1.0096013456
   12      H      -0.2559943479    -0.9406579754     0.8349820681
   13      H       1.7316382350     0.6266304766     0.8488176499
   14      H       1.7570285674     0.6103610085    -0.9957095484
 ----------------------------------------------------------------
 Nuclear Repulsion Energy =         373.18032648 hartrees
 There are       34 alpha and       34 beta electrons
 Discretize the solute cavity surface with Lebedev spheres
	Using 110 Lebedev grid points for each H atom
	Using 194 Lebedev grid points for other atoms
	Atomic van der Waals radii will be scaled by 1.20
 Remove points where switching function is < 1.0e-08
 Keep 1145 surface tesserae and discard 1151 interior tesserae
 Molecular Surface Area = 241.426 Angst**2

                       Distance Matrix (Angstroms)
             O (  1)   C (  2)   O (  3)   O (  4)   O (  5)   C (  6)
   C (  2)  1.159274
   O (  3)  2.318876  1.159860
   O (  4)  3.155632  2.840375  3.010414
   O (  5)  7.580873  6.913934  6.421292  4.553198
   C (  6)  8.507798  7.910521  7.479566  5.406373  1.123217
   O (  7)  9.610960  9.062882  8.669292  6.480948  2.338498  1.218150
   C (  8)  4.550625  4.262230  4.313580  1.429047  3.501613  4.196421
   C (  9)  4.265045  3.624384  3.315998  1.428278  3.320063  4.292489
   H ( 10)  9.744718  9.305982  9.029913  6.597318  2.965866  1.896151
   H ( 11)  5.061106  4.867322  4.978810  2.127780  3.642905  4.215940
   H ( 12)  5.019278  4.817906  4.923912  2.128129  3.643548  4.151160
   H ( 13)  4.565200  3.808712  3.326816  2.128079  3.335607  4.317298
   H ( 14)  4.610777  3.870664  3.407207  2.127302  3.335028  4.379757
             O (  7)   C (  8)   C (  9)   H ( 10)   H ( 11)   H ( 12)
   C (  8)  5.190328
   C (  9)  5.449494  1.461387
   H ( 10)  1.000895  5.221738  5.738714
   H ( 11)  5.126168  1.087187  2.209155  5.058907
   H ( 12)  5.011066  1.087189  2.209284  4.940788  1.844826
   H ( 13)  5.466219  2.209675  1.087806  5.849673  3.132308  2.531258
   H ( 14)  5.572074  2.209393  1.087080  5.949896  2.531179  3.131989
             H ( 13)
   H ( 14)  1.844774
 
 Requested basis set is def2-TZVPPD
 There are 157 shells and 433 basis functions
 A cutoff of  1.0D-14 yielded  10214 shell pairs
 There are     76770 function pairs (     98060 Cartesian)
 Smallest overlap matrix eigenvalue = 5.64E-06
 Guess MOs from SCF MO coefficient file

 -----------------------------------------------------------------------
  General SCF calculation program by
  Eric Jon Sundstrom, Paul Horn, Yuezhi Mao, Dmitri Zuev, Alec White,
  David Stuck, Shaama M.S., Shane Yost, Joonho Lee, David Small,
  Daniel Levine, Susi Lehtola, Hugh Burton, Evgeny Epifanovsky,
  Bang C. Huynh
 -----------------------------------------------------------------------
 Exchange:     0.1670 Hartree-Fock + 1.0000 wB97X-V + LR-HF
 Correlation:  1.0000 wB97X-V
 Using SG-3 standard quadrature grid
 Nonlocal Correlation:  VV10 with C = 0.0100 and b = 6.00 and scale = 1.00000
 Grid used for NLC:  SG-1 standard quadrature
 
 Citation of the SMD model:
 Marenich, A.V.; Cramer, C.J.; Truhlar, D.G.
 J. Phys. Chem. B 2009, 113, 6378-6396.
 iSolventCode=           0
 Solvent: other                                                           
 
 vradii
            1           2           3           4           5           6
    1   2.2940000   1.8500000   2.2940000   2.2940000   2.2940000   1.8500000
            7           8           9          10          11          12
    1   2.2940000   1.8500000   1.8500000   1.2000000   1.2000000   1.2000000
           13          14
    1   1.2000000   1.2000000
 using 32 threads for integral computing
 -------------------------------------------------------
 OpenMP Integral computing Module                
 Release: version 1.0, May 2013, Q-Chem Inc. Pittsburgh 
 -------------------------------------------------------
 using 32 threads for integral computing
 -------------------------------------------------------
 OpenMP Integral computing Module                
 Release: version 1.0, May 2013, Q-Chem Inc. Pittsburgh 
 -------------------------------------------------------
 -------------------------------------------------------
 OpenMP BLAS3 based DFT computing Module                
 Release: version 1.0, May 2013, Q-Chem Inc. Pittsburgh 
 -------------------------------------------------------
 -------------------------------------------------------
 OpenMP BLAS3 based DFT computing Module                
 Release: version 1.0, May 2013, Q-Chem Inc. Pittsburgh 
 -------------------------------------------------------
 -------------------------------------------------------
 OpenMP BLAS3 based DFT computing Module                
 Release: version 1.0, May 2013, Q-Chem Inc. Pittsburgh 
 -------------------------------------------------------
 A restricted SCF calculation will be
 performed using Roothaan-Hall, DIIS
 SCF converges when DIIS error is below 1.0e-08
 ---------------------------------------
  Cycle       Energy         DIIS error
 ---------------------------------------
    1    -539.2803460418      2.91e-04  Roothaan Step
 ---------------------------------------
  Cycle       Energy         DIIS error
 ---------------------------------------
    1    -531.3350669734      4.10e-04  
    2    -531.3363013694      5.09e-04  
    3    -531.3401929142      5.03e-05  
    4    -531.3402571200      3.50e-05  
    5    -531.3402783479      1.49e-05  
    6    -531.3402833457      2.39e-06  
    7    -531.3402835096      1.53e-06  
    8    -531.3402835547      3.17e-07  
    9    -531.3402835571      1.72e-07  
   10    -531.3402835578      6.13e-08  
   11    -531.3402835579      1.94e-08  
   12    -531.3402835579      4.55e-09  Convergence criterion met
 ---------------------------------------
 SCF time:   CPU 2548.49s  wall 103.00s 
(3)  G-ENP(liq) elect-nuc-pol free energy of system     -531.340283558 a.u.
(4)  G-CDS(liq) cavity-dispersion-solvent structure 
     free energy                                               -2.3902 kcal/mol
(6)  G-S(liq) free energy of system                     -531.344092619 a.u.
 SCF   energy in the final basis set =     -531.3402835579
 Total energy in the final basis set =     -531.3440926190
 
 --------------------------------------------------------------
 
                    Orbital Energies (a.u.)
 --------------------------------------------------------------
 
 Alpha MOs
 -- Occupied --
-19.4651 -19.4362 -19.2886 -19.2884 -19.2353 -10.6099 -10.4550 -10.3228
-10.3220  -1.4473  -1.4062  -1.2910  -1.2468  -1.2135  -0.9396  -0.8106
 -0.7853  -0.7669  -0.7665  -0.7607  -0.6802  -0.6560  -0.6362  -0.6354
 -0.6336  -0.6318  -0.6242  -0.5954  -0.5092  -0.4900  -0.4759  -0.4751
 -0.4276  -0.3905
 -- Virtual --
 -0.0327  -0.0071   0.0021   0.0447   0.0629   0.0724   0.0794   0.0801
  0.0879   0.0949   0.1048   0.1088   0.1185   0.1199   0.1269   0.1290
  0.1320   0.1357   0.1378   0.1427   0.1526   0.1618   0.1685   0.1728
  0.1805   0.1826   0.1928   0.2000   0.2151   0.2234   0.2285   0.2377
  0.2410   0.2558   0.2563   0.2616   0.2675   0.2730   0.2834   0.2953
  0.3041   0.3064   0.3162   0.3192   0.3208   0.3271   0.3326   0.3388
  0.3436   0.3482   0.3656   0.3671   0.3712   0.3757   0.3820   0.3877
  0.3929   0.3958   0.4005   0.4060   0.4081   0.4124   0.4219   0.4293
  0.4341   0.4379   0.4433   0.4518   0.4602   0.4623   0.4646   0.4809
  0.4882   0.4933   0.4975   0.4992   0.5071   0.5140   0.5313   0.5351
  0.5395   0.5503   0.5521   0.5565   0.5701   0.5738   0.5826   0.5895
  0.5969   0.6001   0.6034   0.6049   0.6229   0.6298   0.6422   0.6599
  0.6728   0.6777   0.6905   0.6984   0.7156   0.7206   0.7293   0.7377
  0.7595   0.7770   0.7816   0.7825   0.7864   0.7902   0.7939   0.8036
  0.8074   0.8130   0.8325   0.8381   0.8666   0.8798   0.8818   0.8939
  0.8976   0.9081   0.9115   0.9273   0.9372   0.9414   0.9585   0.9702
  0.9829   0.9903   0.9916   0.9949   1.0012   1.0125   1.0212   1.0305
  1.0433   1.0680   1.0840   1.0981   1.1180   1.1260   1.1303   1.1479
  1.1721   1.1958   1.2039   1.2087   1.2113   1.2274   1.2366   1.2688
  1.2777   1.2865   1.2874   1.2997   1.3213   1.3395   1.3438   1.3550
  1.3745   1.3841   1.4066   1.4352   1.4506   1.5118   1.5151   1.5593
  1.6327   1.6697   1.6864   1.7019   1.7153   1.7165   1.7312   1.7533
  1.7563   1.7756   1.7870   1.8019   1.8211   1.8303   1.8467   1.8801
  1.8880   1.9010   1.9070   1.9137   1.9195   1.9381   1.9517   1.9774
  1.9836   2.0238   2.0300   2.0652   2.0891   2.0964   2.1048   2.1309
  2.1719   2.2114   2.2216   2.2526   2.3146   2.3445   2.3750   2.3848
  2.4266   2.4628   2.4903   2.5019   2.5115   2.5436   2.5744   2.5773
  2.6371   2.7189   2.7243   2.7472   2.7596   2.7764   2.8016   2.8165
  2.8234   2.8805   2.9191   2.9443   2.9479   2.9671   2.9682   2.9728
  2.9822   2.9909   3.0016   3.0137   3.0293   3.0396   3.0471   3.0508
  3.0661   3.0751   3.1062   3.1243   3.1340   3.1364   3.1553   3.1591
  3.1779   3.1996   3.2049   3.2124   3.2312   3.2908   3.2946   3.3025
  3.3268   3.3411   3.3571   3.3583   3.3906   3.4214   3.4350   3.4603
  3.4838   3.5130   3.5162   3.5281   3.5291   3.5641   3.5839   3.6234
  3.6370   3.6808   3.6921   3.7226   3.7468   3.7640   3.7718   3.7983
  3.8035   3.8153   3.8178   3.8394   3.8753   3.8976   3.9640   3.9999
  4.0394   4.0420   4.0475   4.0626   4.1106   4.1474   4.2016   4.2172
  4.2922   4.3042   4.3283   4.3731   4.3805   4.3870   4.3935   4.4370
  4.4849   4.6403   4.6583   4.7062   4.7349   4.7806   4.7961   4.8120
  4.9610   4.9842   4.9856   5.0632   5.0922   5.1022   5.1169   5.1207
  5.1774   5.1883   5.2020   5.2419   5.2458   5.2524   5.2547   5.2983
  5.3070   5.3243   5.3280   5.3535   5.4181   5.4764   5.5543   5.5811
  5.6215   5.6547   5.6819   5.7132   5.7143   5.7334   5.7745   5.8870
  5.9325   5.9389   5.9739   6.0698   6.0715   6.1556   6.1904   6.2535
  6.2618   6.3281   6.3304   6.4122   6.4157   6.4247   6.4300   6.4519
  6.4840   6.5221   6.5389   6.5437   6.5551   6.5781   6.6006   6.6185
  6.6682   6.7877   6.8589   6.8649   6.8817   6.9599   6.9798   7.0431
  7.0456   7.0529   7.0719   7.0995   7.2120   7.2337   7.2925   7.3237
  7.3347   7.4950   7.5978   7.6559   7.8738   7.8763  23.6677  23.7003
 24.0177  24.3330  44.0681  44.1540  44.3504  44.4053  44.4489
 --------------------------------------------------------------
 
          Ground-State Mulliken Net Atomic Charges

     Atom                 Charge (a.u.)
  ----------------------------------------
      1 O                    -0.304184
      2 C                     0.628689
      3 O                    -0.309823
      4 O                    -0.350119
      5 O                     0.021089
      6 C                     0.705519
      7 O                    -0.106837
      8 C                    -0.052858
      9 C                     0.181532
     10 H                     0.369848
     11 H                     0.060292
     12 H                     0.060743
     13 H                     0.048199
     14 H                     0.047911
  ----------------------------------------
  Sum of atomic charges =     1.000000

  Building new vdw surfaces
         Merz-Kollman RESP Net Atomic Charges

     Atom                 Charge (a.u.)
  ----------------------------------------
      1 O                    -0.391657
      2 C                     0.739995
      3 O                    -0.371596
      4 O                    -0.220419
      5 O                    -0.096435
      6 C                     0.775989
      7 O                    -0.205686
      8 C                    -0.257631
      9 C                    -0.257631
     10 H                     0.522157
     11 H                     0.190728
     12 H                     0.190728
     13 H                     0.190728
     14 H                     0.190728
  ----------------------------------------
  Sum of atomic charges =     1.000000

  Related Dipole Moment =    20.5562 (X -14.9286 Y 14.1290 Z  0.2529)

 -----------------------------------------------------------------
                    Cartesian Multipole Moments
 -----------------------------------------------------------------
    Charge (ESU x 10^10)
                 4.8032
    Dipole Moment (Debye)
         X     -14.9116      Y      14.1559      Z       0.2594
       Tot      20.5624
    Quadrupole Moments (Debye-Ang)
        XX     -11.5966     XY     -27.3467     YY     -23.3049
        XZ      -1.1609     YZ       0.6181     ZZ     -45.9075
    Octopole Moments (Debye-Ang^2)
       XXX    -330.7397    XXY     104.0019    XYY    -163.0706
       YYY     122.1086    XXZ       3.3543    XYZ      -2.7954
       YYZ       0.5041    XZZ     -57.8528    YZZ       2.3456
       ZZZ      -2.2037
    Hexadecapole Moments (Debye-Ang^3)
      XXXX   -1957.6840   XXXY     333.6555   XXYY    -457.3652
      XYYY     591.0189   YYYY   -1143.6119   XXXZ     -33.5057
      XXYZ      10.0771   XYYZ     -10.4148   YYYZ      10.0486
      XXZZ    -402.5639   XYZZ     222.7992   YYZZ    -215.5570
      XZZZ     -12.7065   YZZZ       4.6168   ZZZZ     -55.2138
 -----------------------------------------------------------------
 Calculating analytic gradient of the SCF energy
 Gradient of CDS energy
            1           2           3           4           5           6
    1  -0.0007167   0.0012341  -0.0006597  -0.0000260   0.0000926   0.0006284
    2  -0.0000445  -0.0002412   0.0002248   0.0004276  -0.0001130   0.0002394
    3  -0.0000446   0.0000777  -0.0000420   0.0000131  -0.0000022  -0.0000375
            7           8           9          10          11          12
    1  -0.0003437  -0.0011221   0.0010934  -0.0003180   0.0001407   0.0001473
    2  -0.0006450  -0.0010463   0.0009592   0.0004131   0.0000449   0.0000407
    3  -0.0000308  -0.0000063  -0.0000043   0.0000724   0.0002423  -0.0002391
           13          14
    1  -0.0000716  -0.0000786
    2  -0.0001316  -0.0001281
    3  -0.0002395   0.0002409
 Gradient of SCF Energy
            1           2           3           4           5           6
    1  -0.0059204  -0.0020645   0.0070959   0.0045075   0.1553875  -0.0489961
    2  -0.0327166  -0.0000149   0.0336594  -0.0072472  -0.0268009   0.0021972
    3  -0.0002612  -0.0001200   0.0003182   0.0000620  -0.0179833   0.0043111
            7           8           9          10          11          12
    1  -0.0456797   0.0273893  -0.0126746  -0.0591033  -0.0175937  -0.0189349
    2   0.0671961   0.0194063  -0.0281613  -0.0434704  -0.0085734  -0.0069731
    3   0.0120307   0.0007822  -0.0004756   0.0015076  -0.0334117   0.0329304
           13          14
    1   0.0079637   0.0086232
    2   0.0163197   0.0151793
    3   0.0307302  -0.0304206
 Max gradient component =       1.554E-01
 RMS gradient           =       3.439E-02
 Computing fast CPCM-SWIG gradient
 Updating gradient with PCM contributions...
 -- total gradient after adding PCM contribution --
---------------------------------------------------
  Atom         X              Y              Z     
---------------------------------------------------
   1      -0.000136      -0.000332       0.000044
   2       0.000192       0.000251      -0.000093
   3      -0.000061       0.000093       0.000048
   4       0.000004      -0.000022      -0.000070
   5      -0.000038      -0.000013      -0.000007
   6       0.000039       0.000024       0.000035
   7      -0.000031      -0.000009      -0.000020
   8      -0.000031      -0.000012       0.000114
   9      -0.000048      -0.000034      -0.000405
  10      -0.000001      -0.000001      -0.000007
  11       0.000026      -0.000010      -0.000011
  12      -0.000008       0.000006      -0.000031
  13       0.000076       0.000162       0.000297
  14       0.000016      -0.000101       0.000106
---------------------------------------------------
 Number of fixed atoms: 0
 Gradient time:  CPU 522.52 s  wall 26.31 s
 ----------------------------------------------------------------
             Standard Nuclear Orientation (Angstroms)
    I     Atom           X                Y                Z
 ----------------------------------------------------------------
    1      O       4.1950273101    -3.1442599080     0.1068380808
    2      C       4.3879990982    -2.0023581909     0.1150265170
    3      O       4.6160114534    -0.8651829983     0.1259158049
    4      O       1.6423327964    -1.2960938573    -0.0588589007
    5      O      -0.8306930824     2.5263581394    -0.1267666672
    6      C      -1.9190699274     2.7710028375     0.0043884721
    7      O      -3.0662768562     3.1520597432     0.1547237560
    8      C       0.3081594866    -0.7845675986    -0.0811767992
    9      C       1.4559952627     0.1199021898    -0.0734453786
   10      H      -3.7822361786     2.4526364528     0.1548662883
   11      H      -0.2307172919    -0.9566557906    -1.0096013456
   12      H      -0.2559943479    -0.9406579754     0.8349820681
   13      H       1.7316382350     0.6266304766     0.8488176499
   14      H       1.7570285674     0.6103610085    -0.9957095484
 ----------------------------------------------------------------
 Nuclear Repulsion Energy =         373.20844458 hartrees
 There are       34 alpha and       34 beta electrons
 Discretize the solute cavity surface with Lebedev spheres
	Using 110 Lebedev grid points for each H atom
	Using 194 Lebedev grid points for other atoms
	Atomic van der Waals radii will be scaled by 1.20
 Remove points where switching function is < 1.0e-08
 Keep 1145 surface tesserae and discard 1151 interior tesserae
 Molecular Surface Area = 241.417 Angst**2

                       Distance Matrix (Angstroms)
             O (  1)   C (  2)   O (  3)   O (  4)   O (  5)   C (  6)
   C (  2)  1.158121
   O (  3)  2.317711  1.159860
   O (  4)  3.155855  2.840375  3.010414
   O (  5)  7.580788  6.913934  6.421292  4.553198
   C (  6)  8.507821  7.910521  7.479566  5.406373  1.123217
   O (  7)  9.611060  9.062882  8.669292  6.480948  2.338498  1.218150
   C (  8)  4.550960  4.262230  4.313580  1.429047  3.501613  4.196421
   C (  9)  4.264921  3.624384  3.315998  1.428278  3.320063  4.292489
   H ( 10)  9.744962  9.305982  9.029913  6.597318  2.965866  1.896151
   H ( 11)  5.061548  4.867322  4.978810  2.127780  3.642905  4.215940
   H ( 12)  5.019726  4.817906  4.923912  2.128129  3.643548  4.151160
   H ( 13)  4.564913  3.808712  3.326816  2.128079  3.335607  4.317298
   H ( 14)  4.610491  3.870664  3.407207  2.127302  3.335028  4.379757
             O (  7)   C (  8)   C (  9)   H ( 10)   H ( 11)   H ( 12)
   C (  8)  5.190328
   C (  9)  5.449494  1.461387
   H ( 10)  1.000895  5.221738  5.738714
   H ( 11)  5.126168  1.087187  2.209155  5.058907
   H ( 12)  5.011066  1.087189  2.209284  4.940788  1.844826
   H ( 13)  5.466219  2.209675  1.087806  5.849673  3.132308  2.531258
   H ( 14)  5.572074  2.209393  1.087080  5.949896  2.531179  3.131989
             H ( 13)
   H ( 14)  1.844774
 
 Requested basis set is def2-TZVPPD
 There are 157 shells and 433 basis functions
 A cutoff of  1.0D-14 yielded  10214 shell pairs
 There are     76770 function pairs (     98060 Cartesian)
 Smallest overlap matrix eigenvalue = 5.64E-06
 Guess MOs from SCF MO coefficient file

 -----------------------------------------------------------------------
  General SCF calculation program by
  Eric Jon Sundstrom, Paul Horn, Yuezhi Mao, Dmitri Zuev, Alec White,
  David Stuck, Shaama M.S., Shane Yost, Joonho Lee, David Small,
  Daniel Levine, Susi Lehtola, Hugh Burton, Evgeny Epifanovsky,
  Bang C. Huynh
 -----------------------------------------------------------------------
 Exchange:     0.1670 Hartree-Fock + 1.0000 wB97X-V + LR-HF
 Correlation:  1.0000 wB97X-V
 Using SG-3 standard quadrature grid
 Nonlocal Correlation:  VV10 with C = 0.0100 and b = 6.00 and scale = 1.00000
 Grid used for NLC:  SG-1 standard quadrature
 
 Citation of the SMD model:
 Marenich, A.V.; Cramer, C.J.; Truhlar, D.G.
 J. Phys. Chem. B 2009, 113, 6378-6396.
 iSolventCode=           0
 Solvent: other                                                           
 
 vradii
            1           2           3           4           5           6
    1   2.2940000   1.8500000   2.2940000   2.2940000   2.2940000   1.8500000
            7           8           9          10          11          12
    1   2.2940000   1.8500000   1.8500000   1.2000000   1.2000000   1.2000000
           13          14
    1   1.2000000   1.2000000
 using 32 threads for integral computing
 -------------------------------------------------------
 OpenMP Integral computing Module                
 Release: version 1.0, May 2013, Q-Chem Inc. Pittsburgh 
 -------------------------------------------------------
 using 32 threads for integral computing
 -------------------------------------------------------
 OpenMP Integral computing Module                
 Release: version 1.0, May 2013, Q-Chem Inc. Pittsburgh 
 -------------------------------------------------------
 -------------------------------------------------------
 OpenMP BLAS3 based DFT computing Module                
 Release: version 1.0, May 2013, Q-Chem Inc. Pittsburgh 
 -------------------------------------------------------
 -------------------------------------------------------
 OpenMP BLAS3 based DFT computing Module                
 Release: version 1.0, May 2013, Q-Chem Inc. Pittsburgh 
 -------------------------------------------------------
 -------------------------------------------------------
 OpenMP BLAS3 based DFT computing Module                
 Release: version 1.0, May 2013, Q-Chem Inc. Pittsburgh 
 -------------------------------------------------------
 A restricted SCF calculation will be
 performed using Roothaan-Hall, DIIS
 SCF converges when DIIS error is below 1.0e-08
 ---------------------------------------
  Cycle       Energy         DIIS error
 ---------------------------------------
    1    -539.2803138824      2.91e-04  Roothaan Step
 ---------------------------------------
  Cycle       Energy         DIIS error
 ---------------------------------------
    1    -531.3350713936      4.09e-04  
    2    -531.3363157634      5.08e-04  
    3    -531.3401899052      5.03e-05  
    4    -531.3402541091      3.49e-05  
    5    -531.3402751996      1.50e-05  
    6    -531.3402801999      2.39e-06  
    7    -531.3402803641      1.52e-06  
    8    -531.3402804087      3.15e-07  
    9    -531.3402804122      1.67e-07  
   10    -531.3402804128      6.21e-08  
   11    -531.3402804129      1.95e-08  
   12    -531.3402804129      4.58e-09  Convergence criterion met
 ---------------------------------------
 SCF time:   CPU 2532.52s  wall 103.00s 
(3)  G-ENP(liq) elect-nuc-pol free energy of system     -531.340280413 a.u.
(4)  G-CDS(liq) cavity-dispersion-solvent structure 
     free energy                                               -2.3911 kcal/mol
(6)  G-S(liq) free energy of system                     -531.344090908 a.u.
 SCF   energy in the final basis set =     -531.3402804129
 Total energy in the final basis set =     -531.3440909082
 
 --------------------------------------------------------------
 
                    Orbital Energies (a.u.)
 --------------------------------------------------------------
 
 Alpha MOs
 -- Occupied --
-19.4651 -19.4362 -19.2884 -19.2883 -19.2353 -10.6099 -10.4548 -10.3228
-10.3220  -1.4473  -1.4062  -1.2913  -1.2471  -1.2135  -0.9396  -0.8106
 -0.7853  -0.7669  -0.7665  -0.7607  -0.6801  -0.6560  -0.6364  -0.6355
 -0.6337  -0.6319  -0.6242  -0.5954  -0.5092  -0.4900  -0.4760  -0.4751
 -0.4276  -0.3905
 -- Virtual --
 -0.0327  -0.0071   0.0021   0.0447   0.0629   0.0724   0.0794   0.0801
  0.0879   0.0949   0.1048   0.1088   0.1185   0.1200   0.1269   0.1290
  0.1322   0.1360   0.1379   0.1427   0.1526   0.1618   0.1686   0.1728
  0.1805   0.1827   0.1928   0.2000   0.2151   0.2234   0.2285   0.2377
  0.2410   0.2558   0.2563   0.2616   0.2675   0.2730   0.2834   0.2953
  0.3041   0.3064   0.3162   0.3192   0.3208   0.3271   0.3326   0.3389
  0.3436   0.3482   0.3656   0.3671   0.3712   0.3757   0.3819   0.3877
  0.3929   0.3958   0.4005   0.4061   0.4081   0.4124   0.4219   0.4294
  0.4341   0.4379   0.4433   0.4518   0.4602   0.4623   0.4646   0.4809
  0.4882   0.4933   0.4975   0.4992   0.5072   0.5140   0.5314   0.5351
  0.5395   0.5503   0.5521   0.5565   0.5701   0.5738   0.5827   0.5895
  0.5970   0.6001   0.6034   0.6049   0.6230   0.6299   0.6422   0.6599
  0.6728   0.6777   0.6905   0.6984   0.7156   0.7206   0.7293   0.7377
  0.7596   0.7770   0.7816   0.7826   0.7864   0.7902   0.7939   0.8036
  0.8074   0.8130   0.8325   0.8382   0.8666   0.8798   0.8819   0.8939
  0.8976   0.9082   0.9116   0.9272   0.9372   0.9414   0.9585   0.9702
  0.9829   0.9903   0.9916   0.9949   1.0012   1.0125   1.0213   1.0305
  1.0434   1.0680   1.0844   1.0987   1.1180   1.1260   1.1303   1.1479
  1.1722   1.1958   1.2039   1.2087   1.2114   1.2274   1.2367   1.2690
  1.2780   1.2868   1.2874   1.2998   1.3213   1.3395   1.3439   1.3550
  1.3745   1.3841   1.4066   1.4352   1.4505   1.5118   1.5151   1.5593
  1.6327   1.6696   1.6864   1.7019   1.7153   1.7165   1.7314   1.7533
  1.7564   1.7757   1.7870   1.8019   1.8212   1.8304   1.8467   1.8801
  1.8884   1.9010   1.9067   1.9138   1.9195   1.9382   1.9519   1.9775
  1.9837   2.0238   2.0306   2.0652   2.0892   2.0967   2.1049   2.1309
  2.1714   2.2114   2.2216   2.2526   2.3146   2.3445   2.3750   2.3848
  2.4266   2.4628   2.4907   2.5020   2.5115   2.5437   2.5744   2.5773
  2.6382   2.7189   2.7243   2.7472   2.7596   2.7764   2.8016   2.8165
  2.8234   2.8805   2.9191   2.9443   2.9479   2.9673   2.9682   2.9728
  2.9822   2.9909   3.0016   3.0137   3.0298   3.0401   3.0472   3.0514
  3.0663   3.0753   3.1063   3.1243   3.1340   3.1364   3.1553   3.1592
  3.1779   3.1996   3.2049   3.2125   3.2312   3.2908   3.2946   3.3025
  3.3268   3.3411   3.3572   3.3585   3.3906   3.4214   3.4353   3.4604
  3.4838   3.5131   3.5164   3.5290   3.5292   3.5641   3.5845   3.6234
  3.6370   3.6808   3.6921   3.7227   3.7468   3.7644   3.7718   3.7993
  3.8035   3.8156   3.8181   3.8396   3.8753   3.8976   3.9640   4.0000
  4.0394   4.0420   4.0475   4.0627   4.1106   4.1474   4.2016   4.2172
  4.2922   4.3042   4.3283   4.3731   4.3805   4.3870   4.3934   4.4370
  4.4849   4.6403   4.6583   4.7062   4.7349   4.7806   4.7961   4.8120
  4.9610   4.9842   4.9888   5.0632   5.0922   5.1022   5.1169   5.1207
  5.1773   5.1882   5.2020   5.2419   5.2460   5.2525   5.2548   5.2983
  5.3071   5.3248   5.3285   5.3524   5.4180   5.4764   5.5543   5.5811
  5.6215   5.6547   5.6819   5.7132   5.7143   5.7334   5.7745   5.8870
  5.9340   5.9404   5.9739   6.0698   6.0715   6.1581   6.1904   6.2561
  6.2646   6.3281   6.3304   6.4122   6.4157   6.4247   6.4300   6.4519
  6.4840   6.5222   6.5391   6.5437   6.5554   6.5784   6.5999   6.6185
  6.6680   6.7877   6.8589   6.8649   6.8817   6.9596   6.9798   7.0431
  7.0462   7.0529   7.0720   7.0992   7.2132   7.2350   7.2925   7.3237
  7.3348   7.4950   7.5996   7.6561   7.8738   7.8790  23.6677  23.7003
 24.0177  24.3391  44.0681  44.1560  44.3504  44.4053  44.4492
 --------------------------------------------------------------
 
          Ground-State Mulliken Net Atomic Charges

     Atom                 Charge (a.u.)
  ----------------------------------------
      1 O                    -0.302333
      2 C                     0.627210
      3 O                    -0.310194
      4 O                    -0.350140
      5 O                     0.021090
      6 C                     0.705519
      7 O                    -0.106837
      8 C                    -0.052851
      9 C                     0.181643
     10 H                     0.369848
     11 H                     0.060290
     12 H                     0.060741
     13 H                     0.048147
     14 H                     0.047867
  ----------------------------------------
  Sum of atomic charges =     1.000000

  Building new vdw surfaces
         Merz-Kollman RESP Net Atomic Charges

     Atom                 Charge (a.u.)
  ----------------------------------------
      1 O                    -0.391490
      2 C                     0.740806
      3 O                    -0.372530
      4 O                    -0.220534
      5 O                    -0.096433
      6 C                     0.775971
      7 O                    -0.205670
      8 C                    -0.257570
      9 C                    -0.257570
     10 H                     0.522152
     11 H                     0.190718
     12 H                     0.190718
     13 H                     0.190718
     14 H                     0.190718
  ----------------------------------------
  Sum of atomic charges =     1.000000

  Related Dipole Moment =    20.5527 (X -14.9313 Y 14.1212 Z  0.2528)

 -----------------------------------------------------------------
                    Cartesian Multipole Moments
 -----------------------------------------------------------------
    Charge (ESU x 10^10)
                 4.8032
    Dipole Moment (Debye)
         X     -14.9142      Y      14.1482      Z       0.2594
       Tot      20.5589
    Quadrupole Moments (Debye-Ang)
        XX     -11.6158     XY     -27.3748     YY     -23.2715
        XZ      -1.1614     YZ       0.6172     ZZ     -45.9044
    Octopole Moments (Debye-Ang^2)
       XXX    -330.8633    XXY     103.8867    XYY    -162.9454
       YYY     121.9635    XXZ       3.3511    XYZ      -2.7985
       YYZ       0.5079    XZZ     -57.8457    YZZ       2.3278
       ZZZ      -2.2028
    Hexadecapole Moments (Debye-Ang^3)
      XXXX   -1958.4840   XXXY     333.1676   XXYY    -456.8355
      XYYY     590.4803   YYYY   -1142.9271   XXXZ     -33.5244
      XXYZ      10.0647   XYYZ     -10.4005   YYYZ      10.0320
      XXZZ    -402.5572   XYZZ     222.7411   YYZZ    -215.4831
      XZZZ     -12.7045   YZZZ       4.6110   ZZZZ     -55.2082
 -----------------------------------------------------------------
 Calculating analytic gradient of the SCF energy
 Gradient of CDS energy
            1           2           3           4           5           6
    1  -0.0007158   0.0012334  -0.0006597  -0.0000262   0.0000926   0.0006284
    2  -0.0000409  -0.0002452   0.0002248   0.0004280  -0.0001130   0.0002394
    3  -0.0000446   0.0000777  -0.0000420   0.0000131  -0.0000022  -0.0000375
            7           8           9          10          11          12
    1  -0.0003437  -0.0011221   0.0010934  -0.0003180   0.0001407   0.0001473
    2  -0.0006450  -0.0010463   0.0009592   0.0004131   0.0000449   0.0000407
    3  -0.0000308  -0.0000063  -0.0000043   0.0000724   0.0002423  -0.0002391
           13          14
    1  -0.0000716  -0.0000786
    2  -0.0001316  -0.0001281
    3  -0.0002395   0.0002409
 Gradient of SCF Energy
            1           2           3           4           5           6
    1  -0.0054174  -0.0025790   0.0071122   0.0045062   0.1553836  -0.0489949
    2  -0.0304040  -0.0020266   0.0333492  -0.0072413  -0.0268003   0.0021966
    3  -0.0002441  -0.0001334   0.0003149   0.0000620  -0.0179829   0.0043109
            7           8           9          10          11          12
    1  -0.0456782   0.0273927  -0.0126769  -0.0591030  -0.0175937  -0.0189348
    2   0.0671954   0.0194013  -0.0281489  -0.0434704  -0.0085730  -0.0069730
    3   0.0120305   0.0007824  -0.0004765   0.0015075  -0.0334128   0.0329313
           13          14
    1   0.0079616   0.0086217
    2   0.0163177   0.0151773
    3   0.0307244  -0.0304143
 Max gradient component =       1.554E-01
 RMS gradient           =       3.434E-02
 Computing fast CPCM-SWIG gradient
 Updating gradient with PCM contributions...
 -- total gradient after adding PCM contribution --
---------------------------------------------------
  Atom         X              Y              Z     
---------------------------------------------------
   1       0.000325       0.001958       0.000061
   2      -0.000274      -0.001800      -0.000106
   3      -0.000051      -0.000154       0.000045
   4       0.000001      -0.000019      -0.000070
   5      -0.000038      -0.000013      -0.000007
   6       0.000039       0.000024       0.000035
   7      -0.000031      -0.000009      -0.000020
   8      -0.000030      -0.000012       0.000115
   9      -0.000050      -0.000032      -0.000406
  10      -0.000001      -0.000001      -0.000007
  11       0.000026      -0.000009      -0.000011
  12      -0.000008       0.000006      -0.000031
  13       0.000076       0.000162       0.000297
  14       0.000016      -0.000100       0.000106
---------------------------------------------------
 Number of fixed atoms: 0
 Gradient time:  CPU 516.85 s  wall 26.55 s
 ----------------------------------------------------------------
             Standard Nuclear Orientation (Angstroms)
    I     Atom           X                Y                Z
 ----------------------------------------------------------------
    1      O       4.1950273101    -3.1462599080     0.1068380808
    2      C       4.3879990982    -2.0023581909     0.1150265170
    3      O       4.6160114534    -0.8651829983     0.1259158049
    4      O       1.6423327964    -1.2960938573    -0.0588589007
    5      O      -0.8306930824     2.5263581394    -0.1267666672
    6      C      -1.9190699274     2.7710028375     0.0043884721
    7      O      -3.0662768562     3.1520597432     0.1547237560
    8      C       0.3081594866    -0.7845675986    -0.0811767992
    9      C       1.4559952627     0.1199021898    -0.0734453786
   10      H      -3.7822361786     2.4526364528     0.1548662883
   11      H      -0.2307172919    -0.9566557906    -1.0096013456
   12      H      -0.2559943479    -0.9406579754     0.8349820681
   13      H       1.7316382350     0.6266304766     0.8488176499
   14      H       1.7570285674     0.6103610085    -0.9957095484
 ----------------------------------------------------------------
 Nuclear Repulsion Energy =         373.14852970 hartrees
 There are       34 alpha and       34 beta electrons
 Discretize the solute cavity surface with Lebedev spheres
	Using 110 Lebedev grid points for each H atom
	Using 194 Lebedev grid points for other atoms
	Atomic van der Waals radii will be scaled by 1.20
 Remove points where switching function is < 1.0e-08
 Keep 1145 surface tesserae and discard 1151 interior tesserae
 Molecular Surface Area = 241.446 Angst**2

                       Distance Matrix (Angstroms)
             O (  1)   C (  2)   O (  3)   O (  4)   O (  5)   C (  6)
   C (  2)  1.160093
   O (  3)  2.319677  1.159860
   O (  4)  3.157027  2.840375  3.010414
   O (  5)  7.582284  6.913934  6.421292  4.553198
   C (  6)  8.509211  7.910521  7.479566  5.406373  1.123217
   O (  7)  9.612370  9.062882  8.669292  6.480948  2.338498  1.218150
   C (  8)  4.551998  4.262230  4.313580  1.429047  3.501613  4.196421
   C (  9)  4.266452  3.624384  3.315998  1.428278  3.320063  4.292489
   H ( 10)  9.746111  9.305982  9.029913  6.597318  2.965866  1.896151
   H ( 11)  5.062412  4.867322  4.978810  2.127780  3.642905  4.215940
   H ( 12)  5.020604  4.817906  4.923912  2.128129  3.643548  4.151160
   H ( 13)  4.566566  3.808712  3.326816  2.128079  3.335607  4.317298
   H ( 14)  4.612120  3.870664  3.407207  2.127302  3.335028  4.379757
             O (  7)   C (  8)   C (  9)   H ( 10)   H ( 11)   H ( 12)
   C (  8)  5.190328
   C (  9)  5.449494  1.461387
   H ( 10)  1.000895  5.221738  5.738714
   H ( 11)  5.126168  1.087187  2.209155  5.058907
   H ( 12)  5.011066  1.087189  2.209284  4.940788  1.844826
   H ( 13)  5.466219  2.209675  1.087806  5.849673  3.132308  2.531258
   H ( 14)  5.572074  2.209393  1.087080  5.949896  2.531179  3.131989
             H ( 13)
   H ( 14)  1.844774
 
 Requested basis set is def2-TZVPPD
 There are 157 shells and 433 basis functions
 A cutoff of  1.0D-14 yielded  10214 shell pairs
 There are     76770 function pairs (     98060 Cartesian)
 Smallest overlap matrix eigenvalue = 5.64E-06
 Guess MOs from SCF MO coefficient file

 -----------------------------------------------------------------------
  General SCF calculation program by
  Eric Jon Sundstrom, Paul Horn, Yuezhi Mao, Dmitri Zuev, Alec White,
  David Stuck, Shaama M.S., Shane Yost, Joonho Lee, David Small,
  Daniel Levine, Susi Lehtola, Hugh Burton, Evgeny Epifanovsky,
  Bang C. Huynh
 -----------------------------------------------------------------------
 Exchange:     0.1670 Hartree-Fock + 1.0000 wB97X-V + LR-HF
 Correlation:  1.0000 wB97X-V
 Using SG-3 standard quadrature grid
 Nonlocal Correlation:  VV10 with C = 0.0100 and b = 6.00 and scale = 1.00000
 Grid used for NLC:  SG-1 standard quadrature
 
 Citation of the SMD model:
 Marenich, A.V.; Cramer, C.J.; Truhlar, D.G.
 J. Phys. Chem. B 2009, 113, 6378-6396.
 iSolventCode=           0
 Solvent: other                                                           
 
 vradii
            1           2           3           4           5           6
    1   2.2940000   1.8500000   2.2940000   2.2940000   2.2940000   1.8500000
            7           8           9          10          11          12
    1   2.2940000   1.8500000   1.8500000   1.2000000   1.2000000   1.2000000
           13          14
    1   1.2000000   1.2000000
 using 32 threads for integral computing
 -------------------------------------------------------
 OpenMP Integral computing Module                
 Release: version 1.0, May 2013, Q-Chem Inc. Pittsburgh 
 -------------------------------------------------------
 using 32 threads for integral computing
[...]
 H         -0.219 -0.063 -0.319   -0.050  0.028  0.029   -0.099  0.314  0.159
 H         -0.044 -0.280  0.334   -0.003 -0.028 -0.016    0.157 -0.036 -0.044
 H          0.356 -0.033  0.339   -0.020 -0.064 -0.016   -0.106  0.073 -0.049
 TransDip  -0.008  0.075 -0.012    0.035 -0.066 -0.012    0.042  0.022  0.048

 Mode:                 7                      8                      9
 Frequency:        80.34                 105.13                 110.45
 Force Cnst:      0.0259                 0.0557                 0.0324
 Red. Mass:       6.8083                 8.5546                 4.5134
 IR Active:          YES                    YES                    YES
 IR Intens:       11.269                  0.696                  2.851
 Raman Active:       YES                    YES                    YES
               X      Y      Z        X      Y      Z        X      Y      Z
 O          0.049 -0.011  0.010   -0.221  0.119 -0.002   -0.171  0.109 -0.022
 C          0.039 -0.009 -0.065    0.167  0.052 -0.012   -0.035  0.084  0.019
 O          0.025 -0.005 -0.142    0.537 -0.020 -0.023    0.098  0.058  0.059
 O         -0.057  0.012  0.036   -0.157 -0.022  0.121   -0.086 -0.215 -0.139
 O          0.052 -0.046  0.446    0.021 -0.017 -0.012   -0.021  0.025  0.007
 C          0.011 -0.014  0.048    0.025 -0.005  0.001   -0.026  0.009 -0.002
 O         -0.030  0.022 -0.364    0.032  0.009  0.014   -0.033 -0.010 -0.010
 C         -0.050  0.033  0.118   -0.180 -0.088 -0.147    0.034  0.116  0.138
 C         -0.034  0.014 -0.039   -0.228 -0.030  0.052    0.254 -0.166 -0.042
 H         -0.060  0.053 -0.684    0.023  0.018  0.022   -0.022 -0.021 -0.016
 H         -0.134 -0.018  0.176    0.012 -0.131 -0.250   -0.190  0.281  0.237
 H          0.026  0.103  0.177   -0.353 -0.102 -0.256    0.176  0.221  0.243
 H          0.050  0.069 -0.094   -0.388 -0.002  0.086    0.507 -0.264 -0.066
 H         -0.105 -0.050 -0.096   -0.084 -0.038  0.093    0.207 -0.198 -0.073
 TransDip  -0.002  0.007 -0.107    0.007 -0.016 -0.021    0.030  0.030  0.033

 Mode:                10                     11                     12
 Frequency:       137.13                 542.01                 592.43
 Force Cnst:      0.0131                 0.6947                 1.7870
 Red. Mass:       1.1818                 4.0138                 8.6416
 IR Active:          YES                    YES                    YES
 IR Intens:      250.465                 51.832                 21.893
 Raman Active:       YES                    YES                    YES
               X      Y      Z        X      Y      Z        X      Y      Z
 O         -0.001 -0.001 -0.007   -0.000  0.000  0.000   -0.000 -0.000  0.000
 C         -0.000 -0.001  0.000    0.000 -0.000 -0.000   -0.000 -0.000 -0.000
 O         -0.000 -0.001  0.008   -0.000  0.000 -0.000   -0.000 -0.000 -0.000
 O          0.001  0.001 -0.006   -0.000  0.001  0.000   -0.000 -0.000  0.000
 O          0.002  0.001  0.018   -0.037 -0.195 -0.013   -0.028  0.027 -0.287
 C          0.003 -0.003  0.039    0.111  0.433  0.029    0.071 -0.066  0.713
 O         -0.011  0.008 -0.099   -0.078 -0.086 -0.001   -0.022  0.020 -0.211
 C          0.000  0.000 -0.009   -0.000 -0.000  0.000    0.000  0.000  0.000
 C          0.000  0.001  0.002    0.000 -0.000 -0.000    0.000 -0.000  0.000
 H          0.097 -0.102  0.984    0.496 -0.697 -0.118   -0.052  0.050 -0.589
 H          0.005  0.006 -0.012   -0.000 -0.000  0.000   -0.000  0.000  0.000
 H         -0.003 -0.006 -0.012   -0.000 -0.000  0.000    0.000 -0.000  0.000
 H         -0.004 -0.005  0.006    0.000  0.000 -0.000    0.000  0.000 -0.000
 H          0.004  0.007  0.006   -0.000 -0.000 -0.000   -0.000 -0.000 -0.000
 TransDip   0.050 -0.052  0.502    0.224  0.049 -0.018    0.016 -0.014  0.148

 Mode:                13                     14                     15
 Frequency:       670.77                 679.84                 824.74
 Force Cnst:      3.4209                 3.5043                 0.4105
 Red. Mass:      12.9047                12.8687                 1.0242
 IR Active:          YES                    YES                    YES
 IR Intens:       73.766                 43.015                  2.118
 Raman Active:       YES                    YES                    YES
               X      Y      Z        X      Y      Z        X      Y      Z
 O         -0.334  0.045 -0.013    0.013 -0.000 -0.329    0.000 -0.000  0.000
 C          0.863 -0.160  0.034   -0.035 -0.001  0.884   -0.000 -0.000 -0.000
 O         -0.329  0.077 -0.013    0.013  0.001 -0.330    0.001 -0.000 -0.001
 O          0.000  0.012 -0.001    0.000  0.001 -0.003   -0.004  0.006 -0.024
 O         -0.000  0.000  0.000    0.000  0.000 -0.000    0.000 -0.000 -0.000
 C         -0.000 -0.000 -0.000    0.000 -0.000  0.000    0.000 -0.000  0.000
 O         -0.000  0.000  0.000    0.000  0.000 -0.000    0.000  0.000  0.000
 C          0.009 -0.014  0.001    0.000 -0.001 -0.001   -0.000 -0.009 -0.019
 C          0.010 -0.005 -0.000   -0.000  0.000  0.001   -0.001  0.005 -0.014
 H          0.000 -0.000 -0.000    0.000 -0.000  0.000    0.000 -0.000  0.001
 H         -0.001 -0.013  0.006    0.005 -0.001 -0.004   -0.216 -0.435  0.192
 H          0.007 -0.007  0.003   -0.005 -0.002 -0.004    0.209  0.408  0.189
 H         -0.006  0.005  0.000    0.003 -0.002  0.001   -0.399 -0.134  0.191
 H          0.007  0.005  0.003   -0.000  0.003  0.002    0.457  0.123  0.206
 TransDip   0.265 -0.071  0.011   -0.007 -0.001  0.210    0.014 -0.014  0.042

 Mode:                16                     17                     18
 Frequency:       891.14                 921.48                1043.39
 Force Cnst:      4.5003                 1.7470                 0.9102
 Red. Mass:       9.6183                 3.4919                 1.4190
 IR Active:          YES                    YES                    YES
 IR Intens:       21.530                143.165                326.349
 Raman Active:       YES                    YES                    YES
               X      Y      Z        X      Y      Z        X      Y      Z
 O          0.000  0.000  0.000    0.003  0.000  0.000    0.000 -0.000  0.000
 C          0.001  0.001  0.000   -0.007  0.001 -0.000   -0.000  0.000 -0.000
 O         -0.001 -0.001  0.000    0.004 -0.000  0.001    0.000 -0.000 -0.000
 O         -0.327 -0.271 -0.002   -0.197  0.233 -0.005    0.001 -0.001  0.000
 O         -0.000 -0.000  0.000    0.000  0.000  0.000    0.010  0.019  0.001
 C          0.000  0.000 -0.000    0.000 -0.002 -0.000   -0.016 -0.123 -0.011
 O          0.001 -0.000 -0.000   -0.002  0.002  0.000   -0.042  0.116  0.016
 C          0.477 -0.201  0.010   -0.036 -0.215  0.007    0.000  0.001  0.000
 C         -0.103  0.509 -0.005    0.227 -0.005  0.004   -0.001  0.000 -0.000
 H          0.001 -0.001 -0.000    0.008 -0.007 -0.002    0.695 -0.683 -0.137
 H          0.255  0.114  0.054    0.018 -0.392 -0.005    0.000  0.002 -0.000
 H          0.242  0.064 -0.063   -0.010 -0.521 -0.017   -0.000  0.003  0.000
 H          0.117  0.242  0.048    0.441 -0.060 -0.020   -0.002 -0.000  0.000
 H          0.095  0.216 -0.069    0.408 -0.130 -0.016   -0.003  0.001 -0.000
 TransDip   0.112  0.098  0.000    0.249 -0.291  0.003    0.452 -0.352 -0.080

 Mode:                19                     20                     21
 Frequency:      1068.53                1171.32                1175.66
 Force Cnst:      0.6959                 1.1884                 1.1100
 Red. Mass:       1.0344                 1.4701                 1.3630
 IR Active:          YES                    YES                    YES
 IR Intens:        0.111                  0.898                  2.589
 Raman Active:       YES                    YES                    YES
               X      Y      Z        X      Y      Z        X      Y      Z
 O         -0.000  0.000  0.000    0.001  0.000  0.000    0.000 -0.000 -0.000
 C         -0.000  0.000 -0.000   -0.002  0.000  0.000   -0.001  0.000 -0.000
 O         -0.000  0.000  0.000    0.001 -0.000 -0.000    0.001 -0.000 -0.000
 O         -0.009  0.004 -0.004   -0.041  0.066  0.017   -0.004  0.038  0.048
 O         -0.000 -0.000 -0.000    0.000  0.000 -0.000    0.000  0.000 -0.000
 C         -0.000  0.000  0.000    0.000  0.000 -0.000    0.000 -0.000 -0.000
 O         -0.000 -0.000 -0.000   -0.000  0.000  0.000   -0.000  0.000  0.000
 C          0.004 -0.003  0.035    0.066 -0.091 -0.093    0.023 -0.065  0.053
 C          0.015 -0.005 -0.027    0.041 -0.079  0.064   -0.012 -0.030 -0.136
 H         -0.001  0.001 -0.000   -0.001  0.000  0.000   -0.000  0.000 -0.000
 H          0.348 -0.373 -0.092   -0.285  0.303  0.035   -0.029  0.700 -0.059
 H         -0.333  0.364 -0.106    0.268  0.592  0.141   -0.051 -0.064  0.005
 H          0.253 -0.361  0.092   -0.040  0.091 -0.007   -0.214 -0.461  0.151
 H         -0.336  0.393  0.066   -0.569 -0.013 -0.096    0.212  0.353  0.134
 TransDip   0.006 -0.007  0.004    0.021 -0.011 -0.019    0.014  0.000 -0.050

 Mode:                22                     23                     24
 Frequency:      1178.15                1203.67                1288.33
 Force Cnst:      1.0554                 1.1169                 8.2161
 Red. Mass:       1.2906                 1.3084                 8.4016
 IR Active:          YES                    YES                    YES
 IR Intens:        6.379                  1.275                 11.551
 Raman Active:       YES                    YES                    YES
               X      Y      Z        X      Y      Z        X      Y      Z
 O          0.000 -0.000  0.000   -0.001  0.001 -0.000   -0.000 -0.000  0.000
 C         -0.001  0.000 -0.000    0.001 -0.000  0.000    0.000 -0.000  0.000
 O          0.000 -0.000  0.000   -0.002 -0.000  0.001   -0.000 -0.000  0.000
 O          0.013  0.036 -0.072    0.059 -0.004  0.027   -0.001  0.003 -0.000
 O          0.000 -0.000 -0.000    0.000 -0.000  0.000   -0.438  0.108  0.053
 C          0.000 -0.000  0.000   -0.000 -0.000 -0.000   -0.141  0.040  0.018
 O         -0.000  0.000  0.000   -0.001  0.000 -0.000    0.503 -0.122 -0.061
 C          0.012 -0.075  0.088   -0.046 -0.043 -0.063    0.002 -0.001 -0.000
 C         -0.040 -0.015  0.037   -0.099  0.060  0.019   -0.001 -0.002  0.000
 H         -0.001  0.000  0.000   -0.001  0.000 -0.000    0.654 -0.255 -0.090
 H          0.308  0.223 -0.131   -0.309  0.090  0.057    0.002  0.002 -0.001
 H         -0.442  0.491 -0.087    0.065  0.216  0.048    0.002  0.003  0.000
 H         -0.090  0.218 -0.070    0.781 -0.316 -0.042    0.007 -0.007 -0.000
 H          0.344 -0.435 -0.052    0.287 -0.137  0.036    0.006 -0.007  0.001
 TransDip   0.014  0.007  0.079    0.009  0.016 -0.031   -0.108  0.008  0.010

 Mode:                25                     26                     27
 Frequency:      1326.16                1392.48                1496.49
 Force Cnst:      2.2281                18.2654                 1.4189
 Red. Mass:       2.1503                15.9883                 1.0753
 IR Active:          YES                    YES                    YES
 IR Intens:       26.053                  0.192                  2.215
 Raman Active:       YES                    YES                    YES
               X      Y      Z        X      Y      Z        X      Y      Z
 O          0.000  0.000  0.000    0.119  0.696  0.005   -0.000 -0.000 -0.000
 C         -0.000  0.000  0.000    0.026 -0.003  0.002    0.000  0.000  0.000
 O         -0.000 -0.001  0.000   -0.138 -0.694 -0.007   -0.000  0.000  0.000
 O         -0.067  0.088 -0.001    0.001 -0.000 -0.000   -0.013 -0.012  0.000
 O          0.001 -0.000 -0.000    0.000  0.000  0.000   -0.000 -0.000  0.000
 C          0.000 -0.000 -0.000    0.000  0.000  0.000   -0.000  0.000  0.000
 O         -0.001  0.000  0.000    0.000  0.000  0.000    0.000 -0.000 -0.000
 C          0.168  0.122 -0.001   -0.001  0.000  0.001   -0.054 -0.019 -0.001
 C         -0.161 -0.135  0.000    0.001 -0.001 -0.000   -0.028 -0.041  0.000
 H         -0.001 -0.000  0.000    0.000  0.000  0.000   -0.000  0.000 -0.000
 H          0.432 -0.151 -0.079   -0.001  0.000  0.001    0.420  0.079 -0.280
 H          0.437 -0.141  0.094   -0.003 -0.002 -0.001    0.413  0.085  0.289
 H          0.076 -0.474  0.089   -0.008  0.010 -0.003    0.184  0.361 -0.270
 H          0.045 -0.467 -0.084    0.003  0.008  0.004    0.165  0.369  0.267
 TransDip   0.101 -0.129  0.002    0.014 -0.000  0.001    0.037  0.030 -0.000

 Mode:                28                     29                     30
 Frequency:      1538.46                2406.70                2474.52
 Force Cnst:      2.0150                43.9334                43.5885
 Red. Mass:       1.4450                12.8736                12.0820
 IR Active:          YES                    YES                    YES
 IR Intens:        5.258                959.649                653.883
 Raman Active:       YES                    YES                    YES
               X      Y      Z        X      Y      Z        X      Y      Z
 O          0.000 -0.000  0.000   -0.057 -0.327 -0.002   -0.000 -0.001 -0.000
 C         -0.001 -0.000 -0.000    0.160  0.869  0.007    0.000  0.002  0.000
 O          0.001  0.000  0.000   -0.063 -0.323 -0.003   -0.000 -0.001  0.000
 O         -0.023  0.029 -0.000   -0.001  0.000  0.000    0.000 -0.001 -0.000
 O          0.000 -0.000 -0.000    0.001 -0.000 -0.000   -0.422  0.092  0.051
 C         -0.000 -0.000  0.000   -0.002  0.000  0.000    0.813 -0.182 -0.098
 O         -0.000  0.000  0.000    0.000 -0.000 -0.000   -0.178  0.031  0.021
 C          0.130  0.036  0.001   -0.000 -0.000 -0.000    0.001  0.001 -0.000
 C         -0.068 -0.122  0.000    0.001 -0.002 -0.000   -0.001 -0.000 -0.000
 H         -0.000 -0.001 -0.000    0.000 -0.001 -0.000   -0.154  0.220  0.037
 H         -0.359 -0.070  0.299   -0.002 -0.000  0.002    0.000  0.001  0.001
 H         -0.349 -0.074 -0.307   -0.002  0.000 -0.002    0.000  0.001 -0.001
 H          0.180  0.348 -0.325    0.003  0.001  0.003   -0.001  0.001  0.000
 H          0.160  0.357  0.322    0.003  0.001 -0.002   -0.001  0.000  0.000
 TransDip   0.045 -0.058  0.001    0.157  0.980  0.007    0.799 -0.152 -0.091

 Mode:                31                     32                     33
 Frequency:      3117.54                3126.61                3208.20
 Force Cnst:      5.9859                 6.1017                 6.8013
 Red. Mass:       1.0453                 1.0594                 1.1216
 IR Active:          YES                    YES                    YES
 IR Intens:       35.656                 18.984                  0.026
 Raman Active:       YES                    YES                    YES
               X      Y      Z        X      Y      Z        X      Y      Z
 O          0.000  0.000 -0.000   -0.000 -0.000 -0.000   -0.000  0.000 -0.000
 C         -0.000 -0.000 -0.000    0.000  0.000  0.000   -0.000 -0.000 -0.000
 O         -0.000  0.000  0.000   -0.000 -0.000 -0.000   -0.000  0.000  0.000
 O         -0.001 -0.001  0.000    0.000 -0.000 -0.000    0.000  0.000  0.000
 O         -0.000 -0.000 -0.000    0.000 -0.000  0.000    0.000 -0.000  0.000
 C         -0.000  0.000  0.000    0.000 -0.000 -0.000   -0.000  0.000  0.000
 O         -0.000 -0.000 -0.000    0.000  0.000  0.000   -0.000 -0.000 -0.000
 C         -0.036 -0.012 -0.000   -0.048 -0.017 -0.001   -0.001  0.001  0.069
 C         -0.024 -0.038 -0.002    0.024  0.038  0.002    0.002  0.001 -0.074
 H          0.001  0.001 -0.000   -0.000 -0.000 -0.000   -0.000 -0.000 -0.000
 H          0.220  0.073  0.398    0.254  0.083  0.463   -0.234 -0.076 -0.411
 H          0.232  0.066 -0.396    0.265  0.075 -0.456    0.246  0.069 -0.407
 H          0.137  0.245  0.471   -0.118 -0.212 -0.409    0.127  0.228  0.423
 H          0.140  0.224 -0.446   -0.119 -0.192  0.385   -0.147 -0.236  0.453
 TransDip  -0.145 -0.125 -0.004   -0.103  0.094  0.001    0.001  0.004 -0.004

 Mode:                34                     35
 Frequency:      3220.22                3345.27
 Force Cnst:      6.8505                 7.0293
 Red. Mass:       1.1213                 1.0661
 IR Active:          YES                    YES
 IR Intens:       35.703                858.529
 Raman Active:       YES                    YES
               X      Y      Z        X      Y      Z        X      Y      Z
 O         -0.000  0.000 -0.000    0.000 -0.000  0.000
 C         -0.000 -0.000 -0.000   -0.000  0.000 -0.000
 O         -0.000  0.000  0.000    0.000 -0.000 -0.000
 O         -0.000  0.000  0.002    0.000 -0.000  0.000
 O          0.000 -0.000 -0.000    0.006 -0.002 -0.001
 C         -0.000  0.000 -0.000   -0.010  0.001  0.001
 O         -0.000 -0.000 -0.000   -0.045 -0.042  0.000
 C          0.001 -0.001 -0.074    0.000  0.000  0.000
 C          0.002  0.001 -0.069   -0.000  0.000  0.000
 H         -0.000  0.000 -0.000    0.733  0.677 -0.004
 H          0.253  0.091  0.440   -0.000 -0.000 -0.000
 H         -0.264 -0.083  0.433   -0.000  0.000  0.000
 H          0.128  0.212  0.394   -0.000 -0.000 -0.001
 H         -0.145 -0.218  0.418   -0.000 -0.000  0.001
 TransDip   0.004  0.001 -0.191    0.848  0.400 -0.041

 STANDARD THERMODYNAMIC QUANTITIES AT   298.15 K  AND     1.00 ATM

   This Molecule has  1 Imaginary Frequencies
   Zero point vibrational energy:       57.999 kcal/mol

   Atom    1 Element O  Has Mass   15.99491
   Atom    2 Element C  Has Mass   12.00000
   Atom    3 Element O  Has Mass   15.99491
   Atom    4 Element O  Has Mass   15.99491
   Atom    5 Element O  Has Mass   15.99491
   Atom    6 Element C  Has Mass   12.00000
   Atom    7 Element O  Has Mass   15.99491
   Atom    8 Element C  Has Mass   12.00000
   Atom    9 Element C  Has Mass   12.00000
   Atom   10 Element H  Has Mass    1.00783
   Atom   11 Element H  Has Mass    1.00783
   Atom   12 Element H  Has Mass    1.00783
   Atom   13 Element H  Has Mass    1.00783
   Atom   14 Element H  Has Mass    1.00783
   Molecular Mass:   133.013700 amu
   Principal axes and moments of inertia in amu*Bohr^2:
                             1           2           3
    Eigenvalues --      318.64999  5368.45061  5653.24021
          X               0.79091     0.61160    -0.02043
          Y              -0.61190     0.79080    -0.01496
          Z               0.00700     0.02433     0.99968
   Rotational Symmetry Number is   1
   The Molecule is an Asymmetric Top
   Translational Enthalpy:        0.889 kcal/mol
   Rotational Enthalpy:           0.889 kcal/mol
   Vibrational Enthalpy:         63.046 kcal/mol
   gas constant (RT):             0.592 kcal/mol
   Translational Entropy:        40.568  cal/mol.K
   Rotational Entropy:           30.648  cal/mol.K
   Vibrational Entropy:          41.455  cal/mol.K

   Total Enthalpy:               65.416 kcal/mol
   Total Entropy:               112.671  cal/mol.K
Archival summary:
1\1\nid01744\FREQ\ProcedureUnspecified\BasisUnspecified\545(1+,1)\sblau\WedJul1713:26:242019WedJul1713:26:242019\0\\#,FREQ,ProcedureUnspecified,BasisUnspecified,\\1,1\O\C,1,1.42828\H,2,1.08708,1,114.824\H,2,1.08781,1,114.841,3,-138.338,0\C,1,1.42905,2,61.5213,3,-110.852,0\H,5,1.08719,1,114.799,2,110.814,0\H,5,1.08719,1,114.829,2,-110.814,0\C,1,2.84037,2,111.916,3,71.995,0\O,8,1.15911,1,94.8077,2,179.921,0\O,8,1.15986,1,86.9514,2,-0.0551021,0\O,2,3.32006,1,143.96,3,110.793,0\C,11,1.12322,2,145.425,1,13.5139,0\O,12,1.21815,11,174.322,2,164.304,0\H,13,1.00089,12,117.07,11,179.892,0\\\@

 Total job time:  11204.55s(wall), 264373.08s(cpu) 
 Wed Jul 17 13:26:25 2019

        *************************************************************
        *                                                           *
        *  Thank you very much for using Q-Chem.  Have a nice day.  *
        *                                                           *
        *************************************************************


