
Running Job 1 of 1 mol.qin
qchem mol.qin_28929.0 /tmp/qchem79753378/chain_scratch/ 0
/global/project/projectdirs/jcesr/qchem_sblau/qc521_exe/qcprog.LINUX_Ix86_64.20190628.exe mol.qin_28929.0 /tmp/qchem79753378/chain_scratch/
                  Welcome to Q-Chem
     A Quantum Leap Into The Future Of Chemistry


 Q-Chem 5.2, Q-Chem, Inc., Pleasanton, CA (2019)

 License issued to: National Energy Research Scientific Computing Center

 Yihan Shao,  Zhengting Gan,  E. Epifanovsky,  A. T. B. Gilbert,  M. Wormit,  
 J. Kussmann,  A. W. Lange,  A. Behn,  Jia Deng,  Xintian Feng,  D. Ghosh,  
 M. Goldey,  P. R. Horn,  L. D. Jacobson,  I. Kaliman,  T. Kus,  A. Landau,  
 Jie Liu,  E. I. Proynov,  R. M. Richard,  R. P. Steele,  E. J. Sundstrom,  
 H. L. Woodcock III,  P. M. Zimmerman,  D. Zuev,  B. Albrecht,  E. Alguire,  
 S. A. Baeppler,  D. Barton,  Z. Benda,  Y. A. Bernard,  E. J. Berquist,  
 K. B. Bravaya,  H. Burton,  D. Casanova,  Chun-Min Chang,  Yunqing Chen,  
 A. Chien,  K. D. Closser,  M. P. Coons,  S. Coriani,  S. Dasgupta,  
 A. L. Dempwolff,  M. Diedenhofen,  Hainam Do,  R. G. Edgar,  Po-Tung Fang,  
 S. Faraji,  S. Fatehi,  Qingguo Feng,  K. D. Fenk,  J. Fosso-Tande,  
 J. Gayvert,  Qinghui Ge,  A. Ghysels,  G. Gidofalvi,  J. Gomes,  
 J. Gonthier,  A. Gunina,  D. Hait,  M. W. D. Hanson-Heine,  
 P. H. P. Harbach,  A. W. Hauser,  M. F. Herbst,  J. E. Herr,  
 E. G. Hohenstein,  Z. C. Holden,  Kerwin Hui,  B. C. Huynh,  T.-C. Jagau,  
 Hyunjun Ji,  B. Kaduk,  K. Khistyaev,  Jaehoon Kim,  P. Klunzinger,  K. Koh,  
 D. Kosenkov,  L. Koulias,  T. Kowalczyk,  C. M. Krauter,  A. Kunitsa,  
 Ka Un Lao,  A. Laurent,  K. V. Lawler,  Joonho Lee,  D. Lefrancois,  
 S. Lehtola,  D. S. Levine,  Yi-Pei Li,  You-Sheng Lin,  Fenglai Liu,  
 E. Livshits,  A. Luenser,  P. Manohar,  E. Mansoor,  S. F. Manzer,  
 Shan-Ping Mao,  Yuezhi Mao,  N. Mardirossian,  A. V. Marenich,  
 T. Markovich,  L. A. Martinez-Martinez,  S. A. Maurer,  N. J. Mayhall,  
 S. C. McKenzie,  J.-M. Mewes,  P. Morgante,  A. F. Morrison,  
 J. W. Mullinax,  K. Nanda,  T. S. Nguyen-Beck,  R. Olivares-Amaya,  
 J. A. Parkhill,  Zheng Pei,  T. M. Perrine,  F. Plasser,  P. Pokhilko,  
 S. Prager,  A. Prociuk,  E. Ramos,  D. R. Rehn,  F. Rob,  M. Scheurer,  
 M. Schneider,  N. Sergueev,  S. M. Sharada,  S. Sharma,  D. W. Small,  
 T. Stauch,  T. Stein,  Yu-Chuan Su,  A. J. W. Thom,  A. Tkatchenko,  
 T. Tsuchimochi,  N. M. Tubman,  L. Vogt,  M. L. Vidal,  O. Vydrov,  
 M. A. Watson,  J. Wenzel,  M. de Wergifosse,  T. A. Wesolowski,  A. White,  
 J. Witte,  A. Yamada,  Jun Yang,  K. Yao,  S. Yeganeh,  S. R. Yost,  
 Zhi-Qiang You,  A. Zech,  Igor Ying Zhang,  Xing Zhang,  Yan Zhao,  
 Ying Zhu,  B. R. Brooks,  G. K. L. Chan,  C. J. Cramer,  M. S. Gordon,  
 W. J. Hehre,  A. Klamt,  M. W. Schmidt,  C. D. Sherrill,  D. G. Truhlar,  
 A. Aspuru-Guzik,  R. Baer,  A. T. Bell,  N. A. Besley,  Jeng-Da Chai,  
 A. E. DePrince, III,  R. A. DiStasio Jr.,  A. Dreuw,  B. D. Dunietz,  
 T. R. Furlani,  Chao-Ping Hsu,  Yousung Jung,  Jing Kong,  D. S. Lambrecht,  
 WanZhen Liang,  C. Ochsenfeld,  V. A. Rassolov,  L. V. Slipchenko,  
 J. E. Subotnik,  T. Van Voorhis,  J. M. Herbert,  A. I. Krylov,  
 P. M. W. Gill,  M. Head-Gordon

 Contributors to earlier versions of Q-Chem not listed above: 
 R. D. Adamson,  B. Austin,  J. Baker,  G. J. O. Beran,  K. Brandhorst,  
 S. T. Brown,  E. F. C. Byrd,  A. K. Chakraborty,  C.-L. Cheng,  
 Siu Hung Chien,  D. M. Chipman,  D. L. Crittenden,  H. Dachsel,  
 R. J. Doerksen,  A. D. Dutoi,  L. Fusti-Molnar,  W. A. Goddard III,  
 A. Golubeva-Zadorozhnaya,  S. R. Gwaltney,  G. Hawkins,  A. Heyden,  
 S. Hirata,  G. Kedziora,  F. J. Keil,  C. Kelley,  Jihan Kim,  R. A. King,  
 R. Z. Khaliullin,  P. P. Korambath,  W. Kurlancheek,  A. M. Lee,  M. S. Lee,  
 S. V. Levchenko,  Ching Yeh Lin,  D. Liotard,  R. C. Lochan,  I. Lotan,  
 P. E. Maslen,  N. Nair,  D. P. O'Neill,  D. Neuhauser,  E. Neuscamman,  
 C. M. Oana,  R. Olson,  B. Peters,  R. Peverati,  P. A. Pieniazek,  
 Y. M. Rhee,  J. Ritchie,  M. A. Rohrdanz,  E. Rosta,  N. J. Russ,  
 H. F. Schaefer III,  N. E. Schultz,  N. Shenvi,  A. C. Simmonett,  A. Sodt,  
 D. Stuck,  K. S. Thanthiriwatte,  V. Vanovschi,  Tao Wang,  A. Warshel,  
 C. F. Williams,  Q. Wu,  X. Xu,  W. Zhang

 Please cite Q-Chem as follows:
 Y. Shao et al., Mol. Phys. 113, 184-215 (2015)
 DOI: 10.1080/00268976.2014.952696

 Q-Chem 5.2.0 for Intel X86 EM64T Linux

 Parts of Q-Chem use Armadillo 8.300.2 (Tropical Shenanigans).
 http://arma.sourceforge.net/

 Q-Chem begins on Wed Jul 17 16:44:03 2019  

Host: cori09
0

     Scratch files written to /tmp/qchem79753378/chain_scratch//
 Jun2719 |scratch|qcdevops|jenkins|workspace|build_RNUM -1
Processing $rem in /global/common/cori/software/qchem/5.2/config/preferences:
	 MEM_TOTAL  96000 
NAlpha2: 68
NElect   68
Mult     1
Symmetry turned off for PCM/SM12/SMD calculation

Checking the input file for inconsistencies... 	...done.

--------------------------------------------------------------
User input:
--------------------------------------------------------------
$molecule
1 1
O      4.1932969276     -3.1450207386      0.1280169902
C      4.3886711441     -2.0024991258      0.1260760067
O      4.6192463920     -0.8658121206      0.1263661253
O      1.6453877717     -1.2940751415     -0.0635510143
O     -0.8296819042      2.5306464341     -0.1213563397
C     -1.9182583805      2.7736990815      0.0111543686
O     -3.0656862890      3.1534125085      0.1631052179
C      0.3090893533     -0.7883258830     -0.0896524105
C      1.4530724132      0.1210160469     -0.0835129566
H     -3.7807485071      2.4530710654      0.1654423743
H     -0.2280838223     -0.9660215126     -1.0180008594
H     -0.2553886166     -0.9435307594      0.8265019503
H      1.7252112214      0.6320828704      0.8367779302
H      1.7530768217      0.6095318033     -1.0073673855
$end

$rem
job_type = opt
basis = def2-tzvppd
max_scf_cycles = 200
gen_scfman = true
xc_grid = 3
scf_algorithm = diis
resp_charges = true
symmetry = false
sym_ignore = true
method = wb97xv
geom_opt_max_cycles = 100
solvent_method = smd
ideriv = 1
thresh = 14
geom_opt_hessian = read
scf_guess_always = True
$end

$smx
solvent other
$end
--------------------------------------------------------------
 ----------------------------------------------------------------
             Standard Nuclear Orientation (Angstroms)
    I     Atom           X                Y                Z
 ----------------------------------------------------------------
    1      O       4.1932969276    -3.1450207386     0.1280169902
    2      C       4.3886711441    -2.0024991258     0.1260760067
    3      O       4.6192463920    -0.8658121206     0.1263661253
    4      O       1.6453877717    -1.2940751415    -0.0635510143
    5      O      -0.8296819042     2.5306464341    -0.1213563397
    6      C      -1.9182583805     2.7736990815     0.0111543686
    7      O      -3.0656862890     3.1534125085     0.1631052179
    8      C       0.3090893533    -0.7883258830    -0.0896524105
    9      C       1.4530724132     0.1210160469    -0.0835129566
   10      H      -3.7807485071     2.4530710654     0.1654423743
   11      H      -0.2280838223    -0.9660215126    -1.0180008594
   12      H      -0.2553886166    -0.9435307594     0.8265019503
   13      H       1.7252112214     0.6320828704     0.8367779302
   14      H       1.7530768217     0.6095318033    -1.0073673855
 ----------------------------------------------------------------
 Nuclear Repulsion Energy =         373.10528550 hartrees
 There are       34 alpha and       34 beta electrons
 Requested basis set is def2-TZVPPD
 There are 157 shells and 433 basis functions

 Total QAlloc Memory Limit  96000 MB
 Mega-Array Size       188 MB
 MEM_STATIC part       192 MB
 
 Citation of the SMD model:
 Marenich, A.V.; Cramer, C.J.; Truhlar, D.G.
 J. Phys. Chem. B 2009, 113, 6378-6396.
 iSolventCode=           0
 Solvent: other                                                           
 
 vradii
            1           2           3           4           5           6
    1   2.2940000   1.8500000   2.2940000   2.2940000   2.2940000   1.8500000
            7           8           9          10          11          12
    1   2.2940000   1.8500000   1.8500000   1.2000000   1.2000000   1.2000000
           13          14
    1   1.2000000   1.2000000
 Changing PCM_VDW_RADII to SMD_RADIUS
 Discretize the solute cavity surface with Lebedev spheres
	Using 110 Lebedev grid points for each H atom
	Using 194 Lebedev grid points for other atoms
	Atomic van der Waals radii will be scaled by 1.20
 Remove points where switching function is < 1.0e-08
 Keep 1146 surface tesserae and discard 1150 interior tesserae
 Molecular Surface Area = 241.458 Angst**2
 A cutoff of  1.0D-14 yielded  10213 shell pairs
 There are     76777 function pairs (     98075 Cartesian)
 Smallest overlap matrix eigenvalue = 5.65E-06

 Scale SEOQF with 1.000000e-01/1.000000e-01/1.000000e-01

 Standard Electronic Orientation quadrupole field applied
 Nucleus-field energy     =     0.0000000427 hartrees
 Guess from superposition of atomic densities
 Warning:  Energy on first SCF cycle will be non-variational
 SAD guess density has 68.075651 electrons

 -----------------------------------------------------------------------
  General SCF calculation program by
  Eric Jon Sundstrom, Paul Horn, Yuezhi Mao, Dmitri Zuev, Alec White,
  David Stuck, Shaama M.S., Shane Yost, Joonho Lee, David Small,
  Daniel Levine, Susi Lehtola, Hugh Burton, Evgeny Epifanovsky,
  Bang C. Huynh
 -----------------------------------------------------------------------
 Exchange:     0.1670 Hartree-Fock + 1.0000 wB97X-V + LR-HF
 Correlation:  1.0000 wB97X-V
 Using SG-3 standard quadrature grid
 Nonlocal Correlation:  VV10 with C = 0.0100 and b = 6.00 and scale = 1.00000
 Grid used for NLC:  SG-1 standard quadrature
 
 Citation of the SMD model:
 Marenich, A.V.; Cramer, C.J.; Truhlar, D.G.
 J. Phys. Chem. B 2009, 113, 6378-6396.
 iSolventCode=           0
 Solvent: other                                                           
 
 vradii
            1           2           3           4           5           6
    1   2.2940000   1.8500000   2.2940000   2.2940000   2.2940000   1.8500000
            7           8           9          10          11          12
    1   2.2940000   1.8500000   1.8500000   1.2000000   1.2000000   1.2000000
           13          14
    1   1.2000000   1.2000000
 using 32 threads for integral computing
 -------------------------------------------------------
 OpenMP Integral computing Module                
 Release: version 1.0, May 2013, Q-Chem Inc. Pittsburgh 
 -------------------------------------------------------
 using 32 threads for integral computing
 -------------------------------------------------------
 OpenMP Integral computing Module                
 Release: version 1.0, May 2013, Q-Chem Inc. Pittsburgh 
 -------------------------------------------------------
 -------------------------------------------------------
 OpenMP BLAS3 based DFT computing Module                
 Release: version 1.0, May 2013, Q-Chem Inc. Pittsburgh 
 -------------------------------------------------------
 -------------------------------------------------------
 OpenMP BLAS3 based DFT computing Module                
 Release: version 1.0, May 2013, Q-Chem Inc. Pittsburgh 
 -------------------------------------------------------
 -------------------------------------------------------
 OpenMP BLAS3 based DFT computing Module                
 Release: version 1.0, May 2013, Q-Chem Inc. Pittsburgh 
 -------------------------------------------------------
 A restricted SCF calculation will be
 performed using DIIS
 SCF converges when DIIS error is below 1.0e-08
 ---------------------------------------
  Cycle       Energy         DIIS error
 ---------------------------------------
    1    -530.3648447389      2.55e-02  
    2    -530.1227283858      9.01e-03  
    3    -530.2812187877      8.31e-03  
    4    -531.3259827179      9.22e-04  
    5    -531.3365572322      4.93e-04  
    6    -531.3401479423      8.22e-05  
    7    -531.3402653460      3.12e-05  
    8    -531.3402816506      1.12e-05  
    9    -531.3402845541      2.54e-06  
   10    -531.3402847833      1.21e-06  
   11    -531.3402848206      3.90e-07  
   12    -531.3402848269      1.52e-07  
   13    -531.3402848279      5.10e-08  
   14    -531.3402848280      3.68e-08  
   15    -531.3402848280      6.01e-09  Convergence criterion met
 ---------------------------------------
 SCF time:   CPU 2799.40s  wall 116.00s 
(3)  G-ENP(liq) elect-nuc-pol free energy of system     -531.340284828 a.u.
(4)  G-CDS(liq) cavity-dispersion-solvent structure 
     free energy                                               -2.3896 kcal/mol
(6)  G-S(liq) free energy of system                     -531.344092942 a.u.
 SCF   energy in the final basis set =     -531.3402848280
 Total energy in the final basis set =     -531.3440929418
 
 --------------------------------------------------------------
 
                    Orbital Energies (a.u.)
 --------------------------------------------------------------
 
 Alpha MOs
 -- Occupied --
-19.4651 -19.4362 -19.2885 -19.2883 -19.2353 -10.6099 -10.4550 -10.3228
-10.3220  -1.4473  -1.4062  -1.2910  -1.2469  -1.2135  -0.9396  -0.8106
 -0.7853  -0.7669  -0.7665  -0.7607  -0.6802  -0.6560  -0.6363  -0.6354
 -0.6336  -0.6318  -0.6242  -0.5954  -0.5092  -0.4900  -0.4759  -0.4751
 -0.4276  -0.3905
 -- Virtual --
 -0.0328  -0.0071   0.0021   0.0447   0.0629   0.0723   0.0794   0.0801
  0.0879   0.0949   0.1048   0.1088   0.1185   0.1200   0.1269   0.1289
  0.1321   0.1358   0.1378   0.1427   0.1526   0.1617   0.1686   0.1728
  0.1805   0.1826   0.1929   0.2000   0.2150   0.2231   0.2283   0.2377
  0.2411   0.2556   0.2563   0.2616   0.2672   0.2734   0.2833   0.2955
  0.3040   0.3063   0.3164   0.3193   0.3207   0.3269   0.3326   0.3388
  0.3437   0.3480   0.3655   0.3672   0.3712   0.3754   0.3820   0.3876
  0.3929   0.3957   0.4004   0.4061   0.4081   0.4125   0.4217   0.4292
  0.4342   0.4379   0.4432   0.4518   0.4601   0.4620   0.4644   0.4810
  0.4881   0.4933   0.4975   0.4992   0.5068   0.5139   0.5313   0.5353
  0.5392   0.5502   0.5520   0.5565   0.5699   0.5737   0.5825   0.5892
  0.5967   0.5997   0.6036   0.6047   0.6228   0.6298   0.6421   0.6595
  0.6730   0.6780   0.6907   0.6983   0.7154   0.7202   0.7290   0.7377
  0.7594   0.7759   0.7815   0.7826   0.7867   0.7900   0.7937   0.8036
  0.8071   0.8131   0.8325   0.8377   0.8664   0.8796   0.8815   0.8941
  0.8977   0.9080   0.9116   0.9271   0.9370   0.9412   0.9583   0.9701
  0.9827   0.9900   0.9920   0.9952   1.0016   1.0126   1.0207   1.0296
  1.0432   1.0680   1.0842   1.0983   1.1179   1.1260   1.1304   1.1483
  1.1720   1.1954   1.2036   1.2086   1.2112   1.2274   1.2369   1.2689
  1.2777   1.2867   1.2875   1.2997   1.3206   1.3394   1.3437   1.3546
  1.3744   1.3841   1.4066   1.4346   1.4503   1.5118   1.5147   1.5592
  1.6330   1.6697   1.6866   1.7017   1.7152   1.7163   1.7312   1.7532
  1.7562   1.7753   1.7869   1.8020   1.8211   1.8305   1.8471   1.8794
  1.8880   1.9010   1.9065   1.9138   1.9191   1.9378   1.9516   1.9768
  1.9832   2.0235   2.0301   2.0652   2.0888   2.0962   2.1044   2.1312
  2.1717   2.2113   2.2218   2.2527   2.3148   2.3444   2.3749   2.3848
  2.4265   2.4628   2.4902   2.5018   2.5115   2.5430   2.5744   2.5772
  2.6372   2.7188   2.7240   2.7473   2.7599   2.7765   2.8014   2.8167
  2.8229   2.8805   2.9191   2.9446   2.9476   2.9671   2.9681   2.9730
  2.9823   2.9909   3.0013   3.0137   3.0292   3.0396   3.0468   3.0511
  3.0661   3.0753   3.1061   3.1246   3.1334   3.1366   3.1551   3.1584
  3.1777   3.1998   3.2051   3.2126   3.2306   3.2909   3.2942   3.3028
  3.3271   3.3411   3.3573   3.3581   3.3898   3.4210   3.4353   3.4601
  3.4837   3.5128   3.5159   3.5283   3.5293   3.5642   3.5836   3.6237
  3.6369   3.6805   3.6922   3.7227   3.7467   3.7637   3.7717   3.7984
  3.8034   3.8153   3.8179   3.8394   3.8753   3.8976   3.9640   4.0000
  4.0395   4.0421   4.0477   4.0625   4.1105   4.1473   4.2017   4.2172
  4.2921   4.3041   4.3276   4.3731   4.3805   4.3869   4.3932   4.4366
  4.4849   4.6395   4.6583   4.7062   4.7350   4.7805   4.7962   4.8120
  4.9612   4.9842   4.9860   5.0633   5.0921   5.1021   5.1167   5.1207
  5.1774   5.1883   5.2022   5.2420   5.2459   5.2523   5.2544   5.2984
  5.3072   5.3245   5.3282   5.3531   5.4179   5.4765   5.5544   5.5811
  5.6218   5.6548   5.6819   5.7132   5.7143   5.7333   5.7745   5.8871
  5.9327   5.9391   5.9738   6.0700   6.0714   6.1560   6.1907   6.2540
  6.2625   6.3282   6.3303   6.4126   6.4157   6.4246   6.4299   6.4517
  6.4840   6.5221   6.5390   6.5437   6.5551   6.5781   6.6005   6.6187
  6.6679   6.7875   6.8588   6.8646   6.8812   6.9597   6.9798   7.0430
  7.0455   7.0529   7.0718   7.0996   7.2122   7.2337   7.2926   7.3237
  7.3349   7.4949   7.5980   7.6558   7.8736   7.8766  23.6673  23.7003
 24.0175  24.3339  44.0681  44.1540  44.3506  44.4050  44.4487
 --------------------------------------------------------------
 
          Ground-State Mulliken Net Atomic Charges

     Atom                 Charge (a.u.)
  ----------------------------------------
      1 O                    -0.304003
      2 C                     0.628569
      3 O                    -0.309781
      4 O                    -0.349787
      5 O                     0.021124
      6 C                     0.705428
      7 O                    -0.106812
      8 C                    -0.051140
      9 C                     0.179118
     10 H                     0.369862
     11 H                     0.059987
     12 H                     0.060794
     13 H                     0.048628
     14 H                     0.048012
  ----------------------------------------
  Sum of atomic charges =     1.000000

  Building new vdw surfaces
         Merz-Kollman RESP Net Atomic Charges

     Atom                 Charge (a.u.)
  ----------------------------------------
      1 O                    -0.391236
      2 C                     0.742852
      3 O                    -0.376098
      4 O                    -0.224792
      5 O                    -0.109513
      6 C                     0.792164
      7 O                    -0.211909
      8 C                    -0.239991
      9 C                    -0.260275
     10 H                     0.523036
     11 H                     0.183641
     12 H                     0.182962
     13 H                     0.194579
     14 H                     0.194579
  ----------------------------------------
  Sum of atomic charges =     1.000000

  Related Dipole Moment =    20.5640 (X -14.9299 Y 14.1385 Z  0.2822)

 -----------------------------------------------------------------
                    Cartesian Multipole Moments
 -----------------------------------------------------------------
    Charge (ESU x 10^10)
                 4.8032
    Dipole Moment (Debye)
         X     -14.9176      Y      14.1571      Z       0.2905
       Tot      20.5680
    Quadrupole Moments (Debye-Ang)
        XX     -11.6958     XY     -27.3519     YY     -23.2291
        XZ      -1.2842     YZ       0.7654     ZZ     -45.8982
    Octopole Moments (Debye-Ang^2)
       XXX    -330.9349    XXY     103.9169    XYY    -163.1124
       YYY     122.1535    XXZ       3.6833    XYZ      -2.9468
       YYZ       0.4342    XZZ     -57.9080    YZZ       2.3360
       ZZZ      -2.5787
    Hexadecapole Moments (Debye-Ang^3)
      XXXX   -1960.5550   XXXY     334.0496   XXYY    -457.4810
      XYYY     590.7074   YYYY   -1144.1228   XXXZ     -35.5859
      XXYZ      11.7161   XYYZ     -12.3041   YYYZ      11.8645
      XXZZ    -402.6351   XYZZ     222.8285   YYZZ    -215.8431
      XZZZ     -13.7274   YZZZ       4.9750   ZZZZ     -55.6137
 -----------------------------------------------------------------
 Calculating analytic gradient of the SCF energy
 Gradient of CDS energy
            1           2           3           4           5           6
    1  -0.0007167   0.0012331  -0.0006592  -0.0000280   0.0001158   0.0006276
    2  -0.0000434  -0.0002435   0.0002266   0.0004273  -0.0001240   0.0002403
    3  -0.0000466   0.0000843  -0.0000470   0.0000120   0.0000127  -0.0000390
            7           8           9          10          11          12
    1  -0.0003428  -0.0011189   0.0011067  -0.0003184   0.0001402   0.0001473
    2  -0.0006455  -0.0010521   0.0009346   0.0004128   0.0000464   0.0000405
    3  -0.0000294  -0.0000035  -0.0000212   0.0000725   0.0002423  -0.0002391
           13          14
    1  -0.0001084  -0.0000783
    2  -0.0000924  -0.0001274
    3  -0.0002390   0.0002410
 Gradient of SCF Energy
            1           2           3           4           5           6
    1  -0.0057954  -0.0023297   0.0072449   0.0045912   0.1554296  -0.0490380
    2  -0.0323448  -0.0002359   0.0334969  -0.0072563  -0.0265795   0.0020758
    3  -0.0000407   0.0000388  -0.0000725   0.0001441  -0.0181008   0.0042738
            7           8           9          10          11          12
    1  -0.0457105   0.0272356  -0.0124105  -0.0590511  -0.0175337  -0.0189646
    2   0.0671662   0.0195694  -0.0282019  -0.0435437  -0.0087562  -0.0069308
    3   0.0120424   0.0006246   0.0000719   0.0016676  -0.0333241   0.0328978
           13          14
    1   0.0077681   0.0085641
    2   0.0163683   0.0151724
    3   0.0303843  -0.0306071
 Max gradient component =       1.554E-01
 RMS gradient           =       3.438E-02
 Computing fast CPCM-SWIG gradient
 Updating gradient with PCM contributions...
 -- total gradient after adding PCM contribution --
---------------------------------------------------
  Atom         X              Y              Z     
---------------------------------------------------
   1       0.000003      -0.000001      -0.000001
   2       0.000001       0.000006       0.000002
   3       0.000007      -0.000004      -0.000002
   4      -0.000002      -0.000002      -0.000026
   5       0.000000       0.000002       0.000016
   6      -0.000004      -0.000003       0.000002
   7      -0.000002      -0.000003       0.000002
   8       0.000000      -0.000003       0.000002
   9       0.000018       0.000009       0.000020
  10      -0.000003      -0.000003      -0.000002
  11      -0.000006      -0.000008      -0.000004
  12       0.000004       0.000001       0.000001
  13      -0.000047       0.000047      -0.000008
  14       0.000031      -0.000039      -0.000000
---------------------------------------------------
 Number of fixed atoms: 0
 Gradient time:  CPU 507.54 s  wall 25.70 s
 Geometry Optimization Parameters
   NAtoms,    NIC,     NZ,  NCons,   NDum,   NFix, NCnnct, MaxDiis
       14     203       0       0       0       0       0       0

 Cartesian Hessian read from HESS file


** GEOMETRY OPTIMIZATION IN DELOCALIZED INTERNAL COORDINATES **
   Searching for a Minimum

   Optimization Cycle:   1

                       Coordinates (Angstroms)
     ATOM                X               Y               Z
      1  O         4.1932969276   -3.1450207386    0.1280169902
      2  C         4.3886711441   -2.0024991258    0.1260760067
      3  O         4.6192463920   -0.8658121206    0.1263661253
      4  O         1.6453877717   -1.2940751415   -0.0635510143
      5  O        -0.8296819042    2.5306464341   -0.1213563397
      6  C        -1.9182583805    2.7736990815    0.0111543686
      7  O        -3.0656862890    3.1534125085    0.1631052179
      8  C         0.3090893533   -0.7883258830   -0.0896524105
      9  C         1.4530724132    0.1210160469   -0.0835129566
     10  H        -3.7807485071    2.4530710654    0.1654423743
     11  H        -0.2280838223   -0.9660215126   -1.0180008594
     12  H        -0.2553886166   -0.9435307594    0.8265019503
     13  H         1.7252112214    0.6320828704    0.8367779302
     14  H         1.7530768217    0.6095318033   -1.0073673855
   Point Group: c1    Number of degrees of freedom:    36


   Energy is   -531.344092942


 Attempting to generate delocalized internal coordinates

 Transforming Cartesian Hessian to Internal Coordinates
 Hessian Transformation does not Include Derivative of B-matrix

 36 Hessian modes will be used to form the next step
  Hessian Eigenvalues:
    -0.000032    0.000021    0.000069    0.000202    0.000342    0.000498
     0.000694    0.001141    0.001710    0.002754    0.008145    0.009005
     0.012247    0.012553    0.014420    0.016890    0.018597    0.020711
     0.021909    0.022721    0.026471    0.035908    0.104233    0.112191
     0.121175    0.141874    0.243733    0.258039    0.281410    0.289687
     0.355242    0.401502    0.800155    0.891511    1.127602    1.337553
**WARNING** Magnitude of eigenvalue   1 too small.  Replaced by    -0.000100
**WARNING** Magnitude of eigenvalue   2 too small.  Replaced by     0.000100
**WARNING** Magnitude of eigenvalue   3 too small.  Replaced by     0.000100
**WARNING** Hessian does not have the desired local structure

 Minimum search - taking simple RFO step
 Searching for Lamda that Minimizes Along All modes
 Value Taken    Lamda =  -0.00010001
 Calculated Step too Large.  Step scaled by  0.003268
 Step Taken.  Stepsize is  0.300000

                             Maximum     Tolerance    Cnvgd?
         Gradient           0.000035      0.000300     YES
         Displacement       0.179225      0.001200      NO
         Energy change     *********      0.000001      NO


 New Cartesian Coordinates Obtained by Inverse Iteration

 Displacement from previous Coordinates is:  0.253988
 ----------------------------------------------------------------
             Standard Nuclear Orientation (Angstroms)
    I     Atom           X                Y                Z
 ----------------------------------------------------------------
    1      O       4.1833855627    -3.1458920347     0.1923399091
    2      C       4.3836514750    -2.0044608029     0.1687317203
    3      O       4.6191530721    -0.8691431846     0.1483374122
    4      O       1.6493759240    -1.2930100723    -0.1098099925
    5      O      -0.8339016759     2.5284735366    -0.1003572488
    6      C      -1.9222069968     2.7720242109     0.0334565380
    7      O      -3.0692764886     3.1523341881     0.1866519231
    8      C       0.3131684798    -0.7861915530    -0.1121189515
    9      C       1.4577726367     0.1223031112    -0.1226883935
   10      H      -3.7846685546     2.4523347406     0.1900523852
   11      H      -0.2395912440    -0.9610183966    -1.0318242691
   12      H      -0.2359984219    -0.9433450656     0.8129718487
   13      H       1.7456525117     0.6305307942     0.7943745453
   14      H       1.7426882451     0.6132350568    -1.0501174289
 ----------------------------------------------------------------
 Nuclear Repulsion Energy =         373.07846364 hartrees
 There are       34 alpha and       34 beta electrons
 Discretize the solute cavity surface with Lebedev spheres
	Using 110 Lebedev grid points for each H atom
	Using 194 Lebedev grid points for other atoms
	Atomic van der Waals radii will be scaled by 1.20
 Remove points where switching function is < 1.0e-08
 Keep 1139 surface tesserae and discard 1157 interior tesserae
 Molecular Surface Area = 241.603 Angst**2
 Applying Cartesian multipole field
    Component          Value
    ---------          -----
     (2,0,0)        1.00000E-11
     (0,2,0)        2.00000E-11
     (0,0,2)       -3.00000E-11
 Nucleus-field energy     =     0.0000000426 hartrees
 Requested basis set is def2-TZVPPD
 There are 157 shells and 433 basis functions
 A cutoff of  1.0D-14 yielded  10209 shell pairs
 There are     76719 function pairs (     97999 Cartesian)
 Smallest overlap matrix eigenvalue = 5.66E-06
 Guess from superposition of atomic densities
 Warning:  Energy on first SCF cycle will be non-variational
 SAD guess density has 68.075651 electrons

 -----------------------------------------------------------------------
  General SCF calculation program by
  Eric Jon Sundstrom, Paul Horn, Yuezhi Mao, Dmitri Zuev, Alec White,
  David Stuck, Shaama M.S., Shane Yost, Joonho Lee, David Small,
  Daniel Levine, Susi Lehtola, Hugh Burton, Evgeny Epifanovsky,
  Bang C. Huynh
 -----------------------------------------------------------------------
 Exchange:     0.1670 Hartree-Fock + 1.0000 wB97X-V + LR-HF
 Correlation:  1.0000 wB97X-V
 Using SG-3 standard quadrature grid
 Nonlocal Correlation:  VV10 with C = 0.0100 and b = 6.00 and scale = 1.00000
 Grid used for NLC:  SG-1 standard quadrature
 
 Citation of the SMD model:
 Marenich, A.V.; Cramer, C.J.; Truhlar, D.G.
 J. Phys. Chem. B 2009, 113, 6378-6396.
 iSolventCode=           0
 Solvent: other                                                           
 
 vradii
            1           2           3           4           5           6
    1   2.2940000   1.8500000   2.2940000   2.2940000   2.2940000   1.8500000
            7           8           9          10          11          12
    1   2.2940000   1.8500000   1.8500000   1.2000000   1.2000000   1.2000000
           13          14
    1   1.2000000   1.2000000
 using 32 threads for integral computing
 -------------------------------------------------------
 OpenMP Integral computing Module                
 Release: version 1.0, May 2013, Q-Chem Inc. Pittsburgh 
 -------------------------------------------------------
 using 32 threads for integral computing
 -------------------------------------------------------
 OpenMP Integral computing Module                
 Release: version 1.0, May 2013, Q-Chem Inc. Pittsburgh 
 -------------------------------------------------------
 -------------------------------------------------------
 OpenMP BLAS3 based DFT computing Module                
 Release: version 1.0, May 2013, Q-Chem Inc. Pittsburgh 
 -------------------------------------------------------
 -------------------------------------------------------
 OpenMP BLAS3 based DFT computing Module                
 Release: version 1.0, May 2013, Q-Chem Inc. Pittsburgh 
 -------------------------------------------------------
 -------------------------------------------------------
 OpenMP BLAS3 based DFT computing Module                
 Release: version 1.0, May 2013, Q-Chem Inc. Pittsburgh 
 -------------------------------------------------------
 A restricted SCF calculation will be
 performed using DIIS
 SCF converges when DIIS error is below 1.0e-08
 ---------------------------------------
  Cycle       Energy         DIIS error
 ---------------------------------------
    1    -538.4198020400      2.55e-02  
    2    -530.1228023408      9.01e-03  
    3    -530.2813341649      8.31e-03  
    4    -531.3259758781      9.22e-04  
    5    -531.3365592414      4.93e-04  
    6    -531.3401495309      8.22e-05  
    7    -531.3402669318      3.12e-05  
    8    -531.3402832394      1.12e-05  
    9    -531.3402861431      2.54e-06  
   10    -531.3402863723      1.20e-06  
   11    -531.3402864096      3.89e-07  
   12    -531.3402864159      1.52e-07  
   13    -531.3402864169      5.07e-08  
   14    -531.3402864170      3.66e-08  
   15    -531.3402864170      6.03e-09  Convergence criterion met
 ---------------------------------------
 SCF time:   CPU 2834.05s  wall 116.00s 
(3)  G-ENP(liq) elect-nuc-pol free energy of system     -531.340286417 a.u.
(4)  G-CDS(liq) cavity-dispersion-solvent structure 
     free energy                                               -2.3868 kcal/mol
(6)  G-S(liq) free energy of system                     -531.344089969 a.u.
 SCF   energy in the final basis set =     -531.3402864170
 Total energy in the final basis set =     -531.3440899690
 
 --------------------------------------------------------------
 
                    Orbital Energies (a.u.)
 --------------------------------------------------------------
 
 Alpha MOs
 -- Occupied --
-19.4651 -19.4362 -19.2885 -19.2883 -19.2353 -10.6099 -10.4549 -10.3228
-10.3220  -1.4473  -1.4062  -1.2911  -1.2469  -1.2135  -0.9396  -0.8106
 -0.7853  -0.7669  -0.7665  -0.7607  -0.6802  -0.6560  -0.6366  -0.6351
 -0.6336  -0.6318  -0.6242  -0.5954  -0.5091  -0.4900  -0.4759  -0.4750
 -0.4276  -0.3905
 -- Virtual --
 -0.0328  -0.0071   0.0021   0.0447   0.0629   0.0724   0.0794   0.0802
  0.0878   0.0949   0.1047   0.1088   0.1183   0.1202   0.1270   0.1288
  0.1322   0.1358   0.1378   0.1427   0.1528   0.1618   0.1687   0.1727
  0.1805   0.1826   0.1930   0.2000   0.2150   0.2222   0.2283   0.2378
  0.2415   0.2542   0.2564   0.2620   0.2665   0.2746   0.2838   0.2960
  0.3038   0.3060   0.3161   0.3189   0.3209   0.3274   0.3326   0.3388
  0.3441   0.3476   0.3655   0.3669   0.3713   0.3748   0.3824   0.3875
  0.3931   0.3965   0.4001   0.4059   0.4078   0.4128   0.4216   0.4292
  0.4346   0.4378   0.4429   0.4518   0.4603   0.4624   0.4647   0.4805
  0.4880   0.4926   0.4983   0.4995   0.5062   0.5134   0.5308   0.5356
  0.5391   0.5507   0.5518   0.5565   0.5687   0.5735   0.5827   0.5893
  0.5964   0.5997   0.6040   0.6047   0.6229   0.6302   0.6425   0.6589
  0.6722   0.6785   0.6909   0.6981   0.7144   0.7207   0.7291   0.7372
  0.7584   0.7719   0.7803   0.7852   0.7877   0.7903   0.7946   0.8038
  0.8075   0.8137   0.8324   0.8375   0.8660   0.8789   0.8808   0.8929
  0.8982   0.9072   0.9130   0.9265   0.9374   0.9413   0.9572   0.9701
  0.9828   0.9904   0.9924   0.9952   1.0028   1.0135   1.0199   1.0290
  1.0429   1.0682   1.0846   1.0971   1.1167   1.1250   1.1307   1.1507
  1.1718   1.1955   1.2030   1.2085   1.2119   1.2266   1.2396   1.2690
  1.2780   1.2863   1.2878   1.2988   1.3194   1.3395   1.3442   1.3538
  1.3739   1.3855   1.4085   1.4332   1.4493   1.5116   1.5153   1.5596
  1.6329   1.6688   1.6861   1.7014   1.7124   1.7163   1.7318   1.7533
  1.7570   1.7742   1.7875   1.8021   1.8209   1.8314   1.8473   1.8800
  1.8881   1.9011   1.9063   1.9137   1.9188   1.9372   1.9517   1.9765
  1.9825   2.0237   2.0306   2.0656   2.0890   2.0960   2.1046   2.1310
  2.1709   2.2125   2.2217   2.2501   2.3144   2.3447   2.3747   2.3851
  2.4262   2.4626   2.4896   2.5018   2.5120   2.5428   2.5744   2.5771
  2.6372   2.7167   2.7247   2.7476   2.7598   2.7771   2.8000   2.8174
  2.8218   2.8805   2.9196   2.9445   2.9475   2.9664   2.9682   2.9734
  2.9820   2.9917   3.0018   3.0129   3.0294   3.0398   3.0468   3.0514
  3.0658   3.0753   3.1060   3.1236   3.1335   3.1375   3.1549   3.1580
  3.1775   3.1975   3.2053   3.2174   3.2301   3.2905   3.2945   3.3015
  3.3290   3.3415   3.3574   3.3589   3.3909   3.4212   3.4356   3.4593
  3.4835   3.5124   3.5168   3.5284   3.5286   3.5652   3.5831   3.6229
  3.6368   3.6805   3.6929   3.7226   3.7464   3.7630   3.7730   3.7986
  3.8034   3.8159   3.8182   3.8397   3.8757   3.8979   3.9639   4.0005
  4.0394   4.0421   4.0477   4.0621   4.1098   4.1473   4.2015   4.2156
  4.2921   4.3044   4.3260   4.3740   4.3803   4.3871   4.3935   4.4356
  4.4849   4.6394   4.6587   4.7053   4.7356   4.7806   4.7960   4.8111
  4.9613   4.9842   4.9865   5.0639   5.0921   5.1021   5.1165   5.1203
  5.1775   5.1882   5.2024   5.2419   5.2459   5.2524   5.2544   5.2980
  5.3076   5.3246   5.3282   5.3532   5.4171   5.4766   5.5548   5.5810
  5.6210   5.6556   5.6817   5.7132   5.7144   5.7333   5.7742   5.8873
  5.9330   5.9393   5.9738   6.0697   6.0712   6.1564   6.1912   6.2544
  6.2629   6.3273   6.3301   6.4123   6.4159   6.4245   6.4284   6.4514
  6.4839   6.5224   6.5388   6.5436   6.5554   6.5780   6.6003   6.6189
  6.6677   6.7877   6.8586   6.8646   6.8811   6.9597   6.9800   7.0425
  7.0460   7.0529   7.0722   7.1006   7.2124   7.2337   7.2927   7.3237
  7.3343   7.4950   7.5982   7.6551   7.8737   7.8769  23.6655  23.6984
 24.0179  24.3349  44.0682  44.1538  44.3497  44.4053  44.4486
 --------------------------------------------------------------
 
          Ground-State Mulliken Net Atomic Charges

     Atom                 Charge (a.u.)
  ----------------------------------------
      1 O                    -0.304171
      2 C                     0.628204
      3 O                    -0.309525
      4 O                    -0.351344
      5 O                     0.021120
      6 C                     0.705382
      7 O                    -0.106667
      8 C                    -0.049531
      9 C                     0.178324
     10 H                     0.369822
     11 H                     0.062923
     12 H                     0.058586
     13 H                     0.047285
     14 H                     0.049593
  ----------------------------------------
  Sum of atomic charges =     1.000000

  Building new vdw surfaces
         Merz-Kollman RESP Net Atomic Charges

     Atom                 Charge (a.u.)
  ----------------------------------------
      1 O                    -0.391300
      2 C                     0.743125
      3 O                    -0.376025
      4 O                    -0.227863
      5 O                    -0.110562
      6 C                     0.792585
      7 O                    -0.211606
      8 C                    -0.235750
      9 C                    -0.258537
     10 H                     0.522761
     11 H                     0.182158
     12 H                     0.182358
     13 H                     0.194327
     14 H                     0.194327
  ----------------------------------------
  Sum of atomic charges =     1.000000

  Related Dipole Moment =    20.5791 (X -14.9473 Y 14.1390 Z  0.4111)

 -----------------------------------------------------------------
                    Cartesian Multipole Moments
 -----------------------------------------------------------------
    Charge (ESU x 10^10)
                 4.8032
    Dipole Moment (Debye)
         X     -14.9363      Y      14.1550      Z       0.4253
       Tot      20.5825
    Quadrupole Moments (Debye-Ang)
        XX     -11.6058     XY     -27.3896     YY     -23.2607
        XZ      -1.5100     YZ       1.0192     ZZ     -45.8836
    Octopole Moments (Debye-Ang^2)
       XXX    -331.3796    XXY     104.0991    XYY    -163.0046
       YYY     122.0927    XXZ       4.5324    XYZ      -3.6103
       YYZ       0.4616    XZZ     -57.9487    YZZ       2.4685
       ZZZ      -3.5687
    Hexadecapole Moments (Debye-Ang^3)
      XXXX   -1957.6024   XXXY     332.6230   XXYY    -455.8658
      XYYY     590.4468   YYYY   -1144.2913   XXXZ     -42.5025
      XXYZ      15.3670   XYYZ     -17.4776   YYYZ      16.7849
      XXZZ    -402.5299   XYZZ     222.9351   YYZZ    -216.2611
      XZZZ     -17.7402   YZZZ       5.7867   ZZZZ     -57.6511
 -----------------------------------------------------------------
 Calculating analytic gradient of the SCF energy
 Gradient of CDS energy
            1           2           3           4           5           6
    1  -0.0007167   0.0012304  -0.0007116  -0.0000287   0.0001190   0.0006275
    2  -0.0000415  -0.0002449   0.0002704   0.0004264  -0.0001251   0.0002400
    3  -0.0000646   0.0001227  -0.0000388   0.0000286   0.0000118  -0.0000398
            7           8           9          10          11          12
    1  -0.0003432  -0.0011205   0.0010275  -0.0003182   0.0001443   0.0001433
    2  -0.0006453  -0.0010522   0.0009296   0.0004129   0.0000456   0.0000410
    3  -0.0000288   0.0000127  -0.0000944   0.0000727   0.0002401  -0.0002414
           13          14
    1   0.0000211  -0.0000743
    2  -0.0001290  -0.0001280
    3  -0.0002225   0.0002418
 Gradient of SCF Energy
            1           2           3           4           5           6
    1  -0.0059168  -0.0022985   0.0072844   0.0046113   0.1554319  -0.0490546
    2  -0.0322829   0.0000914   0.0331594  -0.0071450  -0.0265125   0.0019602
    3   0.0005021   0.0001497  -0.0007363   0.0001161  -0.0182961   0.0044224
            7           8           9          10          11          12
    1  -0.0456835   0.0272535  -0.0125212  -0.0590653  -0.0180817  -0.0184770
    2   0.0671908   0.0193022  -0.0280883  -0.0435160  -0.0088313  -0.0068127
    3   0.0119814   0.0007375  -0.0000601   0.0017513  -0.0331016   0.0331507
           13          14
    1   0.0084161   0.0081014
    2   0.0161688   0.0153159
    3   0.0301739  -0.0307912
 Max gradient component =       1.554E-01
 RMS gradient           =       3.437E-02
 Computing fast CPCM-SWIG gradient
 Updating gradient with PCM contributions...
 -- total gradient after adding PCM contribution --
---------------------------------------------------
  Atom         X              Y              Z     
---------------------------------------------------
   1       0.000009       0.000034      -0.000004
   2       0.000065       0.000313      -0.000014
   3      -0.000122      -0.000300       0.000034
   4       0.000033      -0.000026      -0.000013
   5      -0.000007       0.000007       0.000001
   6       0.000003      -0.000013       0.000012
   7      -0.000002       0.000004       0.000009
   8      -0.000024      -0.000001       0.000002
   9      -0.000081      -0.000007       0.000009
  10      -0.000003      -0.000003      -0.000001
  11      -0.000004      -0.000000      -0.000007
  12       0.000000       0.000003       0.000005
  13       0.000084       0.000005       0.000012
  14       0.000049      -0.000016      -0.000046
---------------------------------------------------
 Number of fixed atoms: 0
 Gradient time:  CPU 517.89 s  wall 26.65 s
 Geometry Optimization Parameters
   NAtoms,    NIC,     NZ,  NCons,   NDum,   NFix, NCnnct, MaxDiis
       14     203       0       0       0       0       0       0

 Cartesian Hessian Update
 Hessian updated using BFGS update


** GEOMETRY OPTIMIZATION IN DELOCALIZED INTERNAL COORDINATES **
   Searching for a Minimum

   Optimization Cycle:   2

                       Coordinates (Angstroms)
     ATOM                X               Y               Z
      1  O         4.1833855627   -3.1458920347    0.1923399091
      2  C         4.3836514750   -2.0044608029    0.1687317203
      3  O         4.6191530721   -0.8691431846    0.1483374122
      4  O         1.6493759240   -1.2930100723   -0.1098099925
      5  O        -0.8339016759    2.5284735366   -0.1003572488
      6  C        -1.9222069968    2.7720242109    0.0334565380
      7  O        -3.0692764886    3.1523341881    0.1866519231
      8  C         0.3131684798   -0.7861915530   -0.1121189515
      9  C         1.4577726367    0.1223031112   -0.1226883935
     10  H        -3.7846685546    2.4523347406    0.1900523852
     11  H        -0.2395912440   -0.9610183966   -1.0318242691
     12  H        -0.2359984219   -0.9433450656    0.8129718487
     13  H         1.7456525117    0.6305307942    0.7943745453
     14  H         1.7426882451    0.6132350568   -1.0501174289
   Point Group: c1    Number of degrees of freedom:    36


   Energy is   -531.344089969

 Hessian updated using BFGS update

 36 Hessian modes will be used to form the next step
  Hessian Eigenvalues:
     0.000008    0.000036    0.000088    0.000203    0.000347    0.000661
     0.001013    0.001179    0.001815    0.004130    0.008285    0.009102
     0.012262    0.012999    0.014470    0.016960    0.018670    0.020722
     0.022038    0.022755    0.026562    0.035927    0.104261    0.112191
     0.121248    0.142890    0.243787    0.258369    0.281428    0.289688
     0.355242    0.401502    0.800156    0.900354    1.133134    1.337557
**WARNING** Magnitude of eigenvalue   1 too small.  Replaced by     0.000100
**WARNING** Magnitude of eigenvalue   2 too small.  Replaced by     0.000100
**WARNING** Magnitude of eigenvalue   3 too small.  Replaced by     0.000100

 Minimum search - taking simple RFO step
 Searching for Lamda that Minimizes Along All modes
 Value Taken    Lamda =  -0.00000564
 Step Taken.  Stepsize is  0.135579

                             Maximum     Tolerance    Cnvgd?
         Gradient           0.000211      0.000300     YES
         Displacement       0.063645      0.001200      NO
         Energy change      0.000003      0.000001      NO


 New Cartesian Coordinates Obtained by Inverse Iteration

 Displacement from previous Coordinates is:  0.104422
 ----------------------------------------------------------------
             Standard Nuclear Orientation (Angstroms)
    I     Atom           X                Y                Z
 ----------------------------------------------------------------
    1      O       4.1799246247    -3.1473587488     0.1884836339
    2      C       4.3847171492    -2.0069926605     0.1545400742
    3      O       4.6249050435    -0.8727582388     0.1235246193
    4      O       1.6521613323    -1.2873963523    -0.1052870254
    5      O      -0.8308772038     2.5275797085    -0.1080757543
    6      C      -1.9193756087     2.7709418481     0.0245056368
    7      O      -3.0667194239     3.1509880228     0.1762565478
    8      C       0.3133272092    -0.7875997598    -0.1048069018
    9      C       1.4531270529     0.1268988421    -0.1067308776
   10      H      -3.7817519502     2.4506274947     0.1807270187
   11      H      -0.2374629614    -0.9576003186    -1.0265914732
   12      H      -0.2360182988    -0.9553823648     0.8182922424
   13      H       1.7373382232     0.6289720346     0.8148621833
   14      H       1.7359093370     0.6272550214    -1.0296999266
 ----------------------------------------------------------------
 Nuclear Repulsion Energy =         373.11943839 hartrees
 There are       34 alpha and       34 beta electrons
 Discretize the solute cavity surface with Lebedev spheres
	Using 110 Lebedev grid points for each H atom
	Using 194 Lebedev grid points for other atoms
	Atomic van der Waals radii will be scaled by 1.20
 Remove points where switching function is < 1.0e-08
 Keep 1141 surface tesserae and discard 1155 interior tesserae
 Molecular Surface Area = 241.458 Angst**2
 Applying Cartesian multipole field
    Component          Value
    ---------          -----
     (2,0,0)        1.00000E-11
     (0,2,0)        2.00000E-11
     (0,0,2)       -3.00000E-11
 Nucleus-field energy     =     0.0000000427 hartrees
 Requested basis set is def2-TZVPPD
 There are 157 shells and 433 basis functions
 A cutoff of  1.0D-14 yielded  10212 shell pairs
 There are     76762 function pairs (     98057 Cartesian)
 Smallest overlap matrix eigenvalue = 5.67E-06
 Guess from superposition of atomic densities
 Warning:  Energy on first SCF cycle will be non-variational
 SAD guess density has 68.075651 electrons

 -----------------------------------------------------------------------
  General SCF calculation program by
  Eric Jon Sundstrom, Paul Horn, Yuezhi Mao, Dmitri Zuev, Alec White,
  David Stuck, Shaama M.S., Shane Yost, Joonho Lee, David Small,
  Daniel Levine, Susi Lehtola, Hugh Burton, Evgeny Epifanovsky,
  Bang C. Huynh
 -----------------------------------------------------------------------
 Exchange:     0.1670 Hartree-Fock + 1.0000 wB97X-V + LR-HF
 Correlation:  1.0000 wB97X-V
 Using SG-3 standard quadrature grid
 Nonlocal Correlation:  VV10 with C = 0.0100 and b = 6.00 and scale = 1.00000
 Grid used for NLC:  SG-1 standard quadrature
 
 Citation of the SMD model:
 Marenich, A.V.; Cramer, C.J.; Truhlar, D.G.
 J. Phys. Chem. B 2009, 113, 6378-6396.
 iSolventCode=           0
 Solvent: other                                                           
 
 vradii
            1           2           3           4           5           6
    1   2.2940000   1.8500000   2.2940000   2.2940000   2.2940000   1.8500000
            7           8           9          10          11          12
    1   2.2940000   1.8500000   1.8500000   1.2000000   1.2000000   1.2000000
           13          14
    1   1.2000000   1.2000000
 using 32 threads for integral computing
 -------------------------------------------------------
 OpenMP Integral computing Module                
 Release: version 1.0, May 2013, Q-Chem Inc. Pittsburgh 
 -------------------------------------------------------
 using 32 threads for integral computing
 -------------------------------------------------------
 OpenMP Integral computing Module                
 Release: version 1.0, May 2013, Q-Chem Inc. Pittsburgh 
 -------------------------------------------------------
 -------------------------------------------------------
 OpenMP BLAS3 based DFT computing Module                
 Release: version 1.0, May 2013, Q-Chem Inc. Pittsburgh 
 -------------------------------------------------------
 -------------------------------------------------------
 OpenMP BLAS3 based DFT computing Module                
 Release: version 1.0, May 2013, Q-Chem Inc. Pittsburgh 
 -------------------------------------------------------
 -------------------------------------------------------
 OpenMP BLAS3 based DFT computing Module                
 Release: version 1.0, May 2013, Q-Chem Inc. Pittsburgh 
 -------------------------------------------------------
 A restricted SCF calculation will be
 performed using DIIS
 SCF converges when DIIS error is below 1.0e-08
 ---------------------------------------
  Cycle       Energy         DIIS error
 ---------------------------------------
    1    -538.4178261611      2.55e-02  
    2    -530.1227779186      9.01e-03  
    3    -530.2813804809      8.31e-03  
    4    -531.3259908177      9.22e-04  
    5    -531.3365640155      4.93e-04  
    6    -531.3401543216      8.22e-05  
    7    -531.3402717704      3.12e-05  
    8    -531.3402880829      1.12e-05  
    9    -531.3402909874      2.54e-06  
   10    -531.3402912167      1.21e-06  
   11    -531.3402912540      3.89e-07  
   12    -531.3402912603      1.52e-07  
   13    -531.3402912613      5.09e-08  
   14    -531.3402912614      3.67e-08  
   15    -531.3402912614      6.02e-09  Convergence criterion met
 ---------------------------------------
 SCF time:   CPU 2840.92s  wall 117.00s 
(3)  G-ENP(liq) elect-nuc-pol free energy of system     -531.340291261 a.u.
(4)  G-CDS(liq) cavity-dispersion-solvent structure 
     free energy                                               -2.3861 kcal/mol
(6)  G-S(liq) free energy of system                     -531.344093746 a.u.
 SCF   energy in the final basis set =     -531.3402912614
 Total energy in the final basis set =     -531.3440937456
 
 --------------------------------------------------------------
 
                    Orbital Energies (a.u.)
 --------------------------------------------------------------
 
 Alpha MOs
 -- Occupied --
-19.4651 -19.4362 -19.2885 -19.2883 -19.2354 -10.6099 -10.4549 -10.3228
-10.3220  -1.4473  -1.4062  -1.2910  -1.2468  -1.2135  -0.9396  -0.8107
 -0.7854  -0.7669  -0.7665  -0.7607  -0.6801  -0.6560  -0.6365  -0.6351
 -0.6336  -0.6318  -0.6242  -0.5954  -0.5092  -0.4900  -0.4759  -0.4750
 -0.4276  -0.3905
 -- Virtual --
 -0.0328  -0.0071   0.0021   0.0447   0.0629   0.0724   0.0794   0.0802
  0.0878   0.0949   0.1047   0.1089   0.1183   0.1202   0.1270   0.1288
  0.1322   0.1358   0.1379   0.1427   0.1526   0.1618   0.1688   0.1726
  0.1807   0.1826   0.1931   0.1999   0.2149   0.2223   0.2282   0.2379
  0.2417   0.2545   0.2560   0.2619   0.2670   0.2744   0.2836   0.2960
  0.3038   0.3060   0.3160   0.3190   0.3206   0.3277   0.3329   0.3388
  0.3442   0.3474   0.3656   0.3670   0.3712   0.3752   0.3820   0.3876
  0.3932   0.3965   0.4002   0.4059   0.4079   0.4128   0.4214   0.4291
  0.4348   0.4378   0.4427   0.4516   0.4602   0.4625   0.4644   0.4807
  0.4880   0.4930   0.4982   0.4996   0.5062   0.5136   0.5312   0.5353
  0.5391   0.5503   0.5522   0.5560   0.5691   0.5737   0.5827   0.5892
  0.5959   0.5992   0.6044   0.6048   0.6228   0.6302   0.6424   0.6594
  0.6722   0.6784   0.6910   0.6982   0.7139   0.7204   0.7291   0.7376
  0.7587   0.7738   0.7800   0.7850   0.7880   0.7904   0.7934   0.8032
  0.8075   0.8138   0.8327   0.8368   0.8654   0.8796   0.8811   0.8932
  0.8983   0.9076   0.9129   0.9265   0.9372   0.9410   0.9580   0.9702
  0.9832   0.9908   0.9920   0.9948   1.0027   1.0141   1.0198   1.0289
  1.0428   1.0681   1.0846   1.0975   1.1172   1.1250   1.1303   1.1513
  1.1721   1.1954   1.2034   1.2086   1.2118   1.2266   1.2398   1.2689
  1.2778   1.2861   1.2877   1.2987   1.3189   1.3395   1.3445   1.3537
  1.3737   1.3851   1.4084   1.4336   1.4497   1.5114   1.5150   1.5590
  1.6333   1.6692   1.6870   1.7021   1.7129   1.7160   1.7317   1.7534
  1.7566   1.7738   1.7879   1.8024   1.8209   1.8317   1.8476   1.8796
  1.8881   1.9012   1.9063   1.9141   1.9189   1.9368   1.9516   1.9764
  1.9823   2.0239   2.0305   2.0654   2.0886   2.0958   2.1043   2.1316
  2.1713   2.2120   2.2220   2.2505   2.3150   2.3447   2.3748   2.3851
  2.4265   2.4627   2.4894   2.5019   2.5121   2.5422   2.5744   2.5771
  2.6370   2.7166   2.7248   2.7476   2.7605   2.7773   2.8000   2.8175
  2.8223   2.8805   2.9193   2.9447   2.9477   2.9664   2.9683   2.9736
  2.9818   2.9917   3.0015   3.0137   3.0293   3.0398   3.0474   3.0512
  3.0659   3.0751   3.1057   3.1241   3.1340   3.1375   3.1537   3.1578
  3.1769   3.1979   3.2052   3.2179   3.2296   3.2908   3.2950   3.3015
  3.3287   3.3414   3.3566   3.3594   3.3909   3.4208   3.4362   3.4601
  3.4835   3.5125   3.5160   3.5285   3.5290   3.5649   3.5829   3.6236
  3.6369   3.6806   3.6927   3.7233   3.7461   3.7627   3.7723   3.7988
  3.8033   3.8159   3.8179   3.8395   3.8755   3.8978   3.9640   4.0004
  4.0394   4.0421   4.0481   4.0618   4.1099   4.1473   4.2017   4.2161
  4.2920   4.3045   4.3257   4.3737   4.3803   4.3871   4.3934   4.4355
  4.4851   4.6390   4.6584   4.7054   4.7357   4.7806   4.7962   4.8113
  4.9613   4.9842   4.9862   5.0638   5.0920   5.1021   5.1166   5.1205
  5.1775   5.1881   5.2025   5.2419   5.2459   5.2524   5.2544   5.2982
  5.3076   5.3245   5.3282   5.3532   5.4173   5.4766   5.5546   5.5811
  5.6213   5.6555   5.6818   5.7132   5.7144   5.7333   5.7742   5.8870
  5.9328   5.9391   5.9739   6.0698   6.0713   6.1561   6.1914   6.2541
  6.2626   6.3274   6.3301   6.4125   6.4159   6.4245   6.4286   6.4515
  6.4839   6.5224   6.5390   6.5436   6.5553   6.5781   6.6004   6.6190
  6.6675   6.7877   6.8586   6.8647   6.8815   6.9595   6.9798   7.0426
  7.0458   7.0529   7.0725   7.1004   7.2123   7.2333   7.2929   7.3237
  7.3346   7.4951   7.5980   7.6551   7.8738   7.8765  23.6659  23.6990
 24.0180  24.3341  44.0685  44.1534  44.3509  44.4053  44.4483
 --------------------------------------------------------------
 
          Ground-State Mulliken Net Atomic Charges

     Atom                 Charge (a.u.)
  ----------------------------------------
      1 O                    -0.304213
      2 C                     0.628702
      3 O                    -0.309726
      4 O                    -0.350406
      5 O                     0.021224
      6 C                     0.705120
      7 O                    -0.106778
      8 C                    -0.048975
      9 C                     0.176146
     10 H                     0.369855
     11 H                     0.063196
     12 H                     0.058173
     13 H                     0.048326
     14 H                     0.049355
  ----------------------------------------
  Sum of atomic charges =     1.000000

  Building new vdw surfaces
         Merz-Kollman RESP Net Atomic Charges

     Atom                 Charge (a.u.)
  ----------------------------------------
      1 O                    -0.390972
      2 C                     0.742121
      3 O                    -0.375694
      4 O                    -0.224450
      5 O                    -0.109464
      6 C                     0.792230
      7 O                    -0.211993
      8 C                    -0.240670
      9 C                    -0.261912
     10 H                     0.523056
     11 H                     0.183474
     12 H                     0.184030
     13 H                     0.195123
     14 H                     0.195123
  ----------------------------------------
  Sum of atomic charges =     1.000000

  Related Dipole Moment =    20.5658 (X -14.9451 Y 14.1226 Z  0.3849)

 -----------------------------------------------------------------
                    Cartesian Multipole Moments
 -----------------------------------------------------------------
    Charge (ESU x 10^10)
                 4.8032
    Dipole Moment (Debye)
         X     -14.9340      Y      14.1401      Z       0.3978
       Tot      20.5700
    Quadrupole Moments (Debye-Ang)
        XX     -11.7502     XY     -27.3525     YY     -23.2391
        XZ      -1.3509     YZ       0.9427     ZZ     -45.8957
    Octopole Moments (Debye-Ang^2)
       XXX    -331.4380    XXY     103.7275    XYY    -162.7019
       YYY     121.8852    XXZ       4.4860    XYZ      -3.1293
       YYZ       0.2220    XZZ     -57.9787    YZZ       2.4683
       ZZZ      -3.0313
    Hexadecapole Moments (Debye-Ang^3)
      XXXX   -1960.6909   XXXY     332.8327   XXYY    -455.8308
      XYYY     590.4428   YYYY   -1144.5911   XXXZ     -38.9554
      XXYZ      15.3190   XYYZ     -16.7772   YYYZ      16.5761
      XXZZ    -402.5407   XYZZ     222.9868   YYZZ    -216.1708
      XZZZ     -16.1953   YZZZ       6.1976   ZZZZ     -56.9751
 -----------------------------------------------------------------
 Calculating analytic gradient of the SCF energy
 Gradient of CDS energy
            1           2           3           4           5           6
    1  -0.0007184   0.0012309  -0.0006875  -0.0000303   0.0001098   0.0006280
    2  -0.0000387  -0.0002505   0.0002551   0.0004254  -0.0001213   0.0002401
    3  -0.0000581   0.0001139  -0.0000508   0.0000288  -0.0000068  -0.0000400
            7           8           9          10          11          12
    1  -0.0003428  -0.0011151   0.0010562  -0.0003184   0.0001438   0.0001434
    2  -0.0006456  -0.0010575   0.0009457   0.0004129   0.0000444   0.0000438
    3  -0.0000276   0.0000020  -0.0000401   0.0000717   0.0002406  -0.0002409
           13          14
    1  -0.0000084  -0.0000911
    2  -0.0001422  -0.0001115
    3  -0.0002325   0.0002398
 Gradient of SCF Energy
            1           2           3           4           5           6
    1  -0.0060393  -0.0023709   0.0074997   0.0047075   0.1554731  -0.0490506
    2  -0.0322548  -0.0001419   0.0333341  -0.0072245  -0.0265657   0.0020473
    3   0.0007923   0.0001985  -0.0010882   0.0001204  -0.0181966   0.0043869
            7           8           9          10          11          12
    1  -0.0457228   0.0271332  -0.0123078  -0.0590525  -0.0180254  -0.0184551
    2   0.0671724   0.0196198  -0.0282432  -0.0435443  -0.0086484  -0.0072062
    3   0.0118423   0.0008745  -0.0004685   0.0018045  -0.0331477   0.0330698
           13          14
    1   0.0082635   0.0079474
    2   0.0159683   0.0156872
    3   0.0304277  -0.0306159
 Max gradient component =       1.555E-01
 RMS gradient           =       3.438E-02
 Computing fast CPCM-SWIG gradient
 Updating gradient with PCM contributions...
 -- total gradient after adding PCM contribution --
---------------------------------------------------
  Atom         X              Y              Z     
---------------------------------------------------
   1       0.000007       0.000011      -0.000008
   2       0.000012       0.000055       0.000009
   3      -0.000033      -0.000046       0.000005
   4       0.000030      -0.000034       0.000021
   5       0.000001      -0.000007      -0.000001
   6      -0.000002      -0.000002      -0.000001
   7      -0.000002      -0.000002       0.000000
   8       0.000012       0.000037      -0.000010
   9      -0.000054      -0.000010      -0.000021
  10      -0.000001      -0.000003       0.000001
  11       0.000004       0.000007      -0.000004
  12      -0.000001      -0.000002       0.000005
  13       0.000046      -0.000024       0.000008
  14      -0.000019       0.000019      -0.000003
---------------------------------------------------
 Number of fixed atoms: 0
 Gradient time:  CPU 520.86 s  wall 26.90 s
 Geometry Optimization Parameters
   NAtoms,    NIC,     NZ,  NCons,   NDum,   NFix, NCnnct, MaxDiis
       14     203       0       0       0       0       0       0

 Cartesian Hessian Update
 Hessian updated using BFGS update


** GEOMETRY OPTIMIZATION IN DELOCALIZED INTERNAL COORDINATES **
   Searching for a Minimum

   Optimization Cycle:   3

                       Coordinates (Angstroms)
     ATOM                X               Y               Z
      1  O         4.1799246247   -3.1473587488    0.1884836339
      2  C         4.3847171492   -2.0069926605    0.1545400742
      3  O         4.6249050435   -0.8727582388    0.1235246193
      4  O         1.6521613323   -1.2873963523   -0.1052870254
      5  O        -0.8308772038    2.5275797085   -0.1080757543
      6  C        -1.9193756087    2.7709418481    0.0245056368
      7  O        -3.0667194239    3.1509880228    0.1762565478
      8  C         0.3133272092   -0.7875997598   -0.1048069018
      9  C         1.4531270529    0.1268988421   -0.1067308776
     10  H        -3.7817519502    2.4506274947    0.1807270187
     11  H        -0.2374629614   -0.9576003186   -1.0265914732
     12  H        -0.2360182988   -0.9553823648    0.8182922424
     13  H         1.7373382232    0.6289720346    0.8148621833
     14  H         1.7359093370    0.6272550214   -1.0296999266
   Point Group: c1    Number of degrees of freedom:    36


   Energy is   -531.344093746

 Hessian updated using BFGS update

 36 Hessian modes will be used to form the next step
  Hessian Eigenvalues:
     0.000010    0.000043    0.000094    0.000220    0.000349    0.000636
     0.000880    0.001168    0.001760    0.003258    0.008225    0.009014
     0.012342    0.012799    0.014462    0.016925    0.018630    0.020717
     0.022021    0.022737    0.026607    0.035944    0.104255    0.112192
     0.121577    0.142682    0.243780    0.258256    0.281458    0.289679
     0.355240    0.401502    0.800156    0.897052    1.130735    1.337557
**WARNING** Magnitude of eigenvalue   1 too small.  Replaced by     0.000100
**WARNING** Magnitude of eigenvalue   2 too small.  Replaced by     0.000100
**WARNING** Magnitude of eigenvalue   3 too small.  Replaced by     0.000100

 Minimum search - taking simple RFO step
 Searching for Lamda that Minimizes Along All modes
 Value Taken    Lamda =  -0.00000127
 Step Taken.  Stepsize is  0.072579

                             Maximum     Tolerance    Cnvgd?
         Gradient           0.000032      0.000300     YES
         Displacement       0.031984      0.001200      NO
         Energy change     -0.000004      0.000001      NO


 New Cartesian Coordinates Obtained by Inverse Iteration

 Displacement from previous Coordinates is:  0.077099
 ----------------------------------------------------------------
             Standard Nuclear Orientation (Angstroms)
    I     Atom           X                Y                Z
 ----------------------------------------------------------------
    1      O       4.1712271795    -3.1562385377     0.1998843533
    2      C       4.3844203556    -2.0177777943     0.1553095852
    3      O       4.6330917865    -0.8856509879     0.1137096543
    4      O       1.6571532799    -1.2819956910    -0.1018112096
    5      O      -0.8400732524     2.5262831195    -0.1056926170
    6      C      -1.9286236660     2.7693813293     0.0269577646
    7      O      -3.0760478912     3.1491387622     0.1788238902
    8      C       0.3185675202    -0.7818118052    -0.1074051817
    9      C       1.4587592415     0.1323382909    -0.1080819702
   10      H      -3.7909336755     2.4486257367     0.1830546612
   11      H      -0.2291402043    -0.9543596430    -1.0305456289
   12      H      -0.2340220213    -0.9466492831     0.8142734138
   13      H       1.7397897322     0.6370621379     0.8130189506
   14      H       1.7450361406     0.6298288944    -1.0314956684
 ----------------------------------------------------------------
 Nuclear Repulsion Energy =         372.97852860 hartrees
 There are       34 alpha and       34 beta electrons
 Discretize the solute cavity surface with Lebedev spheres
	Using 110 Lebedev grid points for each H atom
	Using 194 Lebedev grid points for other atoms
	Atomic van der Waals radii will be scaled by 1.20
 Remove points where switching function is < 1.0e-08
 Keep 1143 surface tesserae and discard 1153 interior tesserae
 Molecular Surface Area = 241.520 Angst**2
 Applying Cartesian multipole field
    Component          Value
    ---------          -----
     (2,0,0)        1.00000E-11
     (0,2,0)        2.00000E-11
     (0,0,2)       -3.00000E-11
 Nucleus-field energy     =     0.0000000427 hartrees
 Requested basis set is def2-TZVPPD
 There are 157 shells and 433 basis functions
 A cutoff of  1.0D-14 yielded  10211 shell pairs
 There are     76741 function pairs (     98027 Cartesian)
 Smallest overlap matrix eigenvalue = 5.67E-06
 Guess from superposition of atomic densities
 Warning:  Energy on first SCF cycle will be non-variational
 SAD guess density has 68.075651 electrons

 -----------------------------------------------------------------------
  General SCF calculation program by
  Eric Jon Sundstrom, Paul Horn, Yuezhi Mao, Dmitri Zuev, Alec White,
  David Stuck, Shaama M.S., Shane Yost, Joonho Lee, David Small,
  Daniel Levine, Susi Lehtola, Hugh Burton, Evgeny Epifanovsky,
  Bang C. Huynh
 -----------------------------------------------------------------------
 Exchange:     0.1670 Hartree-Fock + 1.0000 wB97X-V + LR-HF
 Correlation:  1.0000 wB97X-V
 Using SG-3 standard quadrature grid
 Nonlocal Correlation:  VV10 with C = 0.0100 and b = 6.00 and scale = 1.00000
 Grid used for NLC:  SG-1 standard quadrature
 
 Citation of the SMD model:
 Marenich, A.V.; Cramer, C.J.; Truhlar, D.G.
 J. Phys. Chem. B 2009, 113, 6378-6396.
 iSolventCode=           0
 Solvent: other                                                           
 
 vradii
            1           2           3           4           5           6
    1   2.2940000   1.8500000   2.2940000   2.2940000   2.2940000   1.8500000
            7           8           9          10          11          12
    1   2.2940000   1.8500000   1.8500000   1.2000000   1.2000000   1.2000000
           13          14
    1   1.2000000   1.2000000
 using 32 threads for integral computing
 -------------------------------------------------------
 OpenMP Integral computing Module                
 Release: version 1.0, May 2013, Q-Chem Inc. Pittsburgh 
 -------------------------------------------------------
 using 32 threads for integral computing
 -------------------------------------------------------
 OpenMP Integral computing Module                
 Release: version 1.0, May 2013, Q-Chem Inc. Pittsburgh 
 -------------------------------------------------------
 -------------------------------------------------------
 OpenMP BLAS3 based DFT computing Module                
 Release: version 1.0, May 2013, Q-Chem Inc. Pittsburgh 
 -------------------------------------------------------
 -------------------------------------------------------
 OpenMP BLAS3 based DFT computing Module                
 Release: version 1.0, May 2013, Q-Chem Inc. Pittsburgh 
 -------------------------------------------------------
 -------------------------------------------------------
 OpenMP BLAS3 based DFT computing Module                
 Release: version 1.0, May 2013, Q-Chem Inc. Pittsburgh 
 -------------------------------------------------------
 A restricted SCF calculation will be
 performed using DIIS
 SCF converges when DIIS error is below 1.0e-08
 ---------------------------------------
  Cycle       Energy         DIIS error
 ---------------------------------------
    1    -538.4193140176      2.55e-02  
    2    -530.1227375259      9.01e-03  
    3    -530.2813899837      8.31e-03  
    4    -531.3259920892      9.22e-04  
    5    -531.3365656676      4.93e-04  
    6    -531.3401564897      8.22e-05  
    7    -531.3402739184      3.12e-05  
    8    -531.3402902169      1.12e-05  
    9    -531.3402931211      2.54e-06  
   10    -531.3402933503      1.21e-06  
   11    -531.3402933876      3.89e-07  
   12    -531.3402933939      1.52e-07  
   13    -531.3402933949      5.07e-08  
   14    -531.3402933950      3.66e-08  
   15    -531.3402933950      6.03e-09  Convergence criterion met
 ---------------------------------------
 SCF time:   CPU 2791.98s  wall 115.00s 
(3)  G-ENP(liq) elect-nuc-pol free energy of system     -531.340293395 a.u.
(4)  G-CDS(liq) cavity-dispersion-solvent structure 
     free energy                                               -2.3845 kcal/mol
(6)  G-S(liq) free energy of system                     -531.344093300 a.u.
 SCF   energy in the final basis set =     -531.3402933950
 Total energy in the final basis set =     -531.3440932997
 
 --------------------------------------------------------------
 
                    Orbital Energies (a.u.)
 --------------------------------------------------------------
 
 Alpha MOs
 -- Occupied --
-19.4651 -19.4362 -19.2884 -19.2882 -19.2354 -10.6099 -10.4549 -10.3228
-10.3220  -1.4473  -1.4062  -1.2909  -1.2467  -1.2136  -0.9396  -0.8107
 -0.7853  -0.7669  -0.7665  -0.7607  -0.6801  -0.6560  -0.6364  -0.6351
 -0.6335  -0.6318  -0.6242  -0.5954  -0.5092  -0.4900  -0.4758  -0.4749
 -0.4276  -0.3905
 -- Virtual --
 -0.0328  -0.0071   0.0021   0.0447   0.0630   0.0723   0.0794   0.0802
  0.0878   0.0949   0.1047   0.1088   0.1183   0.1203   0.1269   0.1289
  0.1322   0.1358   0.1378   0.1427   0.1527   0.1619   0.1689   0.1725
  0.1806   0.1826   0.1932   0.1999   0.2148   0.2223   0.2283   0.2378
  0.2417   0.2546   0.2559   0.2617   0.2670   0.2743   0.2838   0.2956
  0.3038   0.3061   0.3162   0.3190   0.3204   0.3278   0.3328   0.3388
  0.3441   0.3472   0.3656   0.3668   0.3712   0.3750   0.3821   0.3876
  0.3931   0.3966   0.4004   0.4056   0.4080   0.4129   0.4213   0.4288
  0.4347   0.4375   0.4427   0.4515   0.4600   0.4631   0.4646   0.4803
  0.4880   0.4927   0.4980   0.4995   0.5059   0.5136   0.5313   0.5347
  0.5391   0.5502   0.5524   0.5557   0.5689   0.5737   0.5823   0.5889
  0.5957   0.5994   0.6042   0.6048   0.6229   0.6301   0.6422   0.6592
  0.6717   0.6783   0.6908   0.6980   0.7135   0.7211   0.7291   0.7381
  0.7578   0.7734   0.7800   0.7847   0.7880   0.7901   0.7928   0.8036
  0.8076   0.8139   0.8328   0.8362   0.8654   0.8795   0.8811   0.8933
  0.8981   0.9077   0.9128   0.9257   0.9372   0.9410   0.9571   0.9701
  0.9830   0.9907   0.9922   0.9948   1.0022   1.0142   1.0194   1.0287
  1.0428   1.0680   1.0848   1.0976   1.1174   1.1257   1.1306   1.1514
  1.1722   1.1955   1.2034   1.2084   1.2117   1.2268   1.2395   1.2688
  1.2777   1.2858   1.2878   1.2986   1.3180   1.3392   1.3444   1.3541
  1.3736   1.3847   1.4078   1.4329   1.4504   1.5115   1.5148   1.5588
  1.6335   1.6694   1.6865   1.7016   1.7138   1.7164   1.7316   1.7532
  1.7565   1.7739   1.7876   1.8024   1.8209   1.8313   1.8473   1.8798
  1.8881   1.9011   1.9058   1.9142   1.9188   1.9366   1.9515   1.9763
  1.9819   2.0237   2.0304   2.0653   2.0886   2.0953   2.1044   2.1317
  2.1714   2.2121   2.2224   2.2510   2.3155   2.3448   2.3748   2.3850
  2.4271   2.4626   2.4892   2.5019   2.5120   2.5418   2.5744   2.5771
  2.6369   2.7168   2.7245   2.7475   2.7605   2.7773   2.7999   2.8178
  2.8223   2.8805   2.9191   2.9446   2.9476   2.9664   2.9683   2.9736
  2.9819   2.9914   3.0018   3.0137   3.0293   3.0400   3.0471   3.0512
  3.0660   3.0752   3.1056   3.1242   3.1335   3.1374   3.1539   3.1575
  3.1767   3.1984   3.2052   3.2174   3.2291   3.2907   3.2945   3.3015
  3.3286   3.3415   3.3564   3.3595   3.3904   3.4211   3.4363   3.4592
  3.4836   3.5127   3.5157   3.5282   3.5286   3.5645   3.5828   3.6237
  3.6369   3.6807   3.6926   3.7230   3.7461   3.7625   3.7719   3.7989
  3.8033   3.8157   3.8178   3.8391   3.8753   3.8977   3.9640   4.0002
  4.0394   4.0421   4.0484   4.0614   4.1099   4.1473   4.2016   4.2163
  4.2921   4.3044   4.3253   4.3736   4.3803   4.3870   4.3937   4.4352
  4.4850   4.6390   4.6582   4.7056   4.7357   4.7807   4.7962   4.8113
  4.9613   4.9842   4.9860   5.0636   5.0921   5.1021   5.1167   5.1203
  5.1775   5.1881   5.2024   5.2419   5.2459   5.2524   5.2545   5.2981
  5.3075   5.3246   5.3283   5.3531   5.4172   5.4766   5.5546   5.5811
  5.6216   5.6555   5.6818   5.7132   5.7143   5.7333   5.7743   5.8870
  5.9328   5.9391   5.9739   6.0699   6.0713   6.1560   6.1916   6.2540
  6.2625   6.3274   6.3301   6.4126   6.4159   6.4245   6.4289   6.4515
  6.4839   6.5224   6.5391   6.5436   6.5552   6.5781   6.6004   6.6188
  6.6672   6.7877   6.8587   6.8647   6.8815   6.9595   6.9798   7.0427
  7.0458   7.0529   7.0724   7.1002   7.2123   7.2330   7.2927   7.3238
  7.3348   7.4951   7.5979   7.6553   7.8738   7.8763  23.6663  23.6980
 24.0182  24.3338  44.0683  44.1531  44.3503  44.4055  44.4480
 --------------------------------------------------------------
 
          Ground-State Mulliken Net Atomic Charges

     Atom                 Charge (a.u.)
  ----------------------------------------
      1 O                    -0.304280
      2 C                     0.629052
      3 O                    -0.309799
      4 O                    -0.349412
      5 O                     0.021207
      6 C                     0.705233
      7 O                    -0.106706
      8 C                    -0.050422
      9 C                     0.175804
     10 H                     0.369836
     11 H                     0.062855
     12 H                     0.058908
     13 H                     0.048718
     14 H                     0.049005
  ----------------------------------------
  Sum of atomic charges =     1.000000

  Building new vdw surfaces
         Merz-Kollman RESP Net Atomic Charges

     Atom                 Charge (a.u.)
  ----------------------------------------
      1 O                    -0.390702
      2 C                     0.741470
      3 O                    -0.375544
      4 O                    -0.224009
      5 O                    -0.109114
      6 C                     0.791803
      7 O                    -0.211895
      8 C                    -0.240928
      9 C                    -0.261445
     10 H                     0.523101
     11 H                     0.183491
     12 H                     0.183909
     13 H                     0.194931
     14 H                     0.194931
  ----------------------------------------
  Sum of atomic charges =     1.000000

  Related Dipole Moment =    20.5935 (X -14.9885 Y 14.1169 Z  0.3848)

 -----------------------------------------------------------------
                    Cartesian Multipole Moments
 -----------------------------------------------------------------
    Charge (ESU x 10^10)
                 4.8032
    Dipole Moment (Debye)
         X     -14.9780      Y      14.1342      Z       0.3983
       Tot      20.5980
    Quadrupole Moments (Debye-Ang)
        XX     -11.5402     XY     -27.4636     YY     -23.2534
        XZ      -1.3987     YZ       1.0349     ZZ     -45.8949
    Octopole Moments (Debye-Ang^2)
       XXX    -332.7204    XXY     104.1619    XYY    -162.6095
       YYY     121.9986    XXZ       4.6141    XYZ      -3.0239
       YYZ       0.0569    XZZ     -57.9513    YZZ       2.5774
       ZZZ      -3.1641
    Hexadecapole Moments (Debye-Ang^3)
      XXXX   -1962.0879   XXXY     331.9381   XXYY    -454.3810
      XYYY     592.4187   YYYY   -1148.0466   XXXZ     -38.7931
      XXYZ      16.3350   XYYZ     -17.6550   YYYZ      17.7079
      XXZZ    -403.2894   XYZZ     223.9134   YYZZ    -216.5996
      XZZZ     -16.0607   YZZZ       6.5500   ZZZZ     -57.0726
 -----------------------------------------------------------------
 Calculating analytic gradient of the SCF energy
 Gradient of CDS energy
            1           2           3           4           5           6
    1  -0.0007201   0.0012301  -0.0006552  -0.0000298   0.0001020   0.0006277
    2  -0.0000335  -0.0002594   0.0002366   0.0004247  -0.0001167   0.0002403
    3  -0.0000556   0.0001121  -0.0000705   0.0000253   0.0000016  -0.0000399
            7           8           9          10          11          12
    1  -0.0003427  -0.0011172   0.0010986  -0.0003185   0.0001430   0.0001442
    2  -0.0006457  -0.0010589   0.0009578   0.0004128   0.0000450   0.0000430
    3  -0.0000279   0.0000017  -0.0000203   0.0000718   0.0002410  -0.0002405
           13          14
    1  -0.0000874  -0.0000747
    2  -0.0001165  -0.0001298
    3  -0.0002396   0.0002409
 Gradient of SCF Energy
            1           2           3           4           5           6
    1  -0.0062641  -0.0024028   0.0077861   0.0046961   0.1554780  -0.0490652
    2  -0.0321447  -0.0002215   0.0332797  -0.0072630  -0.0264287   0.0019280
    3   0.0010950   0.0002037  -0.0014215   0.0001191  -0.0181800   0.0043722
            7           8           9          10          11          12
    1  -0.0457440   0.0270391  -0.0122105  -0.0590370  -0.0178646  -0.0185694
    2   0.0671766   0.0195718  -0.0281378  -0.0435568  -0.0087032  -0.0071055
    3   0.0118616   0.0008954  -0.0003666   0.0017979  -0.0331625   0.0330123
           13          14
    1   0.0081031   0.0080552
    2   0.0160742   0.0155310
    3   0.0303452  -0.0305719
 Max gradient component =       1.555E-01
 RMS gradient           =       3.437E-02
 Computing fast CPCM-SWIG gradient
 Updating gradient with PCM contributions...
 -- total gradient after adding PCM contribution --
---------------------------------------------------
  Atom         X              Y              Z     
---------------------------------------------------
   1       0.000004      -0.000005      -0.000005
   2      -0.000011      -0.000058       0.000005
   3       0.000031       0.000055      -0.000012
   4      -0.000003       0.000009       0.000001
   5      -0.000013       0.000004       0.000007
   6      -0.000003      -0.000002      -0.000001
   7      -0.000002      -0.000003       0.000001
   8      -0.000007      -0.000010       0.000009
   9       0.000034       0.000019       0.000009
  10      -0.000002      -0.000004       0.000001
  11       0.000002       0.000001       0.000001
  12       0.000004      -0.000001      -0.000011
  13      -0.000045       0.000004      -0.000014
  14       0.000011      -0.000010       0.000008
---------------------------------------------------
 Number of fixed atoms: 0
 Gradient time:  CPU 512.20 s  wall 26.52 s
 Geometry Optimization Parameters
   NAtoms,    NIC,     NZ,  NCons,   NDum,   NFix, NCnnct, MaxDiis
       14     203       0       0       0       0       0       0

 Cartesian Hessian Update
 Hessian updated using BFGS update


** GEOMETRY OPTIMIZATION IN DELOCALIZED INTERNAL COORDINATES **
   Searching for a Minimum

   Optimization Cycle:   4

                       Coordinates (Angstroms)
     ATOM                X               Y               Z
      1  O         4.1712271795   -3.1562385377    0.1998843533
      2  C         4.3844203556   -2.0177777943    0.1553095852
      3  O         4.6330917865   -0.8856509879    0.1137096543
      4  O         1.6571532799   -1.2819956910   -0.1018112096
      5  O        -0.8400732524    2.5262831195   -0.1056926170
      6  C        -1.9286236660    2.7693813293    0.0269577646
      7  O        -3.0760478912    3.1491387622    0.1788238902
      8  C         0.3185675202   -0.7818118052   -0.1074051817
      9  C         1.4587592415    0.1323382909   -0.1080819702
     10  H        -3.7909336755    2.4486257367    0.1830546612
     11  H        -0.2291402043   -0.9543596430   -1.0305456289
     12  H        -0.2340220213   -0.9466492831    0.8142734138
     13  H         1.7397897322    0.6370621379    0.8130189506
     14  H         1.7450361406    0.6298288944   -1.0314956684
   Point Group: c1    Number of degrees of freedom:    36


   Energy is   -531.344093300

 Hessian updated using BFGS update

 36 Hessian modes will be used to form the next step
  Hessian Eigenvalues:
     0.000010    0.000075    0.000092    0.000227    0.000353    0.000685
     0.000985    0.001187    0.001787    0.003704    0.008270    0.008971
     0.012327    0.012884    0.014470    0.016993    0.018660    0.020717
     0.022010    0.022725    0.026616    0.035936    0.104275    0.112191
     0.121166    0.142919    0.243770    0.258538    0.281492    0.289707
     0.355244    0.401502    0.800156    0.898096    1.131371    1.337557
**WARNING** Magnitude of eigenvalue   1 too small.  Replaced by     0.000100
**WARNING** Magnitude of eigenvalue   2 too small.  Replaced by     0.000100
**WARNING** Magnitude of eigenvalue   3 too small.  Replaced by     0.000100

 Minimum search - taking simple RFO step
 Searching for Lamda that Minimizes Along All modes
 Value Taken    Lamda =   0.00000000
 Step Taken.  Stepsize is  0.040433

                             Maximum     Tolerance    Cnvgd?
         Gradient           0.000038      0.000300     YES
         Displacement       0.018188      0.001200      NO
         Energy change      0.000000      0.000001     YES


                       Distance Matrix (Angstroms)
             O (  1)   C (  2)   O (  3)   O (  4)   O (  5)   C (  6)
   C (  2)  1.159108
   O (  3)  2.318688  1.159862
   O (  4)  3.150297  2.836454  3.009942
   O (  5)  7.582715  6.929065  6.453291  4.554025
   C (  6)  8.505942  7.923881  7.511518  5.411842  1.123225
   O (  7)  9.606312  9.075030  8.701414  6.489754  2.338478  1.218138
   C (  8)  4.536002  4.257674  4.321434  1.428995  3.505131  4.204628
   C (  9)  4.273998  3.640311  3.340940  1.428195  3.318977  4.294950
   H ( 10)  9.737083  9.315897  9.060155  6.609110  2.965971  1.896167
   H ( 11)  5.072027  4.880784  4.995532  2.127909  3.652871  4.227624
   H ( 12)  4.966486  4.786602  4.917653  2.127960  3.643473  4.159378
   H ( 13)  4.547192  3.804580  3.343484  2.127563  3.326993  4.315314
   H ( 14)  4.662296  3.922331  3.456738  2.127701  3.337131  4.381071
             O (  7)   C (  8)   C (  9)   H ( 10)   H ( 11)   H ( 12)
   C (  8)  5.201703
   C (  9)  5.454161  1.461406
   H ( 10)  1.000899  5.235274  5.745365
   H ( 11)  5.138692  1.087173  2.209266  5.073412
   H ( 12)  5.025573  1.087207  2.209177  4.957615  1.844842
   H ( 13)  5.468549  2.209130  1.087268  5.853847  3.131779  2.530628
   H ( 14)  5.572670  2.209408  1.087265  5.952320  2.531210  3.131903
             H ( 13)
   H ( 14)  1.844536
 
 Final energy is   -531.344093299684     


 ******************************
 **  OPTIMIZATION CONVERGED  **
 ******************************

                       Coordinates (Angstroms)
     ATOM                X               Y               Z
      1  O         4.1712271795   -3.1562385377    0.1998843533
      2  C         4.3844203556   -2.0177777943    0.1553095852
      3  O         4.6330917865   -0.8856509879    0.1137096543
      4  O         1.6571532799   -1.2819956910   -0.1018112096
      5  O        -0.8400732524    2.5262831195   -0.1056926170
      6  C        -1.9286236660    2.7693813293    0.0269577646
      7  O        -3.0760478912    3.1491387622    0.1788238902
      8  C         0.3185675202   -0.7818118052   -0.1074051817
      9  C         1.4587592415    0.1323382909   -0.1080819702
     10  H        -3.7909336755    2.4486257367    0.1830546612
     11  H        -0.2291402043   -0.9543596430   -1.0305456289
     12  H        -0.2340220213   -0.9466492831    0.8142734138
     13  H         1.7397897322    0.6370621379    0.8130189506
     14  H         1.7450361406    0.6298288944   -1.0314956684

Z-matrix Print:
$molecule
1 1
O 
C  1 1.428195
H  2 1.087265 1 114.851910
H  2 1.087268 1 114.839819 3 -138.380624 0
C  1 1.428995 2 61.525417 3 -110.822246 0
H  5 1.087173 1 114.814878 2 110.817447 0
H  5 1.087207 1 114.816961 2 -110.803727 0
C  1 2.836454 2 113.007257 3 74.603549 0
O  8 1.159108 1 94.670127 2 176.265433 0
O  8 1.159862 1 87.116461 2 -3.744163 0
O  2 3.318977 1 144.145004 3 111.359490 0
C  11 1.123225 2 145.837028 1 11.591626 0
O  12 1.218138 11 174.305861 2 165.817309 0
H  13 1.000899 12 117.072516 11 -179.937966 0
$end

 
 --------------------------------------------------------------
 
                    Orbital Energies (a.u.)
 --------------------------------------------------------------
 
 Alpha MOs
 -- Occupied --
-19.4651 -19.4362 -19.2884 -19.2882 -19.2354 -10.6099 -10.4549 -10.3228
-10.3220  -1.4473  -1.4062  -1.2909  -1.2467  -1.2136  -0.9396  -0.8107
 -0.7853  -0.7669  -0.7665  -0.7607  -0.6801  -0.6560  -0.6364  -0.6351
 -0.6335  -0.6318  -0.6242  -0.5954  -0.5092  -0.4900  -0.4758  -0.4749
 -0.4276  -0.3905
 -- Virtual --
 -0.0328  -0.0071   0.0021   0.0447   0.0630   0.0723   0.0794   0.0802
  0.0878   0.0949   0.1047   0.1088   0.1183   0.1203   0.1269   0.1289
  0.1322   0.1358   0.1378   0.1427   0.1527   0.1619   0.1689   0.1725
  0.1806   0.1826   0.1932   0.1999   0.2148   0.2223   0.2283   0.2378
  0.2417   0.2546   0.2559   0.2617   0.2670   0.2743   0.2838   0.2956
  0.3038   0.3061   0.3162   0.3190   0.3204   0.3278   0.3328   0.3388
  0.3441   0.3472   0.3656   0.3668   0.3712   0.3750   0.3821   0.3876
  0.3931   0.3966   0.4004   0.4056   0.4080   0.4129   0.4213   0.4288
  0.4347   0.4375   0.4427   0.4515   0.4600   0.4631   0.4646   0.4803
  0.4880   0.4927   0.4980   0.4995   0.5059   0.5136   0.5313   0.5347
  0.5391   0.5502   0.5524   0.5557   0.5689   0.5737   0.5823   0.5889
  0.5957   0.5994   0.6042   0.6048   0.6229   0.6301   0.6422   0.6592
  0.6717   0.6783   0.6908   0.6980   0.7135   0.7211   0.7291   0.7381
  0.7578   0.7734   0.7800   0.7847   0.7880   0.7901   0.7928   0.8036
  0.8076   0.8139   0.8328   0.8362   0.8654   0.8795   0.8811   0.8933
  0.8981   0.9077   0.9128   0.9257   0.9372   0.9410   0.9571   0.9701
  0.9830   0.9907   0.9922   0.9948   1.0022   1.0142   1.0194   1.0287
  1.0428   1.0680   1.0848   1.0976   1.1174   1.1257   1.1306   1.1514
  1.1722   1.1955   1.2034   1.2084   1.2117   1.2268   1.2395   1.2688
  1.2777   1.2858   1.2878   1.2986   1.3180   1.3392   1.3444   1.3541
  1.3736   1.3847   1.4078   1.4329   1.4504   1.5115   1.5148   1.5588
  1.6335   1.6694   1.6865   1.7016   1.7138   1.7164   1.7316   1.7532
  1.7565   1.7739   1.7876   1.8024   1.8209   1.8313   1.8473   1.8798
  1.8881   1.9011   1.9058   1.9142   1.9188   1.9366   1.9515   1.9763
  1.9819   2.0237   2.0304   2.0653   2.0886   2.0953   2.1044   2.1317
  2.1714   2.2121   2.2224   2.2510   2.3155   2.3448   2.3748   2.3850
  2.4271   2.4626   2.4892   2.5019   2.5120   2.5418   2.5744   2.5771
  2.6369   2.7168   2.7245   2.7475   2.7605   2.7773   2.7999   2.8178
  2.8223   2.8805   2.9191   2.9446   2.9476   2.9664   2.9683   2.9736
  2.9819   2.9914   3.0018   3.0137   3.0293   3.0400   3.0471   3.0512
  3.0660   3.0752   3.1056   3.1242   3.1335   3.1374   3.1539   3.1575
  3.1767   3.1984   3.2052   3.2174   3.2291   3.2907   3.2945   3.3015
  3.3286   3.3415   3.3564   3.3595   3.3904   3.4211   3.4363   3.4592
  3.4836   3.5127   3.5157   3.5282   3.5286   3.5645   3.5828   3.6237
  3.6369   3.6807   3.6926   3.7230   3.7461   3.7625   3.7719   3.7989
  3.8033   3.8157   3.8178   3.8391   3.8753   3.8977   3.9640   4.0002
  4.0394   4.0421   4.0484   4.0614   4.1099   4.1473   4.2016   4.2163
  4.2921   4.3044   4.3253   4.3736   4.3803   4.3870   4.3937   4.4352
  4.4850   4.6390   4.6582   4.7056   4.7357   4.7807   4.7962   4.8113
  4.9613   4.9842   4.9860   5.0636   5.0921   5.1021   5.1167   5.1203
  5.1775   5.1881   5.2024   5.2419   5.2459   5.2524   5.2545   5.2981
  5.3075   5.3246   5.3283   5.3531   5.4172   5.4766   5.5546   5.5811
  5.6216   5.6555   5.6818   5.7132   5.7143   5.7333   5.7743   5.8870
  5.9328   5.9391   5.9739   6.0699   6.0713   6.1560   6.1916   6.2540
  6.2625   6.3274   6.3301   6.4126   6.4159   6.4245   6.4289   6.4515
  6.4839   6.5224   6.5391   6.5436   6.5552   6.5781   6.6004   6.6188
  6.6672   6.7877   6.8587   6.8647   6.8815   6.9595   6.9798   7.0427
  7.0458   7.0529   7.0724   7.1002   7.2123   7.2330   7.2927   7.3238
  7.3348   7.4951   7.5979   7.6553   7.8738   7.8763  23.6663  23.6980
 24.0182  24.3338  44.0683  44.1531  44.3503  44.4055  44.4480
 --------------------------------------------------------------
 
          Ground-State Mulliken Net Atomic Charges

     Atom                 Charge (a.u.)
  ----------------------------------------
      1 O                    -0.304280
      2 C                     0.629052
      3 O                    -0.309799
      4 O                    -0.349412
      5 O                     0.021207
      6 C                     0.705233
      7 O                    -0.106706
      8 C                    -0.050422
      9 C                     0.175804
     10 H                     0.369836
     11 H                     0.062855
     12 H                     0.058908
     13 H                     0.048718
     14 H                     0.049005
  ----------------------------------------
  Sum of atomic charges =     1.000000

         Merz-Kollman RESP Net Atomic Charges

     Atom                 Charge (a.u.)
  ----------------------------------------
      1 O                    -0.390702
      2 C                     0.741470
      3 O                    -0.375544
      4 O                    -0.224009
      5 O                    -0.109114
      6 C                     0.791803
      7 O                    -0.211895
      8 C                    -0.240928
      9 C                    -0.261445
     10 H                     0.523101
     11 H                     0.183491
     12 H                     0.183909
     13 H                     0.194931
     14 H                     0.194931
  ----------------------------------------
  Sum of atomic charges =     1.000000

  Related Dipole Moment =    20.5935 (X -14.9885 Y 14.1169 Z  0.3848)

 -----------------------------------------------------------------
                    Cartesian Multipole Moments
 -----------------------------------------------------------------
    Charge (ESU x 10^10)
                 4.8032
    Dipole Moment (Debye)
         X     -14.9780      Y      14.1342      Z       0.3983
       Tot      20.5980
    Quadrupole Moments (Debye-Ang)
        XX     -11.5402     XY     -27.4636     YY     -23.2534
        XZ      -1.3987     YZ       1.0349     ZZ     -45.8949
    Octopole Moments (Debye-Ang^2)
       XXX    -332.7204    XXY     104.1619    XYY    -162.6095
       YYY     121.9986    XXZ       4.6141    XYZ      -3.0239
       YYZ       0.0569    XZZ     -57.9513    YZZ       2.5774
       ZZZ      -3.1641
    Hexadecapole Moments (Debye-Ang^3)
      XXXX   -1962.0879   XXXY     331.9381   XXYY    -454.3810
      XYYY     592.4187   YYYY   -1148.0466   XXXZ     -38.7931
      XXYZ      16.3350   XYYZ     -17.6550   YYYZ      17.7079
      XXZZ    -403.2894   XYZZ     223.9134   YYZZ    -216.5996
      XZZZ     -16.0607   YZZZ       6.5500   ZZZZ     -57.0726
 -----------------------------------------------------------------
Archival summary:
1\1\nid01744\OPT\ProcedureUnspecified\BasisUnspecified\545(1+,1)\sblau\WedJul1716:53:422019WedJul1716:53:422019\0\\#,OPT,ProcedureUnspecified,BasisUnspecified,\\1,1\O\C,1,1.42819\H,2,1.08726,1,114.852\H,2,1.08727,1,114.84,3,-138.381,0\C,1,1.429,2,61.5254,3,-110.822,0\H,5,1.08717,1,114.815,2,110.817,0\H,5,1.08721,1,114.817,2,-110.804,0\C,1,2.83645,2,113.007,3,74.6035,0\O,8,1.15911,1,94.6701,2,176.265,0\O,8,1.15986,1,87.1165,2,-3.74416,0\O,2,3.31898,1,144.145,3,111.359,0\C,11,1.12323,2,145.837,1,11.5916,0\O,12,1.21814,11,174.306,2,165.817,0\H,13,1.0009,12,117.073,11,-179.938,0\\\@

 Total job time:  578.50s(wall), 13533.66s(cpu) 
 Wed Jul 17 16:53:42 2019

        *************************************************************
        *                                                           *
        *  Thank you very much for using Q-Chem.  Have a nice day.  *
        *                                                           *
        *************************************************************


