
Running Job 1 of 1 mol.qin
qchem mol.qin_22779.0 /tmp/qchem381281140/chain_scratch/ 0
/global/project/projectdirs/jcesr/qchem_sblau/qc521_exe/qcprog.LINUX_Ix86_64.20190628.exe mol.qin_22779.0 /tmp/qchem381281140/chain_scratch/
                  Welcome to Q-Chem
     A Quantum Leap Into The Future Of Chemistry


 Q-Chem 5.2, Q-Chem, Inc., Pleasanton, CA (2019)

 License issued to: National Energy Research Scientific Computing Center

 Yihan Shao,  Zhengting Gan,  E. Epifanovsky,  A. T. B. Gilbert,  M. Wormit,  
 J. Kussmann,  A. W. Lange,  A. Behn,  Jia Deng,  Xintian Feng,  D. Ghosh,  
 M. Goldey,  P. R. Horn,  L. D. Jacobson,  I. Kaliman,  T. Kus,  A. Landau,  
 Jie Liu,  E. I. Proynov,  R. M. Richard,  R. P. Steele,  E. J. Sundstrom,  
 H. L. Woodcock III,  P. M. Zimmerman,  D. Zuev,  B. Albrecht,  E. Alguire,  
 S. A. Baeppler,  D. Barton,  Z. Benda,  Y. A. Bernard,  E. J. Berquist,  
 K. B. Bravaya,  H. Burton,  D. Casanova,  Chun-Min Chang,  Yunqing Chen,  
 A. Chien,  K. D. Closser,  M. P. Coons,  S. Coriani,  S. Dasgupta,  
 A. L. Dempwolff,  M. Diedenhofen,  Hainam Do,  R. G. Edgar,  Po-Tung Fang,  
 S. Faraji,  S. Fatehi,  Qingguo Feng,  K. D. Fenk,  J. Fosso-Tande,  
 J. Gayvert,  Qinghui Ge,  A. Ghysels,  G. Gidofalvi,  J. Gomes,  
 J. Gonthier,  A. Gunina,  D. Hait,  M. W. D. Hanson-Heine,  
 P. H. P. Harbach,  A. W. Hauser,  M. F. Herbst,  J. E. Herr,  
 E. G. Hohenstein,  Z. C. Holden,  Kerwin Hui,  B. C. Huynh,  T.-C. Jagau,  
 Hyunjun Ji,  B. Kaduk,  K. Khistyaev,  Jaehoon Kim,  P. Klunzinger,  K. Koh,  
 D. Kosenkov,  L. Koulias,  T. Kowalczyk,  C. M. Krauter,  A. Kunitsa,  
 Ka Un Lao,  A. Laurent,  K. V. Lawler,  Joonho Lee,  D. Lefrancois,  
 S. Lehtola,  D. S. Levine,  Yi-Pei Li,  You-Sheng Lin,  Fenglai Liu,  
 E. Livshits,  A. Luenser,  P. Manohar,  E. Mansoor,  S. F. Manzer,  
 Shan-Ping Mao,  Yuezhi Mao,  N. Mardirossian,  A. V. Marenich,  
 T. Markovich,  L. A. Martinez-Martinez,  S. A. Maurer,  N. J. Mayhall,  
 S. C. McKenzie,  J.-M. Mewes,  P. Morgante,  A. F. Morrison,  
 J. W. Mullinax,  K. Nanda,  T. S. Nguyen-Beck,  R. Olivares-Amaya,  
 J. A. Parkhill,  Zheng Pei,  T. M. Perrine,  F. Plasser,  P. Pokhilko,  
 S. Prager,  A. Prociuk,  E. Ramos,  D. R. Rehn,  F. Rob,  M. Scheurer,  
 M. Schneider,  N. Sergueev,  S. M. Sharada,  S. Sharma,  D. W. Small,  
 T. Stauch,  T. Stein,  Yu-Chuan Su,  A. J. W. Thom,  A. Tkatchenko,  
 T. Tsuchimochi,  N. M. Tubman,  L. Vogt,  M. L. Vidal,  O. Vydrov,  
 M. A. Watson,  J. Wenzel,  M. de Wergifosse,  T. A. Wesolowski,  A. White,  
 J. Witte,  A. Yamada,  Jun Yang,  K. Yao,  S. Yeganeh,  S. R. Yost,  
 Zhi-Qiang You,  A. Zech,  Igor Ying Zhang,  Xing Zhang,  Yan Zhao,  
 Ying Zhu,  B. R. Brooks,  G. K. L. Chan,  C. J. Cramer,  M. S. Gordon,  
 W. J. Hehre,  A. Klamt,  M. W. Schmidt,  C. D. Sherrill,  D. G. Truhlar,  
 A. Aspuru-Guzik,  R. Baer,  A. T. Bell,  N. A. Besley,  Jeng-Da Chai,  
 A. E. DePrince, III,  R. A. DiStasio Jr.,  A. Dreuw,  B. D. Dunietz,  
 T. R. Furlani,  Chao-Ping Hsu,  Yousung Jung,  Jing Kong,  D. S. Lambrecht,  
 WanZhen Liang,  C. Ochsenfeld,  V. A. Rassolov,  L. V. Slipchenko,  
 J. E. Subotnik,  T. Van Voorhis,  J. M. Herbert,  A. I. Krylov,  
 P. M. W. Gill,  M. Head-Gordon

 Contributors to earlier versions of Q-Chem not listed above: 
 R. D. Adamson,  B. Austin,  J. Baker,  G. J. O. Beran,  K. Brandhorst,  
 S. T. Brown,  E. F. C. Byrd,  A. K. Chakraborty,  C.-L. Cheng,  
 Siu Hung Chien,  D. M. Chipman,  D. L. Crittenden,  H. Dachsel,  
 R. J. Doerksen,  A. D. Dutoi,  L. Fusti-Molnar,  W. A. Goddard III,  
 A. Golubeva-Zadorozhnaya,  S. R. Gwaltney,  G. Hawkins,  A. Heyden,  
 S. Hirata,  G. Kedziora,  F. J. Keil,  C. Kelley,  Jihan Kim,  R. A. King,  
 R. Z. Khaliullin,  P. P. Korambath,  W. Kurlancheek,  A. M. Lee,  M. S. Lee,  
 S. V. Levchenko,  Ching Yeh Lin,  D. Liotard,  R. C. Lochan,  I. Lotan,  
 P. E. Maslen,  N. Nair,  D. P. O'Neill,  D. Neuhauser,  E. Neuscamman,  
 C. M. Oana,  R. Olson,  B. Peters,  R. Peverati,  P. A. Pieniazek,  
 Y. M. Rhee,  J. Ritchie,  M. A. Rohrdanz,  E. Rosta,  N. J. Russ,  
 H. F. Schaefer III,  N. E. Schultz,  N. Shenvi,  A. C. Simmonett,  A. Sodt,  
 D. Stuck,  K. S. Thanthiriwatte,  V. Vanovschi,  Tao Wang,  A. Warshel,  
 C. F. Williams,  Q. Wu,  X. Xu,  W. Zhang

 Please cite Q-Chem as follows:
 Y. Shao et al., Mol. Phys. 113, 184-215 (2015)
 DOI: 10.1080/00268976.2014.952696

 Q-Chem 5.2.0 for Intel X86 EM64T Linux

 Parts of Q-Chem use Armadillo 8.300.2 (Tropical Shenanigans).
 http://arma.sourceforge.net/

 Q-Chem begins on Wed Jul 17 13:26:37 2019  

Host: cori09
0

     Scratch files written to /tmp/qchem381281140/chain_scratch//
 Jun2719 |scratch|qcdevops|jenkins|workspace|build_RNUM -1
Processing $rem in /global/common/cori/software/qchem/5.2/config/preferences:
	 MEM_TOTAL  96000 
NAlpha2: 68
NElect   68
Mult     1
Symmetry turned off for PCM/SM12/SMD calculation

Checking the input file for inconsistencies... 	...done.

--------------------------------------------------------------
User input:
--------------------------------------------------------------
$molecule
1 1
O      4.1950273101     -3.1452599080      0.1068380808
C      4.3879990982     -2.0023581909      0.1150265170
O      4.6160114534     -0.8651829983      0.1259158049
O      1.6423327964     -1.2960938573     -0.0588589007
O     -0.8306930824      2.5263581394     -0.1267666672
C     -1.9190699274      2.7710028375      0.0043884721
O     -3.0662768562      3.1520597432      0.1547237560
C      0.3081594866     -0.7845675986     -0.0811767992
C      1.4559952627      0.1199021898     -0.0734453786
H     -3.7822361786      2.4526364528      0.1548662883
H     -0.2307172919     -0.9566557906     -1.0096013456
H     -0.2559943479     -0.9406579754      0.8349820681
H      1.7316382350      0.6266304766      0.8488176499
H      1.7570285674      0.6103610085     -0.9957095484
$end

$rem
job_type = opt
basis = def2-tzvppd
max_scf_cycles = 200
gen_scfman = true
xc_grid = 3
scf_algorithm = diis
resp_charges = true
symmetry = false
sym_ignore = true
method = wb97xv
geom_opt_max_cycles = 100
solvent_method = smd
ideriv = 1
thresh = 14
geom_opt_hessian = read
scf_guess_always = True
$end

$smx
solvent other
$end
--------------------------------------------------------------
 ----------------------------------------------------------------
             Standard Nuclear Orientation (Angstroms)
    I     Atom           X                Y                Z
 ----------------------------------------------------------------
    1      O       4.1950273101    -3.1452599080     0.1068380808
    2      C       4.3879990982    -2.0023581909     0.1150265170
    3      O       4.6160114534    -0.8651829983     0.1259158049
    4      O       1.6423327964    -1.2960938573    -0.0588589007
    5      O      -0.8306930824     2.5263581394    -0.1267666672
    6      C      -1.9190699274     2.7710028375     0.0043884721
    7      O      -3.0662768562     3.1520597432     0.1547237560
    8      C       0.3081594866    -0.7845675986    -0.0811767992
    9      C       1.4559952627     0.1199021898    -0.0734453786
   10      H      -3.7822361786     2.4526364528     0.1548662883
   11      H      -0.2307172919    -0.9566557906    -1.0096013456
   12      H      -0.2559943479    -0.9406579754     0.8349820681
   13      H       1.7316382350     0.6266304766     0.8488176499
   14      H       1.7570285674     0.6103610085    -0.9957095484
 ----------------------------------------------------------------
 Nuclear Repulsion Energy =         373.17846874 hartrees
 There are       34 alpha and       34 beta electrons
 Requested basis set is def2-TZVPPD
 There are 157 shells and 433 basis functions

 Total QAlloc Memory Limit  96000 MB
 Mega-Array Size       188 MB
 MEM_STATIC part       192 MB
 
 Citation of the SMD model:
 Marenich, A.V.; Cramer, C.J.; Truhlar, D.G.
 J. Phys. Chem. B 2009, 113, 6378-6396.
 iSolventCode=           0
 Solvent: other                                                           
 
 vradii
            1           2           3           4           5           6
    1   2.2940000   1.8500000   2.2940000   2.2940000   2.2940000   1.8500000
            7           8           9          10          11          12
    1   2.2940000   1.8500000   1.8500000   1.2000000   1.2000000   1.2000000
           13          14
    1   1.2000000   1.2000000
 Changing PCM_VDW_RADII to SMD_RADIUS
 Discretize the solute cavity surface with Lebedev spheres
	Using 110 Lebedev grid points for each H atom
	Using 194 Lebedev grid points for other atoms
	Atomic van der Waals radii will be scaled by 1.20
 Remove points where switching function is < 1.0e-08
 Keep 1145 surface tesserae and discard 1151 interior tesserae
 Molecular Surface Area = 241.431 Angst**2
 A cutoff of  1.0D-14 yielded  10214 shell pairs
 There are     76770 function pairs (     98060 Cartesian)
 Smallest overlap matrix eigenvalue = 5.64E-06

 Scale SEOQF with 1.000000e-01/1.000000e-01/1.000000e-01

 Standard Electronic Orientation quadrupole field applied
 Nucleus-field energy     =     0.0000000427 hartrees
 Guess from superposition of atomic densities
 Warning:  Energy on first SCF cycle will be non-variational
 SAD guess density has 68.075651 electrons

 -----------------------------------------------------------------------
  General SCF calculation program by
  Eric Jon Sundstrom, Paul Horn, Yuezhi Mao, Dmitri Zuev, Alec White,
  David Stuck, Shaama M.S., Shane Yost, Joonho Lee, David Small,
  Daniel Levine, Susi Lehtola, Hugh Burton, Evgeny Epifanovsky,
  Bang C. Huynh
 -----------------------------------------------------------------------
 Exchange:     0.1670 Hartree-Fock + 1.0000 wB97X-V + LR-HF
 Correlation:  1.0000 wB97X-V
 Using SG-3 standard quadrature grid
 Nonlocal Correlation:  VV10 with C = 0.0100 and b = 6.00 and scale = 1.00000
 Grid used for NLC:  SG-1 standard quadrature
 
 Citation of the SMD model:
 Marenich, A.V.; Cramer, C.J.; Truhlar, D.G.
 J. Phys. Chem. B 2009, 113, 6378-6396.
 iSolventCode=           0
 Solvent: other                                                           
 
 vradii
            1           2           3           4           5           6
    1   2.2940000   1.8500000   2.2940000   2.2940000   2.2940000   1.8500000
            7           8           9          10          11          12
    1   2.2940000   1.8500000   1.8500000   1.2000000   1.2000000   1.2000000
           13          14
    1   1.2000000   1.2000000
 using 32 threads for integral computing
 -------------------------------------------------------
 OpenMP Integral computing Module                
 Release: version 1.0, May 2013, Q-Chem Inc. Pittsburgh 
 -------------------------------------------------------
 using 32 threads for integral computing
 -------------------------------------------------------
 OpenMP Integral computing Module                
 Release: version 1.0, May 2013, Q-Chem Inc. Pittsburgh 
 -------------------------------------------------------
 -------------------------------------------------------
 OpenMP BLAS3 based DFT computing Module                
 Release: version 1.0, May 2013, Q-Chem Inc. Pittsburgh 
 -------------------------------------------------------
 -------------------------------------------------------
 OpenMP BLAS3 based DFT computing Module                
 Release: version 1.0, May 2013, Q-Chem Inc. Pittsburgh 
 -------------------------------------------------------
 -------------------------------------------------------
 OpenMP BLAS3 based DFT computing Module                
 Release: version 1.0, May 2013, Q-Chem Inc. Pittsburgh 
 -------------------------------------------------------
 A restricted SCF calculation will be
 performed using DIIS
 SCF converges when DIIS error is below 1.0e-08
 ---------------------------------------
  Cycle       Energy         DIIS error
 ---------------------------------------
    1    -530.3646527813      2.55e-02  
    2    -530.1227219336      9.01e-03  
    3    -530.2812184724      8.31e-03  
    4    -531.3259840284      9.22e-04  
    5    -531.3365550814      4.93e-04  
    6    -531.3401454355      8.22e-05  
    7    -531.3402628450      3.12e-05  
    8    -531.3402791589      1.12e-05  
    9    -531.3402820609      2.54e-06  
   10    -531.3402822900      1.21e-06  
   11    -531.3402823273      3.90e-07  
   12    -531.3402823336      1.52e-07  
   13    -531.3402823345      5.11e-08  
   14    -531.3402823346      3.68e-08  
   15    -531.3402823347      6.01e-09  Convergence criterion met
 ---------------------------------------
 SCF time:   CPU 2799.43s  wall 116.00s 
(3)  G-ENP(liq) elect-nuc-pol free energy of system     -531.340282335 a.u.
(4)  G-CDS(liq) cavity-dispersion-solvent structure 
     free energy                                               -2.3911 kcal/mol
(6)  G-S(liq) free energy of system                     -531.344092749 a.u.
 SCF   energy in the final basis set =     -531.3402823347
 Total energy in the final basis set =     -531.3440927491
 
 --------------------------------------------------------------
 
                    Orbital Energies (a.u.)
 --------------------------------------------------------------
 
 Alpha MOs
 -- Occupied --
-19.4651 -19.4362 -19.2886 -19.2884 -19.2353 -10.6099 -10.4550 -10.3228
-10.3220  -1.4473  -1.4062  -1.2911  -1.2469  -1.2135  -0.9396  -0.8106
 -0.7853  -0.7669  -0.7665  -0.7607  -0.6802  -0.6560  -0.6363  -0.6354
 -0.6337  -0.6318  -0.6242  -0.5954  -0.5092  -0.4900  -0.4759  -0.4751
 -0.4276  -0.3905
 -- Virtual --
 -0.0327  -0.0071   0.0021   0.0447   0.0629   0.0724   0.0794   0.0801
  0.0879   0.0949   0.1048   0.1088   0.1185   0.1199   0.1269   0.1290
  0.1321   0.1358   0.1378   0.1427   0.1526   0.1618   0.1685   0.1728
  0.1805   0.1826   0.1928   0.1999   0.2151   0.2234   0.2285   0.2377
  0.2410   0.2558   0.2563   0.2616   0.2675   0.2730   0.2834   0.2953
  0.3041   0.3064   0.3162   0.3192   0.3208   0.3270   0.3326   0.3388
  0.3436   0.3482   0.3656   0.3671   0.3712   0.3757   0.3820   0.3877
  0.3929   0.3958   0.4005   0.4060   0.4081   0.4124   0.4219   0.4293
  0.4341   0.4379   0.4433   0.4518   0.4602   0.4623   0.4646   0.4809
  0.4882   0.4933   0.4975   0.4992   0.5072   0.5140   0.5313   0.5351
  0.5395   0.5503   0.5521   0.5565   0.5701   0.5738   0.5826   0.5895
  0.5969   0.6001   0.6034   0.6049   0.6229   0.6299   0.6422   0.6599
  0.6728   0.6777   0.6905   0.6984   0.7156   0.7206   0.7293   0.7377
  0.7595   0.7769   0.7816   0.7825   0.7864   0.7902   0.7938   0.8036
  0.8074   0.8130   0.8325   0.8381   0.8666   0.8798   0.8818   0.8939
  0.8976   0.9081   0.9116   0.9273   0.9372   0.9414   0.9585   0.9702
  0.9829   0.9903   0.9916   0.9949   1.0011   1.0125   1.0212   1.0305
  1.0433   1.0680   1.0840   1.0981   1.1180   1.1259   1.1303   1.1479
  1.1721   1.1958   1.2039   1.2087   1.2113   1.2273   1.2366   1.2689
  1.2777   1.2866   1.2874   1.2998   1.3213   1.3395   1.3438   1.3549
  1.3745   1.3841   1.4066   1.4352   1.4505   1.5118   1.5151   1.5593
  1.6327   1.6696   1.6864   1.7019   1.7153   1.7165   1.7313   1.7533
  1.7563   1.7756   1.7870   1.8019   1.8211   1.8304   1.8468   1.8801
  1.8880   1.9010   1.9069   1.9137   1.9195   1.9382   1.9517   1.9774
  1.9837   2.0238   2.0301   2.0652   2.0891   2.0965   2.1048   2.1308
  2.1718   2.2114   2.2216   2.2526   2.3146   2.3445   2.3750   2.3848
  2.4266   2.4628   2.4904   2.5019   2.5115   2.5435   2.5744   2.5773
  2.6373   2.7189   2.7243   2.7472   2.7595   2.7764   2.8016   2.8165
  2.8234   2.8805   2.9191   2.9443   2.9479   2.9671   2.9682   2.9728
  2.9822   2.9909   3.0016   3.0137   3.0292   3.0397   3.0471   3.0511
  3.0662   3.0752   3.1062   3.1243   3.1340   3.1364   3.1553   3.1591
  3.1779   3.1996   3.2049   3.2124   3.2312   3.2908   3.2946   3.3025
  3.3268   3.3411   3.3571   3.3583   3.3906   3.4214   3.4351   3.4603
  3.4838   3.5130   3.5162   3.5283   3.5291   3.5641   3.5839   3.6234
  3.6370   3.6808   3.6921   3.7226   3.7468   3.7642   3.7718   3.7983
  3.8035   3.8154   3.8178   3.8394   3.8753   3.8976   3.9640   4.0000
  4.0394   4.0420   4.0475   4.0626   4.1106   4.1474   4.2016   4.2172
  4.2922   4.3042   4.3283   4.3731   4.3805   4.3870   4.3934   4.4370
  4.4849   4.6403   4.6583   4.7062   4.7349   4.7806   4.7961   4.8120
  4.9610   4.9842   4.9860   5.0632   5.0922   5.1022   5.1169   5.1207
  5.1774   5.1883   5.2020   5.2419   5.2458   5.2524   5.2547   5.2983
  5.3070   5.3244   5.3281   5.3531   5.4180   5.4764   5.5543   5.5810
  5.6215   5.6547   5.6819   5.7132   5.7143   5.7334   5.7745   5.8870
  5.9326   5.9391   5.9739   6.0698   6.0715   6.1560   6.1904   6.2539
  6.2624   6.3281   6.3304   6.4122   6.4157   6.4247   6.4300   6.4519
  6.4840   6.5221   6.5389   6.5437   6.5551   6.5781   6.6005   6.6185
  6.6682   6.7877   6.8589   6.8649   6.8817   6.9598   6.9798   7.0430
  7.0454   7.0529   7.0720   7.0996   7.2122   7.2339   7.2925   7.3237
  7.3347   7.4950   7.5980   7.6560   7.8738   7.8766  23.6677  23.7003
 24.0177  24.3338  44.0681  44.1542  44.3504  44.4053  44.4489
 --------------------------------------------------------------
 
          Ground-State Mulliken Net Atomic Charges

     Atom                 Charge (a.u.)
  ----------------------------------------
      1 O                    -0.303930
      2 C                     0.628451
      3 O                    -0.309849
      4 O                    -0.350178
      5 O                     0.021089
      6 C                     0.705519
      7 O                    -0.106837
      8 C                    -0.052814
      9 C                     0.181585
     10 H                     0.369848
     11 H                     0.060292
     12 H                     0.060747
     13 H                     0.048182
     14 H                     0.047894
  ----------------------------------------
  Sum of atomic charges =     1.000000

  Building new vdw surfaces
         Merz-Kollman RESP Net Atomic Charges

     Atom                 Charge (a.u.)
  ----------------------------------------
      1 O                    -0.391612
      2 C                     0.740097
      3 O                    -0.371711
      4 O                    -0.220546
      5 O                    -0.096457
      6 C                     0.776001
      7 O                    -0.205683
      8 C                    -0.257537
      9 C                    -0.257537
     10 H                     0.522154
     11 H                     0.190708
     12 H                     0.190708
     13 H                     0.190708
     14 H                     0.190708
  ----------------------------------------
  Sum of atomic charges =     1.000000

  Related Dipole Moment =    20.5571 (X -14.9305 Y 14.1283 Z  0.2529)

 -----------------------------------------------------------------
                    Cartesian Multipole Moments
 -----------------------------------------------------------------
    Charge (ESU x 10^10)
                 4.8032
    Dipole Moment (Debye)
         X     -14.9134      Y      14.1552      Z       0.2594
       Tot      20.5632
    Quadrupole Moments (Debye-Ang)
        XX     -11.6102     XY     -27.3451     YY     -23.3019
        XZ      -1.1611     YZ       0.6180     ZZ     -45.9069
    Octopole Moments (Debye-Ang^2)
       XXX    -330.8378    XXY     104.0269    XYY    -163.0768
       YYY     122.0975    XXZ       3.3527    XYZ      -2.7953
       YYZ       0.5045    XZZ     -57.8563    YZZ       2.3438
       ZZZ      -2.2036
    Hexadecapole Moments (Debye-Ang^3)
      XXXX   -1958.3914   XXXY     333.8844   XXYY    -457.4659
      XYYY     591.0588   YYYY   -1143.5688   XXXZ     -33.5165
      XXYZ      10.0795   XYYZ     -10.4151   YYYZ      10.0471
      XXZZ    -402.6009   XYZZ     222.8088   YYZZ    -215.5513
      XZZZ     -12.7077   YZZZ       4.6162   ZZZZ     -55.2128
 -----------------------------------------------------------------
 Calculating analytic gradient of the SCF energy
 Gradient of CDS energy
            1           2           3           4           5           6
    1  -0.0007156   0.0012333  -0.0006597  -0.0000263   0.0000926   0.0006284
    2  -0.0000448  -0.0002415   0.0002248   0.0004281  -0.0001130   0.0002394
    3  -0.0000445   0.0000777  -0.0000420   0.0000131  -0.0000022  -0.0000375
            7           8           9          10          11          12
    1  -0.0003437  -0.0011221   0.0010934  -0.0003180   0.0001407   0.0001473
    2  -0.0006450  -0.0010463   0.0009592   0.0004131   0.0000449   0.0000407
    3  -0.0000308  -0.0000063  -0.0000043   0.0000724   0.0002423  -0.0002391
           13          14
    1  -0.0000716  -0.0000786
    2  -0.0001316  -0.0001281
    3  -0.0002395   0.0002409
 Gradient of SCF Energy
            1           2           3           4           5           6
    1  -0.0057419  -0.0023114   0.0071696   0.0045030   0.1553888  -0.0489966
    2  -0.0323887  -0.0002838   0.0335945  -0.0072412  -0.0268012   0.0021970
    3  -0.0002583  -0.0001218   0.0003176   0.0000620  -0.0179835   0.0043111
            7           8           9          10          11          12
    1  -0.0456801   0.0273917  -0.0126759  -0.0591036  -0.0175947  -0.0189359
    2   0.0671965   0.0194055  -0.0281625  -0.0434708  -0.0085736  -0.0069734
    3   0.0120308   0.0007822  -0.0004759   0.0015076  -0.0334135   0.0329321
           13          14
    1   0.0079636   0.0086234
    2   0.0163210   0.0151805
    3   0.0307309  -0.0304212
 Max gradient component =       1.554E-01
 RMS gradient           =       3.439E-02
 Computing fast CPCM-SWIG gradient
 Updating gradient with PCM contributions...
 -- total gradient after adding PCM contribution --
---------------------------------------------------
  Atom         X              Y              Z     
---------------------------------------------------
   1      -0.000002      -0.000007       0.000047
   2       0.000003      -0.000031      -0.000095
   3      -0.000001       0.000044       0.000047
   4      -0.000001      -0.000018      -0.000071
   5      -0.000038      -0.000014      -0.000007
   6       0.000039       0.000024       0.000035
   7      -0.000031      -0.000009      -0.000020
   8      -0.000030      -0.000012       0.000114
   9      -0.000049      -0.000034      -0.000405
  10      -0.000001      -0.000001      -0.000007
  11       0.000026      -0.000009      -0.000011
  12      -0.000008       0.000006      -0.000031
  13       0.000076       0.000162       0.000297
  14       0.000016      -0.000100       0.000106
---------------------------------------------------
 Number of fixed atoms: 0
 Gradient time:  CPU 513.37 s  wall 26.04 s
 Geometry Optimization Parameters
   NAtoms,    NIC,     NZ,  NCons,   NDum,   NFix, NCnnct, MaxDiis
       14     230       0       0       0       0       0       0

 Cartesian Hessian read from HESS file


** GEOMETRY OPTIMIZATION IN DELOCALIZED INTERNAL COORDINATES **
   Searching for a Minimum

   Optimization Cycle:   1

                       Coordinates (Angstroms)
     ATOM                X               Y               Z
      1  O         4.1950273101   -3.1452599080    0.1068380808
      2  C         4.3879990982   -2.0023581909    0.1150265170
      3  O         4.6160114534   -0.8651829983    0.1259158049
      4  O         1.6423327964   -1.2960938573   -0.0588589007
      5  O        -0.8306930824    2.5263581394   -0.1267666672
      6  C        -1.9190699274    2.7710028375    0.0043884721
      7  O        -3.0662768562    3.1520597432    0.1547237560
      8  C         0.3081594866   -0.7845675986   -0.0811767992
      9  C         1.4559952627    0.1199021898   -0.0734453786
     10  H        -3.7822361786    2.4526364528    0.1548662883
     11  H        -0.2307172919   -0.9566557906   -1.0096013456
     12  H        -0.2559943479   -0.9406579754    0.8349820681
     13  H         1.7316382350    0.6266304766    0.8488176499
     14  H         1.7570285674    0.6103610085   -0.9957095484
   Point Group: c1    Number of degrees of freedom:    36


   Energy is   -531.344092749


 Attempting to generate delocalized internal coordinates

 Transforming Cartesian Hessian to Internal Coordinates
 Hessian Transformation does not Include Derivative of B-matrix

 36 Hessian modes will be used to form the next step
  Hessian Eigenvalues:
    -0.000224    0.000004    0.000039    0.000107    0.000224    0.000298
     0.000737    0.000974    0.001440    0.003071    0.006885    0.008958
     0.011159    0.011960    0.012196    0.014673    0.015099    0.017669
     0.017933    0.019399    0.021701    0.035887    0.104252    0.112099
     0.114108    0.129168    0.229659    0.249148    0.261796    0.272010
     0.280942    0.401490    0.800077    0.891579    1.127613    1.337590
**WARNING** Magnitude of eigenvalue   2 too small.  Replaced by     0.000100
**WARNING** Magnitude of eigenvalue   3 too small.  Replaced by     0.000100
**WARNING** Hessian does not have the desired local structure

 Minimum search - taking simple RFO step
 Searching for Lamda that Minimizes Along All modes
 Value Taken    Lamda =  -0.00022524
 Calculated Step too Large.  Step scaled by  0.017527
 Step Taken.  Stepsize is  0.300000

                             Maximum     Tolerance    Cnvgd?
         Gradient           0.000185      0.000300     YES
         Displacement       0.150948      0.001200      NO
         Energy change     *********      0.000001      NO


 New Cartesian Coordinates Obtained by Inverse Iteration

 Displacement from previous Coordinates is:  0.513795
 ----------------------------------------------------------------
             Standard Nuclear Orientation (Angstroms)
    I     Atom           X                Y                Z
 ----------------------------------------------------------------
    1      O       4.2560232016    -3.0704247893     0.1164104756
    2      C       4.3923456180    -1.9195137899     0.1334241456
    3      O       4.5629131525    -0.7724751629     0.1536337399
    4      O       1.6099908153    -1.3392385350    -0.0740112382
    5      O      -0.7703278561     2.5367478586    -0.1229643723
    6      C      -1.8565522124     2.7884092082     0.0124984586
    7      O      -3.0008110650     3.1765498680     0.1669402736
    8      C       0.2727018338    -0.8352141976    -0.0949802537
    9      C       1.4156676826     0.0756672560    -0.0875669454
   10      H      -3.7206698754     2.4811892215     0.1724023765
   11      H      -0.2662400433    -1.0101280660    -1.0227536111
   12      H      -0.2897160376    -0.9947495686     0.8215867035
   13      H       1.6896408607     0.5830196974     0.8347143686
   14      H       1.7142384507     0.5683355283    -1.0093341238
 ----------------------------------------------------------------
 Nuclear Repulsion Energy =         373.93465009 hartrees
 There are       34 alpha and       34 beta electrons
 Discretize the solute cavity surface with Lebedev spheres
	Using 110 Lebedev grid points for each H atom
	Using 194 Lebedev grid points for other atoms
	Atomic van der Waals radii will be scaled by 1.20
 Remove points where switching function is < 1.0e-08
 Keep 1142 surface tesserae and discard 1154 interior tesserae
 Molecular Surface Area = 241.476 Angst**2
 Applying Cartesian multipole field
    Component          Value
    ---------          -----
     (2,0,0)        1.00000E-11
     (0,2,0)        2.00000E-11
     (0,0,2)       -3.00000E-11
 Nucleus-field energy     =     0.0000000422 hartrees
 Requested basis set is def2-TZVPPD
 There are 157 shells and 433 basis functions
 A cutoff of  1.0D-14 yielded  10233 shell pairs
 There are     76809 function pairs (     98095 Cartesian)
 Smallest overlap matrix eigenvalue = 5.63E-06
 Guess from superposition of atomic densities
 Warning:  Energy on first SCF cycle will be non-variational
 SAD guess density has 68.075651 electrons

 -----------------------------------------------------------------------
  General SCF calculation program by
  Eric Jon Sundstrom, Paul Horn, Yuezhi Mao, Dmitri Zuev, Alec White,
  David Stuck, Shaama M.S., Shane Yost, Joonho Lee, David Small,
  Daniel Levine, Susi Lehtola, Hugh Burton, Evgeny Epifanovsky,
  Bang C. Huynh
 -----------------------------------------------------------------------
 Exchange:     0.1670 Hartree-Fock + 1.0000 wB97X-V + LR-HF
 Correlation:  1.0000 wB97X-V
 Using SG-3 standard quadrature grid
 Nonlocal Correlation:  VV10 with C = 0.0100 and b = 6.00 and scale = 1.00000
 Grid used for NLC:  SG-1 standard quadrature
 
 Citation of the SMD model:
 Marenich, A.V.; Cramer, C.J.; Truhlar, D.G.
 J. Phys. Chem. B 2009, 113, 6378-6396.
 iSolventCode=           0
 Solvent: other                                                           
 
 vradii
            1           2           3           4           5           6
    1   2.2940000   1.8500000   2.2940000   2.2940000   2.2940000   1.8500000
            7           8           9          10          11          12
    1   2.2940000   1.8500000   1.8500000   1.2000000   1.2000000   1.2000000
           13          14
    1   1.2000000   1.2000000
 using 32 threads for integral computing
 -------------------------------------------------------
 OpenMP Integral computing Module                
 Release: version 1.0, May 2013, Q-Chem Inc. Pittsburgh 
 -------------------------------------------------------
 using 32 threads for integral computing
 -------------------------------------------------------
 OpenMP Integral computing Module                
 Release: version 1.0, May 2013, Q-Chem Inc. Pittsburgh 
 -------------------------------------------------------
 -------------------------------------------------------
 OpenMP BLAS3 based DFT computing Module                
 Release: version 1.0, May 2013, Q-Chem Inc. Pittsburgh 
 -------------------------------------------------------
 -------------------------------------------------------
 OpenMP BLAS3 based DFT computing Module                
 Release: version 1.0, May 2013, Q-Chem Inc. Pittsburgh 
 -------------------------------------------------------
 -------------------------------------------------------
 OpenMP BLAS3 based DFT computing Module                
 Release: version 1.0, May 2013, Q-Chem Inc. Pittsburgh 
 -------------------------------------------------------
 A restricted SCF calculation will be
 performed using DIIS
 SCF converges when DIIS error is below 1.0e-08
 ---------------------------------------
  Cycle       Energy         DIIS error
 ---------------------------------------
    1    -538.4214715932      2.55e-02  
    2    -530.1228683618      9.01e-03  
    3    -530.2810781362      8.31e-03  
    4    -531.3259653934      9.22e-04  
    5    -531.3365281568      4.93e-04  
    6    -531.3401168969      8.23e-05  
    7    -531.3402343183      3.13e-05  
    8    -531.3402506627      1.12e-05  
    9    -531.3402535634      2.54e-06  
   10    -531.3402537926      1.20e-06  
   11    -531.3402538300      3.90e-07  
   12    -531.3402538363      1.53e-07  
   13    -531.3402538373      5.25e-08  
   14    -531.3402538374      3.75e-08  
   15    -531.3402538374      5.93e-09  Convergence criterion met
 ---------------------------------------
 SCF time:   CPU 2802.14s  wall 115.00s 
(3)  G-ENP(liq) elect-nuc-pol free energy of system     -531.340253837 a.u.
(4)  G-CDS(liq) cavity-dispersion-solvent structure 
     free energy                                               -2.3911 kcal/mol
(6)  G-S(liq) free energy of system                     -531.344064371 a.u.
 SCF   energy in the final basis set =     -531.3402538374
 Total energy in the final basis set =     -531.3440643715
 
 --------------------------------------------------------------
 
                    Orbital Energies (a.u.)
 --------------------------------------------------------------
 
 Alpha MOs
 -- Occupied --
-19.4651 -19.4362 -19.2889 -19.2887 -19.2353 -10.6099 -10.4553 -10.3229
-10.3220  -1.4473  -1.4062  -1.2914  -1.2472  -1.2135  -0.9396  -0.8106
 -0.7854  -0.7669  -0.7667  -0.7607  -0.6805  -0.6560  -0.6366  -0.6355
 -0.6339  -0.6319  -0.6242  -0.5955  -0.5091  -0.4901  -0.4762  -0.4756
 -0.4275  -0.3905
 -- Virtual --
 -0.0327  -0.0071   0.0021   0.0446   0.0628   0.0724   0.0792   0.0801
  0.0879   0.0949   0.1051   0.1088   0.1183   0.1196   0.1273   0.1287
  0.1318   0.1356   0.1382   0.1427   0.1524   0.1615   0.1684   0.1734
  0.1811   0.1827   0.1919   0.1999   0.2153   0.2231   0.2286   0.2374
  0.2410   0.2556   0.2570   0.2633   0.2667   0.2746   0.2818   0.2972
  0.3042   0.3059   0.3159   0.3192   0.3212   0.3253   0.3335   0.3386
  0.3442   0.3497   0.3652   0.3690   0.3710   0.3764   0.3822   0.3876
  0.3924   0.3938   0.3992   0.4079   0.4081   0.4129   0.4230   0.4309
  0.4343   0.4398   0.4456   0.4528   0.4575   0.4606   0.4640   0.4838
  0.4881   0.4943   0.4983   0.4996   0.5084   0.5148   0.5313   0.5380
  0.5395   0.5487   0.5524   0.5581   0.5710   0.5752   0.5847   0.5906
  0.5963   0.5990   0.6044   0.6075   0.6223   0.6312   0.6420   0.6602
  0.6756   0.6792   0.6909   0.6981   0.7152   0.7189   0.7289   0.7351
  0.7669   0.7780   0.7811   0.7835   0.7877   0.7921   0.7974   0.8024
  0.8058   0.8127   0.8322   0.8423   0.8672   0.8806   0.8820   0.8933
  0.8990   0.9075   0.9109   0.9310   0.9364   0.9404   0.9642   0.9702
  0.9845   0.9885   0.9906   0.9968   1.0032   1.0126   1.0229   1.0318
  1.0431   1.0687   1.0829   1.0974   1.1162   1.1228   1.1275   1.1496
  1.1704   1.1931   1.2035   1.2093   1.2115   1.2259   1.2377   1.2692
  1.2780   1.2866   1.2887   1.3009   1.3284   1.3395   1.3432   1.3547
  1.3765   1.3853   1.4074   1.4415   1.4458   1.5117   1.5149   1.5616
  1.6315   1.6696   1.6892   1.7030   1.7098   1.7122   1.7314   1.7546
  1.7572   1.7752   1.7884   1.8015   1.8213   1.8322   1.8486   1.8779
  1.8881   1.9015   1.9093   1.9131   1.9214   1.9394   1.9520   1.9778
  1.9871   2.0248   2.0305   2.0653   2.0877   2.0998   2.1042   2.1294
  2.1715   2.2104   2.2188   2.2505   2.3115   2.3440   2.3750   2.3849
  2.4233   2.4638   2.4911   2.5019   2.5122   2.5460   2.5749   2.5773
  2.6377   2.7179   2.7259   2.7478   2.7595   2.7764   2.8030   2.8143
  2.8228   2.8806   2.9203   2.9454   2.9478   2.9670   2.9682   2.9722
  2.9828   2.9924   3.0001   3.0132   3.0290   3.0374   3.0480   3.0512
  3.0658   3.0743   3.1069   3.1246   3.1341   3.1366   3.1546   3.1593
  3.1779   3.1987   3.2053   3.2126   3.2356   3.2912   3.2956   3.3043
  3.3262   3.3405   3.3571   3.3591   3.3909   3.4200   3.4340   3.4651
  3.4836   3.5126   3.5170   3.5283   3.5337   3.5659   3.5844   3.6231
  3.6370   3.6799   3.6926   3.7231   3.7467   3.7673   3.7736   3.7974
  3.8035   3.8157   3.8190   3.8416   3.8760   3.8978   3.9639   4.0006
  4.0395   4.0421   4.0456   4.0656   4.1105   4.1473   4.2026   4.2159
  4.2914   4.3035   4.3314   4.3734   4.3806   4.3868   4.3914   4.4398
  4.4857   4.6399   4.6589   4.7057   4.7347   4.7802   4.7966   4.8122
  4.9610   4.9843   4.9861   5.0635   5.0917   5.1018   5.1159   5.1226
  5.1774   5.1882   5.2030   5.2420   5.2458   5.2523   5.2543   5.2999
  5.3072   5.3240   5.3277   5.3538   5.4193   5.4762   5.5547   5.5815
  5.6200   5.6546   5.6816   5.7134   5.7147   5.7336   5.7746   5.8878
  5.9325   5.9389   5.9738   6.0703   6.0715   6.1559   6.1899   6.2537
  6.2623   6.3289   6.3305   6.4119   6.4160   6.4248   6.4294   6.4518
  6.4841   6.5221   6.5380   6.5436   6.5553   6.5781   6.6005   6.6189
  6.6700   6.7875   6.8590   6.8649   6.8806   6.9604   6.9804   7.0428
  7.0455   7.0531   7.0717   7.1013   7.2120   7.2350   7.2938   7.3230
  7.3340   7.4952   7.5981   7.6551   7.8736   7.8770  23.6653  23.7077
 24.0179  24.3343  44.0692  44.1564  44.3546  44.4034  44.4515
 --------------------------------------------------------------
 
          Ground-State Mulliken Net Atomic Charges

     Atom                 Charge (a.u.)
  ----------------------------------------
      1 O                    -0.303319
      2 C                     0.626823
      3 O                    -0.310031
      4 O                    -0.356047
      5 O                     0.021072
      6 C                     0.705006
      7 O                    -0.107354
      8 C                    -0.040997
      9 C                     0.180336
     10 H                     0.369995
     11 H                     0.059174
     12 H                     0.058858
     13 H                     0.047453
     14 H                     0.049033
  ----------------------------------------
  Sum of atomic charges =     1.000000

  Building new vdw surfaces
         Merz-Kollman RESP Net Atomic Charges

     Atom                 Charge (a.u.)
  ----------------------------------------
      1 O                    -0.393335
      2 C                     0.745474
      3 O                    -0.373777
      4 O                    -0.224371
      5 O                    -0.099176
      6 C                     0.779198
      7 O                    -0.206747
      8 C                    -0.256981
      9 C                    -0.256981
     10 H                     0.522139
     11 H                     0.191139
     12 H                     0.191139
     13 H                     0.191139
     14 H                     0.191139
  ----------------------------------------
  Sum of atomic charges =     1.000000

  Related Dipole Moment =    20.4047 (X -14.6424 Y 14.2076 Z  0.3140)

 -----------------------------------------------------------------
                    Cartesian Multipole Moments
 -----------------------------------------------------------------
    Charge (ESU x 10^10)
                 4.8032
    Dipole Moment (Debye)
         X     -14.6216      Y      14.2344      Z       0.3193
       Tot      20.4086
    Quadrupole Moments (Debye-Ang)
        XX     -13.0155     XY     -26.7497     YY     -22.9083
        XZ      -1.3137     YZ       0.7120     ZZ     -45.8966
    Octopole Moments (Debye-Ang^2)
       XXX    -322.8324    XXY     101.6551    XYY    -164.3025
       YYY     121.6140    XXZ       3.6854    XYZ      -3.4492
       YYZ       0.8721    XZZ     -58.2135    YZZ       1.6577
       ZZZ      -2.6355
    Hexadecapole Moments (Debye-Ang^3)
      XXXX   -1951.7152   XXXY     337.3203   XXYY    -464.4739
      XYYY     572.5611   YYYY   -1116.5611   XXXZ     -37.5503
      XXYZ      10.4473   XYYZ     -12.0462   YYYZ      10.0260
      XXZZ    -398.0235   XYZZ     216.5780   YYZZ    -213.4341
      XZZZ     -14.9698   YZZZ       3.6685   ZZZZ     -55.9758
 -----------------------------------------------------------------
 Calculating analytic gradient of the SCF energy
 Gradient of CDS energy
            1           2           3           4           5           6
    1  -0.0007045   0.0012368  -0.0007408  -0.0000320   0.0002052   0.0006303
    2  -0.0000811  -0.0001771   0.0002422   0.0004320  -0.0001754   0.0002355
    3  -0.0000539   0.0000924   0.0000010   0.0000181   0.0000043  -0.0000412
            7           8           9          10          11          12
    1  -0.0003475  -0.0011089   0.0010323  -0.0003154   0.0001408   0.0001469
    2  -0.0006432  -0.0010452   0.0007986   0.0004152   0.0000457   0.0000417
    3  -0.0000274  -0.0000057  -0.0000819   0.0000726   0.0002423  -0.0002394
           13          14
    1   0.0000228  -0.0001660
    2  -0.0000629  -0.0000259
    3  -0.0002166   0.0002352
 Gradient of SCF Energy
            1           2           3           4           5           6
    1  -0.0042370  -0.0022198   0.0055045   0.0044208   0.1551604  -0.0489005
    2  -0.0331004  -0.0003485   0.0344477  -0.0067269  -0.0283863   0.0031731
    3  -0.0005122  -0.0001712   0.0006680   0.0000552  -0.0185827   0.0045676
            7           8           9          10          11          12
    1  -0.0451840   0.0274596  -0.0124935  -0.0593389  -0.0177669  -0.0190274
    2   0.0673590   0.0193942  -0.0287143  -0.0431028  -0.0087863  -0.0071245
    3   0.0120373   0.0007582  -0.0004776   0.0018423  -0.0332108   0.0327622
           13          14
    1   0.0080375   0.0085852
    2   0.0164298   0.0154862
    3   0.0309227  -0.0306590
 Max gradient component =       1.552E-01
 RMS gradient           =       3.443E-02
 Computing fast CPCM-SWIG gradient
 Updating gradient with PCM contributions...
 -- total gradient after adding PCM contribution --
---------------------------------------------------
  Atom         X              Y              Z     
---------------------------------------------------
   1       0.000018      -0.000013       0.000054
   2       0.000024       0.000092      -0.000126
   3      -0.000173       0.000015       0.000117
   4       0.000013      -0.000023      -0.000079
   5       0.000052      -0.000140      -0.000035
   6       0.000048       0.000058       0.000040
   7      -0.000005      -0.000006       0.000008
   8      -0.000150      -0.000126       0.000096
   9       0.000038      -0.000040      -0.000482
  10       0.000019       0.000008      -0.000003
  11      -0.000006      -0.000015       0.000035
  12      -0.000018       0.000026      -0.000060
  13       0.000178       0.000189       0.000234
  14      -0.000038      -0.000025       0.000199
---------------------------------------------------
 Number of fixed atoms: 0
 Gradient time:  CPU 534.24 s  wall 26.31 s
 Geometry Optimization Parameters
   NAtoms,    NIC,     NZ,  NCons,   NDum,   NFix, NCnnct, MaxDiis
       14     230       0       0       0       0       0       0

 Cartesian Hessian Update
 Hessian updated using BFGS update


** GEOMETRY OPTIMIZATION IN DELOCALIZED INTERNAL COORDINATES **
   Searching for a Minimum

   Optimization Cycle:   2

                       Coordinates (Angstroms)
     ATOM                X               Y               Z
      1  O         4.2560232016   -3.0704247893    0.1164104756
      2  C         4.3923456180   -1.9195137899    0.1334241456
      3  O         4.5629131525   -0.7724751629    0.1536337399
      4  O         1.6099908153   -1.3392385350   -0.0740112382
      5  O        -0.7703278561    2.5367478586   -0.1229643723
      6  C        -1.8565522124    2.7884092082    0.0124984586
      7  O        -3.0008110650    3.1765498680    0.1669402736
      8  C         0.2727018338   -0.8352141976   -0.0949802537
      9  C         1.4156676826    0.0756672560   -0.0875669454
     10  H        -3.7206698754    2.4811892215    0.1724023765
     11  H        -0.2662400433   -1.0101280660   -1.0227536111
     12  H        -0.2897160376   -0.9947495686    0.8215867035
     13  H         1.6896408607    0.5830196974    0.8347143686
     14  H         1.7142384507    0.5683355283   -1.0093341238
   Point Group: c1    Number of degrees of freedom:    36


   Energy is   -531.344064371

 Hessian updated using BFGS update

 36 Hessian modes will be used to form the next step
  Hessian Eigenvalues:
     0.000004    0.000038    0.000106    0.000172    0.000294    0.000453
     0.000860    0.001050    0.001705    0.003795    0.006907    0.009103
     0.011163    0.011967    0.012285    0.014674    0.015121    0.017690
     0.017947    0.019403    0.021775    0.035902    0.104252    0.112127
     0.114707    0.129548    0.229669    0.249193    0.261796    0.272015
     0.280966    0.401495    0.800097    0.891598    1.127618    1.337618
**WARNING** Magnitude of eigenvalue   1 too small.  Replaced by     0.000100
**WARNING** Magnitude of eigenvalue   2 too small.  Replaced by     0.000100

 Minimum search - taking simple RFO step
 Searching for Lamda that Minimizes Along All modes
 Value Taken    Lamda =  -0.00004826
 Step Taken.  Stepsize is  0.233097

                             Maximum     Tolerance    Cnvgd?
         Gradient           0.000309      0.000300      NO
         Displacement       0.123117      0.001200      NO
         Energy change      0.000028      0.000001      NO


 New Cartesian Coordinates Obtained by Inverse Iteration

 Displacement from previous Coordinates is:  0.444316
 ----------------------------------------------------------------
             Standard Nuclear Orientation (Angstroms)
    I     Atom           X                Y                Z
 ----------------------------------------------------------------
    1      O       4.1993020902    -3.1367477966     0.1177725382
    2      C       4.3888872490    -1.9932693774     0.1231963828
    3      O       4.6136155365    -0.8554313634     0.1308430268
    4      O       1.6416234806    -1.2975714257    -0.0683735146
    5      O      -0.8204088893     2.5321220688    -0.1254052887
    6      C      -1.9090800728     2.7748798609     0.0068533699
    7      O      -3.0566540128     3.1543017893     0.1584311706
    8      C       0.3043799670    -0.7938476149    -0.0854635790
    9      C       1.4469277263     0.1172593863    -0.0795733284
   10      H      -3.7714477963     2.4536888657     0.1614665594
   11      H      -0.2366714604    -0.9671109690    -1.0123867159
   12      H      -0.2556739659    -0.9551680083     0.8323365611
   13      H       1.7228094014     0.6233875223     0.8423416755
   14      H       1.7415952719     0.6116815905    -1.0020388602
 ----------------------------------------------------------------
 Nuclear Repulsion Energy =         373.23818855 hartrees
 There are       34 alpha and       34 beta electrons
 Discretize the solute cavity surface with Lebedev spheres
	Using 110 Lebedev grid points for each H atom
	Using 194 Lebedev grid points for other atoms
	Atomic van der Waals radii will be scaled by 1.20
 Remove points where switching function is < 1.0e-08
 Keep 1144 surface tesserae and discard 1152 interior tesserae
 Molecular Surface Area = 241.429 Angst**2
 Applying Cartesian multipole field
    Component          Value
    ---------          -----
     (2,0,0)        1.00000E-11
     (0,2,0)        2.00000E-11
     (0,0,2)       -3.00000E-11
 Nucleus-field energy     =     0.0000000426 hartrees
 Requested basis set is def2-TZVPPD
 There are 157 shells and 433 basis functions
 A cutoff of  1.0D-14 yielded  10215 shell pairs
 There are     76779 function pairs (     98077 Cartesian)
 Smallest overlap matrix eigenvalue = 5.65E-06
 Guess from superposition of atomic densities
 Warning:  Energy on first SCF cycle will be non-variational
 SAD guess density has 68.075651 electrons

 -----------------------------------------------------------------------
  General SCF calculation program by
  Eric Jon Sundstrom, Paul Horn, Yuezhi Mao, Dmitri Zuev, Alec White,
  David Stuck, Shaama M.S., Shane Yost, Joonho Lee, David Small,
  Daniel Levine, Susi Lehtola, Hugh Burton, Evgeny Epifanovsky,
  Bang C. Huynh
 -----------------------------------------------------------------------
 Exchange:     0.1670 Hartree-Fock + 1.0000 wB97X-V + LR-HF
 Correlation:  1.0000 wB97X-V
 Using SG-3 standard quadrature grid
 Nonlocal Correlation:  VV10 with C = 0.0100 and b = 6.00 and scale = 1.00000
 Grid used for NLC:  SG-1 standard quadrature
 
 Citation of the SMD model:
 Marenich, A.V.; Cramer, C.J.; Truhlar, D.G.
 J. Phys. Chem. B 2009, 113, 6378-6396.
 iSolventCode=           0
 Solvent: other                                                           
 
 vradii
            1           2           3           4           5           6
    1   2.2940000   1.8500000   2.2940000   2.2940000   2.2940000   1.8500000
            7           8           9          10          11          12
    1   2.2940000   1.8500000   1.8500000   1.2000000   1.2000000   1.2000000
           13          14
    1   1.2000000   1.2000000
 using 32 threads for integral computing
 -------------------------------------------------------
 OpenMP Integral computing Module                
 Release: version 1.0, May 2013, Q-Chem Inc. Pittsburgh 
 -------------------------------------------------------
 using 32 threads for integral computing
 -------------------------------------------------------
 OpenMP Integral computing Module                
 Release: version 1.0, May 2013, Q-Chem Inc. Pittsburgh 
 -------------------------------------------------------
 -------------------------------------------------------
 OpenMP BLAS3 based DFT computing Module                
 Release: version 1.0, May 2013, Q-Chem Inc. Pittsburgh 
 -------------------------------------------------------
 -------------------------------------------------------
 OpenMP BLAS3 based DFT computing Module                
 Release: version 1.0, May 2013, Q-Chem Inc. Pittsburgh 
 -------------------------------------------------------
 -------------------------------------------------------
 OpenMP BLAS3 based DFT computing Module                
 Release: version 1.0, May 2013, Q-Chem Inc. Pittsburgh 
 -------------------------------------------------------
 A restricted SCF calculation will be
 performed using DIIS
 SCF converges when DIIS error is below 1.0e-08
 ---------------------------------------
  Cycle       Energy         DIIS error
 ---------------------------------------
    1    -538.4488977881      2.55e-02  
    2    -530.1227693594      9.01e-03  
    3    -530.2812467923      8.31e-03  
    4    -531.3259859967      9.22e-04  
    5    -531.3365569574      4.93e-04  
    6    -531.3401473710      8.22e-05  
    7    -531.3402647892      3.12e-05  
    8    -531.3402811004      1.12e-05  
    9    -531.3402840032      2.54e-06  
   10    -531.3402842324      1.21e-06  
   11    -531.3402842697      3.90e-07  
   12    -531.3402842760      1.52e-07  
   13    -531.3402842769      5.11e-08  
   14    -531.3402842770      3.68e-08  
   15    -531.3402842771      6.00e-09  Convergence criterion met
 ---------------------------------------
 SCF time:   CPU 2830.06s  wall 115.00s 
(3)  G-ENP(liq) elect-nuc-pol free energy of system     -531.340284277 a.u.
(4)  G-CDS(liq) cavity-dispersion-solvent structure 
     free energy                                               -2.3904 kcal/mol
(6)  G-S(liq) free energy of system                     -531.344093616 a.u.
 SCF   energy in the final basis set =     -531.3402842771
 Total energy in the final basis set =     -531.3440936162
 
 --------------------------------------------------------------
 
                    Orbital Energies (a.u.)
 --------------------------------------------------------------
 
 Alpha MOs
 -- Occupied --
-19.4651 -19.4362 -19.2886 -19.2884 -19.2354 -10.6099 -10.4550 -10.3228
-10.3220  -1.4473  -1.4062  -1.2911  -1.2469  -1.2136  -0.9396  -0.8107
 -0.7854  -0.7669  -0.7666  -0.7607  -0.6802  -0.6560  -0.6363  -0.6354
 -0.6337  -0.6318  -0.6242  -0.5954  -0.5092  -0.4901  -0.4759  -0.4751
 -0.4276  -0.3905
 -- Virtual --
 -0.0328  -0.0071   0.0021   0.0447   0.0629   0.0724   0.0794   0.0801
  0.0879   0.0949   0.1048   0.1088   0.1185   0.1199   0.1270   0.1289
  0.1321   0.1358   0.1379   0.1427   0.1525   0.1617   0.1685   0.1729
  0.1807   0.1826   0.1928   0.1998   0.2151   0.2231   0.2283   0.2377
  0.2412   0.2555   0.2562   0.2618   0.2673   0.2735   0.2830   0.2958
  0.3041   0.3063   0.3161   0.3192   0.3208   0.3269   0.3327   0.3388
  0.3438   0.3481   0.3655   0.3675   0.3711   0.3757   0.3819   0.3876
  0.3929   0.3956   0.4003   0.4063   0.4081   0.4124   0.4218   0.4295
  0.4343   0.4381   0.4433   0.4519   0.4603   0.4614   0.4642   0.4814
  0.4880   0.4935   0.4977   0.4993   0.5070   0.5139   0.5313   0.5358
  0.5392   0.5501   0.5518   0.5567   0.5702   0.5738   0.5829   0.5895
  0.5967   0.5994   0.6038   0.6049   0.6228   0.6298   0.6422   0.6598
  0.6733   0.6782   0.6908   0.6986   0.7156   0.7195   0.7290   0.7374
  0.7603   0.7765   0.7812   0.7829   0.7868   0.7902   0.7941   0.8030
  0.8070   0.8132   0.8324   0.8381   0.8663   0.8798   0.8815   0.8939
  0.8980   0.9079   0.9118   0.9277   0.9369   0.9411   0.9593   0.9701
  0.9830   0.9900   0.9916   0.9952   1.0017   1.0128   1.0209   1.0299
  1.0432   1.0680   1.0841   1.0983   1.1177   1.1256   1.1299   1.1486
  1.1719   1.1951   1.2036   1.2087   1.2112   1.2271   1.2373   1.2690
  1.2777   1.2868   1.2873   1.2997   1.3212   1.3396   1.3438   1.3542
  1.3743   1.3845   1.4071   1.4353   1.4497   1.5117   1.5148   1.5593
  1.6329   1.6696   1.6873   1.7022   1.7146   1.7156   1.7313   1.7533
  1.7562   1.7750   1.7873   1.8020   1.8211   1.8309   1.8473   1.8790
  1.8880   1.9011   1.9069   1.9137   1.9193   1.9378   1.9516   1.9768
  1.9834   2.0236   2.0301   2.0652   2.0886   2.0966   2.1042   2.1312
  2.1717   2.2111   2.2215   2.2523   2.3145   2.3444   2.3749   2.3849
  2.4260   2.4629   2.4902   2.5019   2.5116   2.5432   2.5745   2.5773
  2.6372   2.7185   2.7244   2.7475   2.7600   2.7766   2.8013   2.8164
  2.8231   2.8805   2.9193   2.9448   2.9478   2.9670   2.9681   2.9730
  2.9822   2.9913   3.0011   3.0138   3.0292   3.0394   3.0472   3.0511
  3.0661   3.0750   3.1061   3.1246   3.1340   3.1366   3.1545   3.1585
  3.1777   3.1993   3.2050   3.2135   3.2309   3.2910   3.2949   3.3028
  3.3271   3.3410   3.3574   3.3582   3.3902   3.4207   3.4353   3.4610
  3.4838   3.5126   3.5160   3.5283   3.5299   3.5645   3.5836   3.6237
  3.6369   3.6804   3.6922   3.7231   3.7466   3.7638   3.7720   3.7983
  3.8034   3.8154   3.8178   3.8397   3.8754   3.8976   3.9640   4.0001
  4.0395   4.0421   4.0476   4.0627   4.1105   4.1473   4.2019   4.2171
  4.2919   4.3041   4.3277   4.3731   4.3804   4.3870   4.3929   4.4368
  4.4851   4.6393   4.6584   4.7061   4.7351   4.7804   4.7962   4.8120
  4.9612   4.9842   4.9860   5.0634   5.0920   5.1021   5.1166   5.1210
  5.1774   5.1882   5.2024   5.2420   5.2458   5.2522   5.2543   5.2985
  5.3073   5.3244   5.3282   5.3532   5.4180   5.4765   5.5544   5.5812
  5.6216   5.6548   5.6819   5.7132   5.7144   5.7333   5.7745   5.8871
  5.9327   5.9391   5.9738   6.0699   6.0715   6.1560   6.1907   6.2539
  6.2625   6.3282   6.3303   6.4125   6.4158   6.4247   6.4298   6.4518
  6.4841   6.5221   6.5389   6.5437   6.5551   6.5782   6.6005   6.6189
  6.6681   6.7876   6.8588   6.8647   6.8812   6.9597   6.9799   7.0429
  7.0455   7.0529   7.0719   7.0998   7.2122   7.2338   7.2929   7.3237
  7.3348   7.4950   7.5980   7.6557   7.8736   7.8766  23.6670  23.7011
 24.0173  24.3339  44.0683  44.1542  44.3514  44.4047  44.4489
 --------------------------------------------------------------
 
          Ground-State Mulliken Net Atomic Charges

     Atom                 Charge (a.u.)
  ----------------------------------------
      1 O                    -0.303926
      2 C                     0.628412
      3 O                    -0.309826
      4 O                    -0.350451
      5 O                     0.021169
      6 C                     0.705267
      7 O                    -0.106897
      8 C                    -0.049629
      9 C                     0.178840
     10 H                     0.369888
     11 H                     0.060646
     12 H                     0.059716
     13 H                     0.048380
     14 H                     0.048411
  ----------------------------------------
  Sum of atomic charges =     1.000000

  Building new vdw surfaces
         Merz-Kollman RESP Net Atomic Charges

     Atom                 Charge (a.u.)
  ----------------------------------------
      1 O                    -0.391455
      2 C                     0.739916
      3 O                    -0.371651
      4 O                    -0.220337
      5 O                    -0.097215
      6 C                     0.777184
      7 O                    -0.206289
      8 C                    -0.258928
      9 C                    -0.258928
     10 H                     0.522282
     11 H                     0.191355
     12 H                     0.191355
     13 H                     0.191355
     14 H                     0.191355
  ----------------------------------------
  Sum of atomic charges =     1.000000

  Related Dipole Moment =    20.5316 (X -14.8932 Y 14.1301 Z  0.2804)

 -----------------------------------------------------------------
                    Cartesian Multipole Moments
 -----------------------------------------------------------------
    Charge (ESU x 10^10)
                 4.8032
    Dipole Moment (Debye)
         X     -14.8760      Y      14.1566      Z       0.2886
       Tot      20.5375
    Quadrupole Moments (Debye-Ang)
        XX     -11.9289     XY     -27.2365     YY     -23.2131
        XZ      -1.1972     YZ       0.6532     ZZ     -45.9025
    Octopole Moments (Debye-Ang^2)
       XXX    -329.7737    XXY     103.3707    XYY    -163.0513
       YYY     121.9421    XXZ       3.5963    XYZ      -2.9611
       YYZ       0.5384    XZZ     -57.9508    YZZ       2.2453
       ZZZ      -2.3237
    Hexadecapole Moments (Debye-Ang^3)
      XXXX   -1960.1911   XXXY     334.8965   XXYY    -458.7010
      XYYY     588.7408   YYYY   -1140.9060   XXXZ     -34.9995
      XXYZ      10.7662   XYYZ     -11.3844   YYYZ      10.8921
      XXZZ    -401.9814   XYZZ     221.9902   YYZZ    -215.4611
      XZZZ     -13.5901   YZZZ       4.8129   ZZZZ     -55.5068
 -----------------------------------------------------------------
 Calculating analytic gradient of the SCF energy
 Gradient of CDS energy
            1           2           3           4           5           6
    1  -0.0007161   0.0012338  -0.0006809  -0.0000291   0.0001274   0.0006278
    2  -0.0000468  -0.0002374   0.0002393   0.0004273  -0.0001306   0.0002404
    3  -0.0000484   0.0000856  -0.0000336   0.0000168  -0.0000134  -0.0000392
            7           8           9          10          11          12
    1  -0.0003426  -0.0011160   0.0010797  -0.0003186   0.0001412   0.0001461
    2  -0.0006457  -0.0010525   0.0009191   0.0004127   0.0000452   0.0000421
    3  -0.0000288  -0.0000049  -0.0000114   0.0000721   0.0002420  -0.0002395
           13          14
    1  -0.0000337  -0.0001191
    2  -0.0001311  -0.0000821
    3  -0.0002349   0.0002377
 Gradient of SCF Energy
            1           2           3           4           5           6
    1  -0.0056479  -0.0023272   0.0070768   0.0045987   0.1554423  -0.0490188
    2  -0.0324317  -0.0002598   0.0336263  -0.0071963  -0.0266527   0.0021807
    3  -0.0002516   0.0000389   0.0001569   0.0001633  -0.0181259   0.0042937
            7           8           9          10          11          12
    1  -0.0457275   0.0272663  -0.0124206  -0.0590434  -0.0177194  -0.0187987
    2   0.0671422   0.0196383  -0.0283368  -0.0435645  -0.0086424  -0.0071415
    3   0.0119796   0.0006676  -0.0001709   0.0017005  -0.0333000   0.0329437
           13          14
    1   0.0079519   0.0083675
    2   0.0161539   0.0154844
    3   0.0305189  -0.0306150
 Max gradient component =       1.554E-01
 RMS gradient           =       3.439E-02
 Computing fast CPCM-SWIG gradient
 Updating gradient with PCM contributions...
 -- total gradient after adding PCM contribution --
---------------------------------------------------
  Atom         X              Y              Z     
---------------------------------------------------
   1       0.000001       0.000005      -0.000001
   2       0.000001       0.000000       0.000002
   3      -0.000015       0.000018       0.000011
   4       0.000002      -0.000003       0.000020
   5       0.000019      -0.000010      -0.000007
   6      -0.000002      -0.000004      -0.000000
   7      -0.000003      -0.000003      -0.000001
   8       0.000003       0.000006      -0.000008
   9      -0.000023      -0.000033      -0.000017
  10      -0.000003      -0.000004      -0.000001
  11       0.000005       0.000003      -0.000001
  12      -0.000002      -0.000002       0.000002
  13       0.000047      -0.000013       0.000009
  14      -0.000031       0.000040      -0.000007
---------------------------------------------------
 Number of fixed atoms: 0
 Gradient time:  CPU 535.22 s  wall 27.30 s
 Geometry Optimization Parameters
   NAtoms,    NIC,     NZ,  NCons,   NDum,   NFix, NCnnct, MaxDiis
       14     230       0       0       0       0       0       0

 Cartesian Hessian Update
 Hessian updated using BFGS update


** GEOMETRY OPTIMIZATION IN DELOCALIZED INTERNAL COORDINATES **
   Searching for a Minimum

   Optimization Cycle:   3

                       Coordinates (Angstroms)
     ATOM                X               Y               Z
      1  O         4.1993020902   -3.1367477966    0.1177725382
      2  C         4.3888872490   -1.9932693774    0.1231963828
      3  O         4.6136155365   -0.8554313634    0.1308430268
      4  O         1.6416234806   -1.2975714257   -0.0683735146
      5  O        -0.8204088893    2.5321220688   -0.1254052887
      6  C        -1.9090800728    2.7748798609    0.0068533699
      7  O        -3.0566540128    3.1543017893    0.1584311706
      8  C         0.3043799670   -0.7938476149   -0.0854635790
      9  C         1.4469277263    0.1172593863   -0.0795733284
     10  H        -3.7714477963    2.4536888657    0.1614665594
     11  H        -0.2366714604   -0.9671109690   -1.0123867159
     12  H        -0.2556739659   -0.9551680083    0.8323365611
     13  H         1.7228094014    0.6233875223    0.8423416755
     14  H         1.7415952719    0.6116815905   -1.0020388602
   Point Group: c1    Number of degrees of freedom:    36


   Energy is   -531.344093616

 Hessian updated using BFGS update

 36 Hessian modes will be used to form the next step
  Hessian Eigenvalues:
     0.000004    0.000039    0.000105    0.000177    0.000293    0.000445
     0.000838    0.001049    0.001692    0.003635    0.006891    0.009095
     0.011163    0.011966    0.012251    0.014673    0.015117    0.017688
     0.017948    0.019403    0.021761    0.035905    0.104254    0.112128
     0.114669    0.129471    0.229842    0.249134    0.261821    0.272045
     0.280968    0.401496    0.800098    0.891602    1.127617    1.337623
**WARNING** Magnitude of eigenvalue   1 too small.  Replaced by     0.000100
**WARNING** Magnitude of eigenvalue   2 too small.  Replaced by     0.000100

 Minimum search - taking simple RFO step
 Searching for Lamda that Minimizes Along All modes
 Value Taken    Lamda =  -0.00000184
 Step Taken.  Stepsize is  0.096345

                             Maximum     Tolerance    Cnvgd?
         Gradient           0.000031      0.000300     YES
         Displacement       0.052318      0.001200      NO
         Energy change     -0.000029      0.000001      NO


 New Cartesian Coordinates Obtained by Inverse Iteration

 Displacement from previous Coordinates is:  0.076025
 ----------------------------------------------------------------
             Standard Nuclear Orientation (Angstroms)
    I     Atom           X                Y                Z
 ----------------------------------------------------------------
    1      O       4.1932969276    -3.1450207386     0.1280169902
    2      C       4.3886711441    -2.0024991258     0.1260760067
    3      O       4.6192463920    -0.8658121206     0.1263661253
    4      O       1.6453877717    -1.2940751415    -0.0635510143
    5      O      -0.8296819042     2.5306464341    -0.1213563397
    6      C      -1.9182583805     2.7736990815     0.0111543686
    7      O      -3.0656862890     3.1534125085     0.1631052179
    8      C       0.3090893533    -0.7883258830    -0.0896524105
    9      C       1.4530724132     0.1210160469    -0.0835129566
   10      H      -3.7807485071     2.4530710654     0.1654423743
   11      H      -0.2280838223    -0.9660215126    -1.0180008594
   12      H      -0.2553886166    -0.9435307594     0.8265019503
   13      H       1.7252112214     0.6320828704     0.8367779302
   14      H       1.7530768217     0.6095318033    -1.0073673855
 ----------------------------------------------------------------
 Nuclear Repulsion Energy =         373.10528550 hartrees
 There are       34 alpha and       34 beta electrons
 Discretize the solute cavity surface with Lebedev spheres
	Using 110 Lebedev grid points for each H atom
	Using 194 Lebedev grid points for other atoms
	Atomic van der Waals radii will be scaled by 1.20
 Remove points where switching function is < 1.0e-08
 Keep 1146 surface tesserae and discard 1150 interior tesserae
 Molecular Surface Area = 241.458 Angst**2
 Applying Cartesian multipole field
    Component          Value
    ---------          -----
     (2,0,0)        1.00000E-11
     (0,2,0)        2.00000E-11
     (0,0,2)       -3.00000E-11
 Nucleus-field energy     =     0.0000000427 hartrees
 Requested basis set is def2-TZVPPD
 There are 157 shells and 433 basis functions
 A cutoff of  1.0D-14 yielded  10213 shell pairs
 There are     76777 function pairs (     98075 Cartesian)
 Smallest overlap matrix eigenvalue = 5.65E-06
 Guess from superposition of atomic densities
 Warning:  Energy on first SCF cycle will be non-variational
 SAD guess density has 68.075651 electrons

 -----------------------------------------------------------------------
  General SCF calculation program by
  Eric Jon Sundstrom, Paul Horn, Yuezhi Mao, Dmitri Zuev, Alec White,
  David Stuck, Shaama M.S., Shane Yost, Joonho Lee, David Small,
  Daniel Levine, Susi Lehtola, Hugh Burton, Evgeny Epifanovsky,
  Bang C. Huynh
 -----------------------------------------------------------------------
 Exchange:     0.1670 Hartree-Fock + 1.0000 wB97X-V + LR-HF
 Correlation:  1.0000 wB97X-V
 Using SG-3 standard quadrature grid
 Nonlocal Correlation:  VV10 with C = 0.0100 and b = 6.00 and scale = 1.00000
 Grid used for NLC:  SG-1 standard quadrature
 
 Citation of the SMD model:
 Marenich, A.V.; Cramer, C.J.; Truhlar, D.G.
 J. Phys. Chem. B 2009, 113, 6378-6396.
 iSolventCode=           0
 Solvent: other                                                           
 
 vradii
            1           2           3           4           5           6
    1   2.2940000   1.8500000   2.2940000   2.2940000   2.2940000   1.8500000
            7           8           9          10          11          12
    1   2.2940000   1.8500000   1.8500000   1.2000000   1.2000000   1.2000000
           13          14
    1   1.2000000   1.2000000
 using 32 threads for integral computing
 -------------------------------------------------------
 OpenMP Integral computing Module                
 Release: version 1.0, May 2013, Q-Chem Inc. Pittsburgh 
 -------------------------------------------------------
 using 32 threads for integral computing
 -------------------------------------------------------
 OpenMP Integral computing Module                
 Release: version 1.0, May 2013, Q-Chem Inc. Pittsburgh 
 -------------------------------------------------------
 -------------------------------------------------------
 OpenMP BLAS3 based DFT computing Module                
 Release: version 1.0, May 2013, Q-Chem Inc. Pittsburgh 
 -------------------------------------------------------
 -------------------------------------------------------
 OpenMP BLAS3 based DFT computing Module                
 Release: version 1.0, May 2013, Q-Chem Inc. Pittsburgh 
 -------------------------------------------------------
 -------------------------------------------------------
 OpenMP BLAS3 based DFT computing Module                
 Release: version 1.0, May 2013, Q-Chem Inc. Pittsburgh 
 -------------------------------------------------------
 A restricted SCF calculation will be
 performed using DIIS
 SCF converges when DIIS error is below 1.0e-08
 ---------------------------------------
  Cycle       Energy         DIIS error
 ---------------------------------------
    1    -538.4249678773      2.55e-02  
    2    -530.1227283858      9.01e-03  
    3    -530.2812187878      8.31e-03  
    4    -531.3259827179      9.22e-04  
    5    -531.3365572322      4.93e-04  
    6    -531.3401479423      8.22e-05  
    7    -531.3402653460      3.12e-05  
    8    -531.3402816506      1.12e-05  
    9    -531.3402845541      2.54e-06  
   10    -531.3402847833      1.21e-06  
   11    -531.3402848206      3.90e-07  
   12    -531.3402848269      1.52e-07  
   13    -531.3402848279      5.10e-08  
   14    -531.3402848280      3.68e-08  
   15    -531.3402848280      6.01e-09  Convergence criterion met
 ---------------------------------------
 SCF time:   CPU 2798.09s  wall 115.00s 
(3)  G-ENP(liq) elect-nuc-pol free energy of system     -531.340284828 a.u.
(4)  G-CDS(liq) cavity-dispersion-solvent structure 
     free energy                                               -2.3896 kcal/mol
(6)  G-S(liq) free energy of system                     -531.344092942 a.u.
 SCF   energy in the final basis set =     -531.3402848280
 Total energy in the final basis set =     -531.3440929418
 
 --------------------------------------------------------------
 
                    Orbital Energies (a.u.)
 --------------------------------------------------------------
 
 Alpha MOs
 -- Occupied --
-19.4651 -19.4362 -19.2885 -19.2883 -19.2353 -10.6099 -10.4550 -10.3228
-10.3220  -1.4473  -1.4062  -1.2910  -1.2469  -1.2135  -0.9396  -0.8106
 -0.7853  -0.7669  -0.7665  -0.7607  -0.6802  -0.6560  -0.6363  -0.6354
 -0.6336  -0.6318  -0.6242  -0.5954  -0.5092  -0.4900  -0.4759  -0.4751
 -0.4276  -0.3905
 -- Virtual --
 -0.0328  -0.0071   0.0021   0.0447   0.0629   0.0723   0.0794   0.0801
  0.0879   0.0949   0.1048   0.1088   0.1185   0.1200   0.1269   0.1289
  0.1321   0.1358   0.1378   0.1427   0.1526   0.1617   0.1686   0.1728
  0.1805   0.1826   0.1929   0.2000   0.2150   0.2231   0.2283   0.2377
  0.2411   0.2556   0.2563   0.2616   0.2672   0.2734   0.2833   0.2955
  0.3040   0.3063   0.3164   0.3193   0.3207   0.3269   0.3326   0.3388
  0.3437   0.3480   0.3655   0.3672   0.3712   0.3754   0.3820   0.3876
  0.3929   0.3957   0.4004   0.4061   0.4081   0.4125   0.4217   0.4292
  0.4342   0.4379   0.4432   0.4518   0.4601   0.4620   0.4644   0.4810
  0.4881   0.4933   0.4975   0.4992   0.5068   0.5139   0.5313   0.5353
  0.5392   0.5502   0.5520   0.5565   0.5699   0.5737   0.5825   0.5892
  0.5967   0.5997   0.6036   0.6047   0.6228   0.6298   0.6421   0.6595
  0.6730   0.6780   0.6907   0.6983   0.7154   0.7202   0.7290   0.7377
  0.7594   0.7759   0.7815   0.7826   0.7867   0.7900   0.7937   0.8036
  0.8071   0.8131   0.8325   0.8377   0.8664   0.8796   0.8815   0.8941
  0.8977   0.9080   0.9116   0.9271   0.9370   0.9412   0.9583   0.9701
  0.9827   0.9900   0.9920   0.9952   1.0016   1.0126   1.0207   1.0296
  1.0432   1.0680   1.0842   1.0983   1.1179   1.1260   1.1304   1.1483
  1.1720   1.1954   1.2036   1.2086   1.2112   1.2274   1.2369   1.2689
  1.2777   1.2867   1.2875   1.2997   1.3206   1.3394   1.3437   1.3546
  1.3744   1.3841   1.4066   1.4346   1.4503   1.5118   1.5147   1.5592
  1.6330   1.6697   1.6866   1.7017   1.7152   1.7163   1.7312   1.7532
  1.7562   1.7753   1.7869   1.8020   1.8211   1.8305   1.8471   1.8794
  1.8880   1.9010   1.9065   1.9138   1.9191   1.9378   1.9516   1.9768
  1.9832   2.0235   2.0301   2.0652   2.0888   2.0962   2.1044   2.1312
  2.1717   2.2113   2.2218   2.2527   2.3148   2.3444   2.3749   2.3848
  2.4265   2.4628   2.4902   2.5018   2.5115   2.5430   2.5744   2.5772
  2.6372   2.7188   2.7240   2.7473   2.7599   2.7765   2.8014   2.8167
  2.8229   2.8805   2.9191   2.9446   2.9476   2.9671   2.9681   2.9730
  2.9823   2.9909   3.0013   3.0137   3.0292   3.0396   3.0468   3.0511
  3.0661   3.0753   3.1061   3.1246   3.1334   3.1366   3.1551   3.1584
  3.1777   3.1998   3.2051   3.2126   3.2306   3.2909   3.2942   3.3028
  3.3271   3.3411   3.3573   3.3581   3.3898   3.4210   3.4353   3.4601
  3.4837   3.5128   3.5159   3.5283   3.5293   3.5642   3.5836   3.6237
  3.6369   3.6805   3.6922   3.7227   3.7467   3.7637   3.7717   3.7984
  3.8034   3.8153   3.8179   3.8394   3.8753   3.8976   3.9640   4.0000
  4.0395   4.0421   4.0477   4.0625   4.1105   4.1473   4.2017   4.2172
  4.2921   4.3041   4.3276   4.3731   4.3805   4.3869   4.3932   4.4366
  4.4849   4.6395   4.6583   4.7062   4.7350   4.7805   4.7962   4.8120
  4.9612   4.9842   4.9860   5.0633   5.0921   5.1021   5.1167   5.1207
  5.1774   5.1883   5.2022   5.2420   5.2459   5.2523   5.2544   5.2984
  5.3072   5.3245   5.3282   5.3531   5.4179   5.4765   5.5544   5.5811
  5.6218   5.6548   5.6819   5.7132   5.7143   5.7333   5.7745   5.8871
  5.9327   5.9391   5.9738   6.0700   6.0714   6.1560   6.1907   6.2540
  6.2625   6.3282   6.3303   6.4126   6.4157   6.4246   6.4299   6.4517
  6.4840   6.5221   6.5390   6.5437   6.5551   6.5781   6.6005   6.6187
  6.6679   6.7875   6.8588   6.8646   6.8812   6.9597   6.9798   7.0430
  7.0455   7.0529   7.0718   7.0996   7.2122   7.2337   7.2926   7.3237
  7.3349   7.4949   7.5980   7.6558   7.8736   7.8766  23.6673  23.7003
 24.0175  24.3339  44.0681  44.1540  44.3506  44.4050  44.4487
 --------------------------------------------------------------
 
          Ground-State Mulliken Net Atomic Charges

     Atom                 Charge (a.u.)
  ----------------------------------------
      1 O                    -0.304003
      2 C                     0.628569
      3 O                    -0.309781
      4 O                    -0.349787
      5 O                     0.021124
      6 C                     0.705428
      7 O                    -0.106812
      8 C                    -0.051140
      9 C                     0.179118
     10 H                     0.369862
     11 H                     0.059987
     12 H                     0.060794
     13 H                     0.048628
     14 H                     0.048012
  ----------------------------------------
  Sum of atomic charges =     1.000000

  Building new vdw surfaces
         Merz-Kollman RESP Net Atomic Charges

     Atom                 Charge (a.u.)
  ----------------------------------------
      1 O                    -0.391059
      2 C                     0.738922
      3 O                    -0.371115
      4 O                    -0.220703
      5 O                    -0.096764
      6 C                     0.776406
      7 O                    -0.205853
      8 C                    -0.257422
      9 C                    -0.257422
     10 H                     0.522217
     11 H                     0.190698
     12 H                     0.190698
     13 H                     0.190698
     14 H                     0.190698
  ----------------------------------------
  Sum of atomic charges =     1.000000

  Related Dipole Moment =    20.5623 (X -14.9342 Y 14.1313 Z  0.2833)

 -----------------------------------------------------------------
                    Cartesian Multipole Moments
 -----------------------------------------------------------------
    Charge (ESU x 10^10)
                 4.8032
    Dipole Moment (Debye)
         X     -14.9176      Y      14.1571      Z       0.2905
       Tot      20.5680
    Quadrupole Moments (Debye-Ang)
        XX     -11.6958     XY     -27.3519     YY     -23.2291
        XZ      -1.2842     YZ       0.7654     ZZ     -45.8982
    Octopole Moments (Debye-Ang^2)
       XXX    -330.9349    XXY     103.9169    XYY    -163.1124
       YYY     122.1535    XXZ       3.6833    XYZ      -2.9468
       YYZ       0.4342    XZZ     -57.9080    YZZ       2.3360
       ZZZ      -2.5787
    Hexadecapole Moments (Debye-Ang^3)
      XXXX   -1960.5550   XXXY     334.0496   XXYY    -457.4810
      XYYY     590.7074   YYYY   -1144.1228   XXXZ     -35.5859
      XXYZ      11.7161   XYYZ     -12.3041   YYYZ      11.8645
      XXZZ    -402.6351   XYZZ     222.8285   YYZZ    -215.8431
      XZZZ     -13.7274   YZZZ       4.9750   ZZZZ     -55.6137
 -----------------------------------------------------------------
 Calculating analytic gradient of the SCF energy
 Gradient of CDS energy
            1           2           3           4           5           6
    1  -0.0007167   0.0012331  -0.0006592  -0.0000280   0.0001158   0.0006276
    2  -0.0000434  -0.0002435   0.0002266   0.0004273  -0.0001240   0.0002403
    3  -0.0000466   0.0000843  -0.0000470   0.0000120   0.0000127  -0.0000390
            7           8           9          10          11          12
    1  -0.0003428  -0.0011189   0.0011067  -0.0003184   0.0001402   0.0001473
    2  -0.0006455  -0.0010521   0.0009346   0.0004128   0.0000464   0.0000405
    3  -0.0000294  -0.0000035  -0.0000212   0.0000725   0.0002423  -0.0002391
           13          14
    1  -0.0001084  -0.0000783
    2  -0.0000924  -0.0001274
    3  -0.0002390   0.0002410
 Gradient of SCF Energy
            1           2           3           4           5           6
    1  -0.0057954  -0.0023297   0.0072449   0.0045912   0.1554296  -0.0490380
    2  -0.0323448  -0.0002359   0.0334969  -0.0072563  -0.0265795   0.0020758
    3  -0.0000407   0.0000388  -0.0000725   0.0001441  -0.0181008   0.0042738
            7           8           9          10          11          12
    1  -0.0457105   0.0272356  -0.0124105  -0.0590511  -0.0175337  -0.0189646
    2   0.0671662   0.0195694  -0.0282019  -0.0435437  -0.0087562  -0.0069308
    3   0.0120424   0.0006246   0.0000719   0.0016676  -0.0333241   0.0328978
           13          14
    1   0.0077681   0.0085641
    2   0.0163683   0.0151724
    3   0.0303843  -0.0306071
 Max gradient component =       1.554E-01
 RMS gradient           =       3.438E-02
 Computing fast CPCM-SWIG gradient
 Updating gradient with PCM contributions...
 -- total gradient after adding PCM contribution --
---------------------------------------------------
  Atom         X              Y              Z     
---------------------------------------------------
   1       0.000003      -0.000001      -0.000001
   2       0.000001       0.000006       0.000002
   3       0.000007      -0.000004      -0.000002
   4      -0.000002      -0.000002      -0.000026
   5       0.000000       0.000002       0.000016
   6      -0.000004      -0.000003       0.000002
   7      -0.000002      -0.000003       0.000002
   8       0.000000      -0.000003       0.000002
   9       0.000018       0.000009       0.000020
  10      -0.000003      -0.000003      -0.000002
  11      -0.000006      -0.000008      -0.000004
  12       0.000004       0.000001       0.000001
  13      -0.000047       0.000047      -0.000008
  14       0.000031      -0.000039      -0.000000
---------------------------------------------------
 Number of fixed atoms: 0
 Gradient time:  CPU 567.62 s  wall 28.31 s
 Geometry Optimization Parameters
   NAtoms,    NIC,     NZ,  NCons,   NDum,   NFix, NCnnct, MaxDiis
       14     230       0       0       0       0       0       0

 Cartesian Hessian Update
 Hessian updated using BFGS update


** GEOMETRY OPTIMIZATION IN DELOCALIZED INTERNAL COORDINATES **
   Searching for a Minimum

   Optimization Cycle:   4

                       Coordinates (Angstroms)
     ATOM                X               Y               Z
      1  O         4.1932969276   -3.1450207386    0.1280169902
      2  C         4.3886711441   -2.0024991258    0.1260760067
      3  O         4.6192463920   -0.8658121206    0.1263661253
      4  O         1.6453877717   -1.2940751415   -0.0635510143
      5  O        -0.8296819042    2.5306464341   -0.1213563397
      6  C        -1.9182583805    2.7736990815    0.0111543686
      7  O        -3.0656862890    3.1534125085    0.1631052179
      8  C         0.3090893533   -0.7883258830   -0.0896524105
      9  C         1.4530724132    0.1210160469   -0.0835129566
     10  H        -3.7807485071    2.4530710654    0.1654423743
     11  H        -0.2280838223   -0.9660215126   -1.0180008594
     12  H        -0.2553886166   -0.9435307594    0.8265019503
     13  H         1.7252112214    0.6320828704    0.8367779302
     14  H         1.7530768217    0.6095318033   -1.0073673855
   Point Group: c1    Number of degrees of freedom:    36


   Energy is   -531.344092942

 Hessian updated using BFGS update

 36 Hessian modes will be used to form the next step
  Hessian Eigenvalues:
     0.000005    0.000086    0.000109    0.000176    0.000301    0.000381
     0.000832    0.001039    0.001681    0.003472    0.006895    0.009087
     0.011475    0.011972    0.012293    0.014671    0.015097    0.017679
     0.017948    0.019404    0.022229    0.035905    0.104253    0.112128
     0.114619    0.129484    0.229897    0.248981    0.261821    0.272044
     0.281006    0.401496    0.800096    0.891587    1.127609    1.337623
**WARNING** Magnitude of eigenvalue   1 too small.  Replaced by     0.000100
**WARNING** Magnitude of eigenvalue   2 too small.  Replaced by     0.000100

 Minimum search - taking simple RFO step
 Searching for Lamda that Minimizes Along All modes
 Value Taken    Lamda =  -0.00000130
 Step Taken.  Stepsize is  0.095227

                             Maximum     Tolerance    Cnvgd?
         Gradient           0.000035      0.000300     YES
         Displacement       0.061874      0.001200      NO
         Energy change      0.000001      0.000001     YES


                       Distance Matrix (Angstroms)
             O (  1)   C (  2)   O (  3)   O (  4)   O (  5)   C (  6)
   C (  2)  1.159108
   O (  3)  2.318669  1.159837
   O (  4)  3.155081  2.839617  3.010534
   O (  5)  7.583251  6.916780  6.425583  4.556074
   C (  6)  8.508584  7.912183  7.483200  5.408506  1.123224
   O (  7)  9.610636  9.063787  8.672584  6.482726  2.338476  1.218139
   C (  8)  4.548457  4.261894  4.316262  1.429041  3.509043  4.202292
   C (  9)  4.268556  3.629185  3.323031  1.428239  3.319445  4.290869
   H ( 10)  9.742968  9.305540  9.031967  6.598219  2.965985  1.896174
   H ( 11)  5.060633  4.868021  4.981589  2.128025  3.659587  4.231000
   H ( 12)  5.012509  4.814489  4.925271  2.127916  3.646664  4.153038
   H ( 13)  4.567308  3.813153  3.335238  2.127686  3.324161  4.306164
   H ( 14)  4.619571  3.879917  3.417151  2.127465  3.338613  4.381747
             O (  7)   C (  8)   C (  9)   H ( 10)   H ( 11)   H ( 12)
   C (  8)  5.195219
   C (  9)  5.447516  1.461382
   H ( 10)  1.000898  5.224797  5.735272
   H ( 11)  5.139721  1.087181  2.209345  5.070716
   H ( 12)  5.012266  1.087227  2.209123  4.939845  1.844842
   H ( 13)  5.455606  2.209352  1.087283  5.838003  3.132013  2.530897
   H ( 14)  5.573313  2.209368  1.087271  5.949567  2.531300  3.131934
             H ( 13)
   H ( 14)  1.844494
 
 Final energy is   -531.344092941794     


 ******************************
 **  OPTIMIZATION CONVERGED  **
 ******************************

                       Coordinates (Angstroms)
     ATOM                X               Y               Z
      1  O         4.1932969276   -3.1450207386    0.1280169902
      2  C         4.3886711441   -2.0024991258    0.1260760067
      3  O         4.6192463920   -0.8658121206    0.1263661253
      4  O         1.6453877717   -1.2940751415   -0.0635510143
      5  O        -0.8296819042    2.5306464341   -0.1213563397
      6  C        -1.9182583805    2.7736990815    0.0111543686
      7  O        -3.0656862890    3.1534125085    0.1631052179
      8  C         0.3090893533   -0.7883258830   -0.0896524105
      9  C         1.4530724132    0.1210160469   -0.0835129566
     10  H        -3.7807485071    2.4530710654    0.1654423743
     11  H        -0.2280838223   -0.9660215126   -1.0180008594
     12  H        -0.2553886166   -0.9435307594    0.8265019503
     13  H         1.7252112214    0.6320828704    0.8367779302
     14  H         1.7530768217    0.6095318033   -1.0073673855

Z-matrix Print:
$molecule
1 1
O 
C  1 1.428239
H  2 1.087271 1 114.827687
H  2 1.087283 1 114.846009 3 -138.348778 0
C  1 1.429041 2 61.522150 3 -110.831260 0
H  5 1.087181 1 114.820887 2 110.825408 0
H  5 1.087227 1 114.808294 2 -110.802860 0
C  1 2.839617 2 112.222196 3 72.221648 0
O  8 1.159108 1 94.771558 2 179.523919 0
O  8 1.159837 1 86.994775 2 -0.483978 0
O  2 3.319445 1 144.290766 3 111.582448 0
C  11 1.123224 2 145.306924 1 12.466205 0
O  12 1.218139 11 174.304551 2 164.666118 0
H  13 1.000898 12 117.073238 11 -179.951260 0
$end

 
 --------------------------------------------------------------
 
                    Orbital Energies (a.u.)
 --------------------------------------------------------------
 
 Alpha MOs
 -- Occupied --
-19.4651 -19.4362 -19.2885 -19.2883 -19.2353 -10.6099 -10.4550 -10.3228
-10.3220  -1.4473  -1.4062  -1.2910  -1.2469  -1.2135  -0.9396  -0.8106
 -0.7853  -0.7669  -0.7665  -0.7607  -0.6802  -0.6560  -0.6363  -0.6354
 -0.6336  -0.6318  -0.6242  -0.5954  -0.5092  -0.4900  -0.4759  -0.4751
 -0.4276  -0.3905
 -- Virtual --
 -0.0328  -0.0071   0.0021   0.0447   0.0629   0.0723   0.0794   0.0801
  0.0879   0.0949   0.1048   0.1088   0.1185   0.1200   0.1269   0.1289
  0.1321   0.1358   0.1378   0.1427   0.1526   0.1617   0.1686   0.1728
  0.1805   0.1826   0.1929   0.2000   0.2150   0.2231   0.2283   0.2377
  0.2411   0.2556   0.2563   0.2616   0.2672   0.2734   0.2833   0.2955
  0.3040   0.3063   0.3164   0.3193   0.3207   0.3269   0.3326   0.3388
  0.3437   0.3480   0.3655   0.3672   0.3712   0.3754   0.3820   0.3876
  0.3929   0.3957   0.4004   0.4061   0.4081   0.4125   0.4217   0.4292
  0.4342   0.4379   0.4432   0.4518   0.4601   0.4620   0.4644   0.4810
  0.4881   0.4933   0.4975   0.4992   0.5068   0.5139   0.5313   0.5353
  0.5392   0.5502   0.5520   0.5565   0.5699   0.5737   0.5825   0.5892
  0.5967   0.5997   0.6036   0.6047   0.6228   0.6298   0.6421   0.6595
  0.6730   0.6780   0.6907   0.6983   0.7154   0.7202   0.7290   0.7377
  0.7594   0.7759   0.7815   0.7826   0.7867   0.7900   0.7937   0.8036
  0.8071   0.8131   0.8325   0.8377   0.8664   0.8796   0.8815   0.8941
  0.8977   0.9080   0.9116   0.9271   0.9370   0.9412   0.9583   0.9701
  0.9827   0.9900   0.9920   0.9952   1.0016   1.0126   1.0207   1.0296
  1.0432   1.0680   1.0842   1.0983   1.1179   1.1260   1.1304   1.1483
  1.1720   1.1954   1.2036   1.2086   1.2112   1.2274   1.2369   1.2689
  1.2777   1.2867   1.2875   1.2997   1.3206   1.3394   1.3437   1.3546
  1.3744   1.3841   1.4066   1.4346   1.4503   1.5118   1.5147   1.5592
  1.6330   1.6697   1.6866   1.7017   1.7152   1.7163   1.7312   1.7532
  1.7562   1.7753   1.7869   1.8020   1.8211   1.8305   1.8471   1.8794
  1.8880   1.9010   1.9065   1.9138   1.9191   1.9378   1.9516   1.9768
  1.9832   2.0235   2.0301   2.0652   2.0888   2.0962   2.1044   2.1312
  2.1717   2.2113   2.2218   2.2527   2.3148   2.3444   2.3749   2.3848
  2.4265   2.4628   2.4902   2.5018   2.5115   2.5430   2.5744   2.5772
  2.6372   2.7188   2.7240   2.7473   2.7599   2.7765   2.8014   2.8167
  2.8229   2.8805   2.9191   2.9446   2.9476   2.9671   2.9681   2.9730
  2.9823   2.9909   3.0013   3.0137   3.0292   3.0396   3.0468   3.0511
  3.0661   3.0753   3.1061   3.1246   3.1334   3.1366   3.1551   3.1584
  3.1777   3.1998   3.2051   3.2126   3.2306   3.2909   3.2942   3.3028
  3.3271   3.3411   3.3573   3.3581   3.3898   3.4210   3.4353   3.4601
  3.4837   3.5128   3.5159   3.5283   3.5293   3.5642   3.5836   3.6237
  3.6369   3.6805   3.6922   3.7227   3.7467   3.7637   3.7717   3.7984
  3.8034   3.8153   3.8179   3.8394   3.8753   3.8976   3.9640   4.0000
  4.0395   4.0421   4.0477   4.0625   4.1105   4.1473   4.2017   4.2172
  4.2921   4.3041   4.3276   4.3731   4.3805   4.3869   4.3932   4.4366
  4.4849   4.6395   4.6583   4.7062   4.7350   4.7805   4.7962   4.8120
  4.9612   4.9842   4.9860   5.0633   5.0921   5.1021   5.1167   5.1207
  5.1774   5.1883   5.2022   5.2420   5.2459   5.2523   5.2544   5.2984
  5.3072   5.3245   5.3282   5.3531   5.4179   5.4765   5.5544   5.5811
  5.6218   5.6548   5.6819   5.7132   5.7143   5.7333   5.7745   5.8871
  5.9327   5.9391   5.9738   6.0700   6.0714   6.1560   6.1907   6.2540
  6.2625   6.3282   6.3303   6.4126   6.4157   6.4246   6.4299   6.4517
  6.4840   6.5221   6.5390   6.5437   6.5551   6.5781   6.6005   6.6187
  6.6679   6.7875   6.8588   6.8646   6.8812   6.9597   6.9798   7.0430
  7.0455   7.0529   7.0718   7.0996   7.2122   7.2337   7.2926   7.3237
  7.3349   7.4949   7.5980   7.6558   7.8736   7.8766  23.6673  23.7003
 24.0175  24.3339  44.0681  44.1540  44.3506  44.4050  44.4487
 --------------------------------------------------------------
 
          Ground-State Mulliken Net Atomic Charges

     Atom                 Charge (a.u.)
  ----------------------------------------
      1 O                    -0.304003
      2 C                     0.628569
      3 O                    -0.309781
      4 O                    -0.349787
      5 O                     0.021124
      6 C                     0.705428
      7 O                    -0.106812
      8 C                    -0.051140
      9 C                     0.179118
     10 H                     0.369862
     11 H                     0.059987
     12 H                     0.060794
     13 H                     0.048628
     14 H                     0.048012
  ----------------------------------------
  Sum of atomic charges =     1.000000

         Merz-Kollman RESP Net Atomic Charges

     Atom                 Charge (a.u.)
  ----------------------------------------
      1 O                    -0.391059
      2 C                     0.738922
      3 O                    -0.371115
      4 O                    -0.220703
      5 O                    -0.096764
      6 C                     0.776406
      7 O                    -0.205853
      8 C                    -0.257422
      9 C                    -0.257422
     10 H                     0.522217
     11 H                     0.190698
     12 H                     0.190698
     13 H                     0.190698
     14 H                     0.190698
  ----------------------------------------
  Sum of atomic charges =     1.000000

  Related Dipole Moment =    20.5623 (X -14.9342 Y 14.1313 Z  0.2833)

 -----------------------------------------------------------------
                    Cartesian Multipole Moments
 -----------------------------------------------------------------
    Charge (ESU x 10^10)
                 4.8032
    Dipole Moment (Debye)
         X     -14.9176      Y      14.1571      Z       0.2905
       Tot      20.5680
    Quadrupole Moments (Debye-Ang)
        XX     -11.6958     XY     -27.3519     YY     -23.2291
        XZ      -1.2842     YZ       0.7654     ZZ     -45.8982
    Octopole Moments (Debye-Ang^2)
       XXX    -330.9349    XXY     103.9169    XYY    -163.1124
       YYY     122.1535    XXZ       3.6833    XYZ      -2.9468
       YYZ       0.4342    XZZ     -57.9080    YZZ       2.3360
       ZZZ      -2.5787
    Hexadecapole Moments (Debye-Ang^3)
      XXXX   -1960.5550   XXXY     334.0496   XXYY    -457.4810
      XYYY     590.7074   YYYY   -1144.1228   XXXZ     -35.5859
      XXYZ      11.7161   XYYZ     -12.3041   YYYZ      11.8645
      XXZZ    -402.6351   XYZZ     222.8285   YYZZ    -215.8431
      XZZZ     -13.7274   YZZZ       4.9750   ZZZZ     -55.6137
 -----------------------------------------------------------------
Archival summary:
1\1\nid01744\OPT\ProcedureUnspecified\BasisUnspecified\545(1+,1)\sblau\WedJul1713:36:162019WedJul1713:36:162019\0\\#,OPT,ProcedureUnspecified,BasisUnspecified,\\1,1\O\C,1,1.42824\H,2,1.08727,1,114.828\H,2,1.08728,1,114.846,3,-138.349,0\C,1,1.42904,2,61.5222,3,-110.831,0\H,5,1.08718,1,114.821,2,110.825,0\H,5,1.08723,1,114.808,2,-110.803,0\C,1,2.83962,2,112.222,3,72.2216,0\O,8,1.15911,1,94.7716,2,179.524,0\O,8,1.15984,1,86.9948,2,-0.483978,0\O,2,3.31945,1,144.291,3,111.582,0\C,11,1.12322,2,145.307,1,12.4662,0\O,12,1.21814,11,174.305,2,164.666,0\H,13,1.0009,12,117.073,11,-179.951,0\\\@

 Total job time:  578.75s(wall), 13587.56s(cpu) 
 Wed Jul 17 13:36:16 2019

        *************************************************************
        *                                                           *
        *  Thank you very much for using Q-Chem.  Have a nice day.  *
        *                                                           *
        *************************************************************


