
Running Job 1 of 1 mol.qin
qchem mol.qin_132492.0 /tmp/scratch/ 0
/clusterfs/mp/software/qchem5.4/exe/qcprog.exe_s mol.qin_132492.0 /tmp/scratch/
                  Welcome to Q-Chem
     A Quantum Leap Into The Future Of Chemistry


 Q-Chem 5.4, Q-Chem, Inc., Pleasanton, CA (2021)

 E. Epifanovsky,  A. T. B. Gilbert,  Xintian Feng,  Joonho Lee,  Yuezhi Mao,  
 N. Mardirossian,  P. Pokhilko,  A. White,  M. Wormit,  M. P. Coons,  
 A. L. Dempwolff,  Zhengting Gan,  D. Hait,  P. R. Horn,  L. D. Jacobson,  
 I. Kaliman,  J. Kussmann,  A. W. Lange,  Ka Un Lao,  D. S. Levine,  Jie Liu,  
 S. C. McKenzie,  A. F. Morrison,  K. Nanda,  F. Plasser,  D. R. Rehn,  
 M. L. Vidal,  Zhi-Qiang You,  Ying Zhu,  B. Alam,  B. Albrecht,  
 A. Aldossary,  E. Alguire,  J. H. Andersen,  D. Barton,  K. Begam,  A. Behn,  
 Y. A. Bernard,  E. J. Berquist,  H. Burton,  A. Carreras,  K. Carter-Fenk,  
 Romit Chakraborty,  A. D. Chien,  K. D. Closser,  V. Cofer-Shabica,  
 S. Dasgupta,  Jia Deng,  M. de Wergifosse,  M. Diedenhofen,  Hainam Do,  
 S. Ehlert,  Po-Tung Fang,  S. Fatehi,  Qingguo Feng,  T. Friedhoff,  
 J. Gayvert,  Qinghui Ge,  G. Gidofalvi,  M. Goldey,  J. Gomes,  
 C. Gonzalez-Espinoza,  S. Gulania,  A. Gunina,  M. W. D. Hanson-Heine,  
 P. H. P. Harbach,  A. W. Hauser,  M. F. Herbst,  M. Hernandez Vera,  
 M. Hodecker,  Z. C. Holden,  S. Houck,  Xunkun Huang,  Kerwin Hui,  
 B. C. Huynh,  M. Ivanov,  Hyunjun Ji,  Hanjie Jiang,  B. Kaduk,  S. Kaehler,  
 K. Khistyaev,  Jaehoon Kim,  P. Klunzinger,  Z. Koczor-Benda,  
 Joong Hoon Koh,  D. Kosenkov,  L. Koulias,  T. Kowalczyk,  C. M. Krauter,  
 K. Kue,  A. Kunitsa,  T. Kus,  A. Landau,  K. V. Lawler,  D. Lefrancois,  
 S. Lehtola,  Rain Li,  Yi-Pei Li,  Jiashu Liang,  M. Liebenthal,  
 Hung-Hsuan Lin,  You-Sheng Lin,  Fenglai Liu,  Kuan-Yu Liu,  
 M. Loipersberger,  A. Luenser,  A. Manjanath,  P. Manohar,  E. Mansoor,  
 S. F. Manzer,  Shan-Ping Mao,  A. V. Marenich,  T. Markovich,  S. Mason,  
 S. A. Maurer,  P. F. McLaughlin,  M. F. S. J. Menger,  J.-M. Mewes,  
 S. A. Mewes,  P. Morgante,  J. W. Mullinax,  K. J. Oosterbaan,  G. Paran,  
 Alexander C. Paul,  Suranjan K. Paul,  F. Pavosevic,  Zheng Pei,  S. Prager,  
 E. I. Proynov,  E. Ramos,  B. Rana,  A. E. Rask,  A. Rettig,  R. M. Richard,  
 F. Rob,  E. Rossomme,  T. Scheele,  M. Scheurer,  M. Schneider,  
 N. Sergueev,  S. M. Sharada,  W. Skomorowski,  D. W. Small,  C. J. Stein,  
 Yu-Chuan Su,  E. J. Sundstrom,  Zhen Tao,  J. Thirman,  T. Tsuchimochi,  
 N. M. Tubman,  S. P. Veccham,  O. Vydrov,  J. Wenzel,  J. Witte,  A. Yamada,  
 Kun Yao,  S. Yeganeh,  S. R. Yost,  A. Zech,  Igor Ying Zhang,  Xing Zhang,  
 Yu Zhang,  D. Zuev,  A. Aspuru-Guzik,  A. T. Bell,  N. A. Besley,  
 K. B. Bravaya,  B. R. Brooks,  D. Casanova,  Jeng-Da Chai,  S. Coriani,  
 C. J. Cramer,  A. E. DePrince, III,  R. A. DiStasio Jr.,  A. Dreuw,  
 B. D. Dunietz,  T. R. Furlani,  W. A. Goddard III,  S. Grimme,  
 S. Hammes-Schiffer,  T. Head-Gordon,  W. J. Hehre,  Chao-Ping Hsu,  
 T.-C. Jagau,  Yousung Jung,  A. Klamt,  Jing Kong,  D. S. Lambrecht,  
 WanZhen Liang,  N. J. Mayhall,  C. W. McCurdy,  J. B. Neaton,  T. Neudecker,  
 C. Ochsenfeld,  J. A. Parkhill,  R. Peverati,  V. A. Rassolov,  Yihan Shao,  
 L. V. Slipchenko,  R. P. Steele,  J. E. Subotnik,  A. J. W. Thom,  
 A. Tkatchenko,  D. G. Truhlar,  T. Van Voorhis,  T. A. Wesolowski,  
 K. B. Whaley,  H. L. Woodcock III,  P. M. Zimmerman,  S. Faraji,  
 P. M. W. Gill,  M. Head-Gordon,  J. M. Herbert,  A. I. Krylov

 Additional authors since Version 5.4.0: 
 Chandrima Chakravarty,  L. Cunha,  R. Kang,  Yongbin Kim,  S. Kotaru,  
 Shaozhi Li,  Xiangyuan Li,  F. Matz,  A. Molle,  V. Parravicini,  
 Haisheng Ren,  Hengyuan Shen,  Yingli Su,  Hung-Yi Tsai,  C. Utku,  
 Fang Wang,  Jeff Yang,  F. Zeller

 Contributors to earlier versions of Q-Chem not listed above: 
 R. D. Adamson,  B. Austin,  R. Baer,  J. Baker,  G. J. O. Beran,  
 K. Brandhorst,  S. T. Brown,  E. F. C. Byrd,  Arup K. Chakraborty,  
 G. K. L. Chan,  Chun-Min Chang,  Yunqing Chen,  C.-L. Cheng,  
 Siu Hung Chien,  D. M. Chipman,  D. L. Crittenden,  H. Dachsel,  
 R. J. Doerksen,  A. D. Dutoi,  R. G. Edgar,  J. Fosso-Tande,  
 L. Fusti-Molnar,  D. Ghosh,  A. Ghysels,  A. Golubeva-Zadorozhnaya,  
 J. Gonthier,  M. S. Gordon,  S. R. Gwaltney,  G. Hawkins,  J. E. Herr,  
 A. Heyden,  S. Hirata,  E. G. Hohenstein,  G. Kedziora,  F. J. Keil,  
 C. Kelley,  Jihan Kim,  R. A. King,  R. Z. Khaliullin,  P. P. Korambath,  
 W. Kurlancheek,  A. Laurent,  A. M. Lee,  M. S. Lee,  S. V. Levchenko,  
 Ching Yeh Lin,  D. Liotard,  E. Livshits,  R. C. Lochan,  I. Lotan,  
 L. A. Martinez-Martinez,  P. E. Maslen,  N. Nair,  D. P. O'Neill,  
 D. Neuhauser,  E. Neuscamman,  C. M. Oana,  R. Olivares-Amaya,  R. Olson,  
 T. M. Perrine,  B. Peters,  P. A. Pieniazek,  A. Prociuk,  Y. M. Rhee,  
 J. Ritchie,  M. A. Rohrdanz,  E. Rosta,  N. J. Russ,  H. F. Schaefer III,  
 M. W. Schmidt,  N. E. Schultz,  S. Sharma,  N. Shenvi,  C. D. Sherrill,  
 A. C. Simmonett,  A. Sodt,  T. Stein,  D. Stuck,  K. S. Thanthiriwatte,  
 V. Vanovschi,  L. Vogt,  Tao Wang,  A. Warshel,  M. A. Watson,  
 C. F. Williams,  Q. Wu,  X. Xu,  Jun Yang,  W. Zhang,  Yan Zhao

   Please cite Q-Chem as follows:
  "Software for the frontiers of quantum chemistry:
   An overview of developments in the Q-Chem 5 package"
   J. Chem. Phys. 155, 084801 (2021)
   https://doi.org/10.1063/5.0055522 (open access)

 Q-Chem 5.4.2 for Intel X86 EM64T Linux

 Parts of Q-Chem use Armadillo 9.900.5 (Nocturnal Misbehaviour).
 http://arma.sourceforge.net/

 Q-Chem begins on Thu May 19 14:33:08 2022  

 Host: 
0

     Scratch files written to /tmp/scratch//
 Dec1321 |scratch|qcdevops|jenkins|workspace|build_RNUM 7600   
 Processing $rem in /clusterfs/mp/software/qchem5.4/config/preferences:
 Processing $rem in /global/home/users/smblau/.qchemrc:
 Symmetry turned off for PCM/SM12/SMD calculation

 Checking the input file for inconsistencies... 	...done.

--------------------------------------------------------------
User input:
--------------------------------------------------------------
$molecule
-1 1
N      0.2886068058      0.0851684601     -0.2307205435
C      1.3304152196     -0.8700554170      0.3091705639
C     -0.7203333944      0.3846123975      0.8515279764
C     -0.3578402699     -0.5606355496     -1.4317037325
C      0.9171135185      1.3877189388     -0.6557776982
C      2.2483198045     -0.3082153546      1.3809461783
C     -2.0197173966      1.0286293235      0.3948261303
C     -1.1274718415     -1.8433441243     -1.1511189111
C      1.9380439459      1.2849182162     -1.7791695698
C      3.1245261893     -1.4247582896      1.9492507966
C     -2.8792775196      1.3967546885      1.6039948571
C     -2.0818030125     -2.1405900687     -2.3057868907
C      2.8716594204      2.4940372474     -1.7698015151
C      4.0947739684     -0.9233648884      3.0121208397
C     -4.2172693996      2.0044770759      1.2003553745
C     -2.8371780443     -3.4483310241     -2.1095286182
C      3.8683556801      2.4643286889     -2.9224651763
H      1.9191498037     -1.2197576153     -0.5507927836
H      0.7722073950     -1.7265948480      0.6998044137
H     -0.2143431049      1.0371812814      1.5700778349
H     -0.9301410637     -0.5601411279      1.3627969625
H      0.4521966107     -0.7755663905     -2.1360516975
H     -1.0078541482      0.2016056954     -1.8756023122
H      1.3714977803      1.8135917027      0.2440333938
H      0.0973338785      2.0520362350     -0.9448773513
H      1.6828129759      0.1550901263      2.2019714767
H      2.9023155864      0.4671413614      0.9573556529
H     -2.5865385858      0.3401738731     -0.2461440521
H     -1.8283279658      1.9342230217     -0.1971191376
H     -1.7104610049     -1.7745055165     -0.2222152765
H     -0.4249052591     -2.6799712602     -1.0407326738
H      1.4183792180      1.2354820173     -2.7465672537
H      2.5209848156      0.3563518666     -1.7034698179
H      3.6828892180     -1.8941184838      1.1257505305
H      2.4794778086     -2.2097429472      2.3726778619
H     -2.3250741197      2.1031062312      2.2407139524
H     -3.0495653108      0.4960172262      2.2139425602
H     -1.5024673989     -2.1854719003     -3.2400016217
H     -2.7932933174     -1.3054899724     -2.4116677179
H      3.4135695781      2.5195830958     -0.8111278274
H      2.2789469241      3.4213068654     -1.8140235406
H      3.5551592081     -0.4773302807      3.8600320310
H      4.7663756842     -0.1559405282      2.6010910523
H      4.7149751964     -1.7420729935      3.3996246031
H     -4.7978332783      1.3031796408      0.5838361866
H     -4.0713898959      2.9238658564      0.6151112473
H     -4.8197168899      2.2573896728      2.0824450652
H     -3.4347955044     -3.4202378820     -1.1859466274
H     -2.1340144396     -4.2896297811     -2.0389987996
H     -3.5218312841     -3.6410339715     -2.9466744636
H      3.3473261647      2.4640916325     -3.8908299238
H      4.4908320439      1.5590601669     -2.8768089590
H      4.5337197651      3.3372708397     -2.8958536095
O      2.8636734529     -1.8958499313     -2.2724004426
H      2.7551735357     -3.6032770026     -0.2534968878
C      2.1024751616     -3.8474767891     -1.0974482347
C      2.1235446693     -2.9806407734     -2.2217915455
C      1.2665520062     -4.9673696109     -1.0114408027
H      1.2931669635     -5.5817595078     -0.1045225289
C      1.2376248670     -3.3643196960     -3.2622251621
H      1.1936913356     -2.7320375925     -4.1558881774
C      0.3747962879     -5.3507474962     -2.0506631973
C      0.4106644234     -4.4895653773     -3.1824896357
O     -0.4117893149     -6.3947495588     -1.9704498126
H     -0.2653741461     -4.7147198943     -4.0144930124
$end

$rem
job_type = opt
basis = def2-svpd
max_scf_cycles = 100
gen_scfman = true
xc_grid = 3
thresh = 14
s2thresh = 16
scf_algorithm = diis
resp_charges = true
symmetry = false
sym_ignore = true
method = wb97xd
geom_opt_max_cycles = 200
solvent_method = pcm
geom_opt2 = 3
$end

$pcm
heavypoints 194
hpoints 194
radii uff
theory cpcm
vdwscale 1.1
$end

$solvent
dielectric 38.88
$end

$geom_opt
maxiter = 200
$end
--------------------------------------------------------------
 ----------------------------------------------------------------
             Standard Nuclear Orientation (Angstroms)
    I     Atom           X                Y                Z
 ----------------------------------------------------------------
    1      N       0.2886068058     0.0851684601    -0.2307205435
    2      C       1.3304152196    -0.8700554170     0.3091705639
    3      C      -0.7203333944     0.3846123975     0.8515279764
    4      C      -0.3578402699    -0.5606355496    -1.4317037325
    5      C       0.9171135185     1.3877189388    -0.6557776982
    6      C       2.2483198045    -0.3082153546     1.3809461783
    7      C      -2.0197173966     1.0286293235     0.3948261303
    8      C      -1.1274718415    -1.8433441243    -1.1511189111
    9      C       1.9380439459     1.2849182162    -1.7791695698
   10      C       3.1245261893    -1.4247582896     1.9492507966
   11      C      -2.8792775196     1.3967546885     1.6039948571
   12      C      -2.0818030125    -2.1405900687    -2.3057868907
   13      C       2.8716594204     2.4940372474    -1.7698015151
   14      C       4.0947739684    -0.9233648884     3.0121208397
   15      C      -4.2172693996     2.0044770759     1.2003553745
   16      C      -2.8371780443    -3.4483310241    -2.1095286182
   17      C       3.8683556801     2.4643286889    -2.9224651763
   18      H       1.9191498037    -1.2197576153    -0.5507927836
   19      H       0.7722073950    -1.7265948480     0.6998044137
   20      H      -0.2143431049     1.0371812814     1.5700778349
   21      H      -0.9301410637    -0.5601411279     1.3627969625
   22      H       0.4521966107    -0.7755663905    -2.1360516975
   23      H      -1.0078541482     0.2016056954    -1.8756023122
   24      H       1.3714977803     1.8135917027     0.2440333938
   25      H       0.0973338785     2.0520362350    -0.9448773513
   26      H       1.6828129759     0.1550901263     2.2019714767
   27      H       2.9023155864     0.4671413614     0.9573556529
   28      H      -2.5865385858     0.3401738731    -0.2461440521
   29      H      -1.8283279658     1.9342230217    -0.1971191376
   30      H      -1.7104610049    -1.7745055165    -0.2222152765
   31      H      -0.4249052591    -2.6799712602    -1.0407326738
   32      H       1.4183792180     1.2354820173    -2.7465672537
   33      H       2.5209848156     0.3563518666    -1.7034698179
   34      H       3.6828892180    -1.8941184838     1.1257505305
   35      H       2.4794778086    -2.2097429472     2.3726778619
   36      H      -2.3250741197     2.1031062312     2.2407139524
   37      H      -3.0495653108     0.4960172262     2.2139425602
   38      H      -1.5024673989    -2.1854719003    -3.2400016217
   39      H      -2.7932933174    -1.3054899724    -2.4116677179
   40      H       3.4135695781     2.5195830958    -0.8111278274
   41      H       2.2789469241     3.4213068654    -1.8140235406
   42      H       3.5551592081    -0.4773302807     3.8600320310
   43      H       4.7663756842    -0.1559405282     2.6010910523
   44      H       4.7149751964    -1.7420729935     3.3996246031
   45      H      -4.7978332783     1.3031796408     0.5838361866
   46      H      -4.0713898959     2.9238658564     0.6151112473
   47      H      -4.8197168899     2.2573896728     2.0824450652
   48      H      -3.4347955044    -3.4202378820    -1.1859466274
   49      H      -2.1340144396    -4.2896297811    -2.0389987996
   50      H      -3.5218312841    -3.6410339715    -2.9466744636
   51      H       3.3473261647     2.4640916325    -3.8908299238
   52      H       4.4908320439     1.5590601669    -2.8768089590
   53      H       4.5337197651     3.3372708397    -2.8958536095
   54      O       2.8636734529    -1.8958499313    -2.2724004426
   55      H       2.7551735357    -3.6032770026    -0.2534968878
   56      C       2.1024751616    -3.8474767891    -1.0974482347
   57      C       2.1235446693    -2.9806407734    -2.2217915455
   58      C       1.2665520062    -4.9673696109    -1.0114408027
   59      H       1.2931669635    -5.5817595078    -0.1045225289
   60      C       1.2376248670    -3.3643196960    -3.2622251621
   61      H       1.1936913356    -2.7320375925    -4.1558881774
   62      C       0.3747962879    -5.3507474962    -2.0506631973
   63      C       0.4106644234    -4.4895653773    -3.1824896357
   64      O      -0.4117893149    -6.3947495588    -1.9704498126
   65      H      -0.2653741461    -4.7147198943    -4.0144930124
 ----------------------------------------------------------------
 Nuclear Repulsion Energy =        2434.18847774 hartrees
 There are       98 alpha and       98 beta electrons
 Requested basis set is def2-SVPD
 There are 362 shells and 826 basis functions

 Total QAlloc Memory Limit  96000 MB
 Mega-Array Size       188 MB
 MEM_STATIC part       192 MB
 -----------------------------------------------------------------------
                STARTING GEOMETRY OPTIMIZER USING LIBOPT3
                by Peter F. McLaughlin, Yu Zhang, Evgeny Epifanovsky
 -----------------------------------------------------------------------
  Checking Topology for Ill-Behaving Coordinates
  Done Checking Topology
              Initial Energy and Gradient Calculation

	Performing Iterative Coordinate Back-Transformation

	  Starting from Previous Position
	  iter:	0	rms: 0.000000	maxdev: 0.000000	 Success!

	Finished Iterative Coordinate Back-Transformation
 ----------------------------------------------------------------
             Standard Nuclear Orientation (Angstroms)
    I     Atom           X                Y                Z
 ----------------------------------------------------------------
    1      N       0.2886068058     0.0851684601    -0.2307205435
    2      C       1.3304152196    -0.8700554170     0.3091705639
    3      C      -0.7203333944     0.3846123975     0.8515279764
    4      C      -0.3578402699    -0.5606355496    -1.4317037325
    5      C       0.9171135185     1.3877189388    -0.6557776982
    6      C       2.2483198045    -0.3082153546     1.3809461783
    7      C      -2.0197173966     1.0286293235     0.3948261303
    8      C      -1.1274718415    -1.8433441243    -1.1511189111
    9      C       1.9380439459     1.2849182162    -1.7791695698
   10      C       3.1245261893    -1.4247582896     1.9492507966
   11      C      -2.8792775196     1.3967546885     1.6039948571
   12      C      -2.0818030125    -2.1405900687    -2.3057868907
   13      C       2.8716594204     2.4940372474    -1.7698015151
   14      C       4.0947739684    -0.9233648884     3.0121208397
   15      C      -4.2172693996     2.0044770759     1.2003553745
   16      C      -2.8371780443    -3.4483310241    -2.1095286182
   17      C       3.8683556801     2.4643286889    -2.9224651763
   18      H       1.9191498037    -1.2197576153    -0.5507927836
   19      H       0.7722073950    -1.7265948480     0.6998044137
   20      H      -0.2143431049     1.0371812814     1.5700778349
   21      H      -0.9301410637    -0.5601411279     1.3627969625
   22      H       0.4521966107    -0.7755663905    -2.1360516975
   23      H      -1.0078541482     0.2016056954    -1.8756023122
   24      H       1.3714977803     1.8135917027     0.2440333938
   25      H       0.0973338785     2.0520362350    -0.9448773513
   26      H       1.6828129759     0.1550901263     2.2019714767
   27      H       2.9023155864     0.4671413614     0.9573556529
   28      H      -2.5865385858     0.3401738731    -0.2461440521
   29      H      -1.8283279658     1.9342230217    -0.1971191376
   30      H      -1.7104610049    -1.7745055165    -0.2222152765
   31      H      -0.4249052591    -2.6799712602    -1.0407326738
   32      H       1.4183792180     1.2354820173    -2.7465672537
   33      H       2.5209848156     0.3563518666    -1.7034698179
   34      H       3.6828892180    -1.8941184838     1.1257505305
   35      H       2.4794778086    -2.2097429472     2.3726778619
   36      H      -2.3250741197     2.1031062312     2.2407139524
   37      H      -3.0495653108     0.4960172262     2.2139425602
   38      H      -1.5024673989    -2.1854719003    -3.2400016217
   39      H      -2.7932933174    -1.3054899724    -2.4116677179
   40      H       3.4135695781     2.5195830958    -0.8111278274
   41      H       2.2789469241     3.4213068654    -1.8140235406
   42      H       3.5551592081    -0.4773302807     3.8600320310
   43      H       4.7663756842    -0.1559405282     2.6010910523
   44      H       4.7149751964    -1.7420729935     3.3996246031
   45      H      -4.7978332783     1.3031796408     0.5838361866
   46      H      -4.0713898959     2.9238658564     0.6151112473
   47      H      -4.8197168899     2.2573896728     2.0824450652
   48      H      -3.4347955044    -3.4202378820    -1.1859466274
   49      H      -2.1340144396    -4.2896297811    -2.0389987996
   50      H      -3.5218312841    -3.6410339715    -2.9466744636
   51      H       3.3473261647     2.4640916325    -3.8908299238
   52      H       4.4908320439     1.5590601669    -2.8768089590
   53      H       4.5337197651     3.3372708397    -2.8958536095
   54      O       2.8636734529    -1.8958499313    -2.2724004426
   55      H       2.7551735357    -3.6032770026    -0.2534968878
   56      C       2.1024751616    -3.8474767891    -1.0974482347
   57      C       2.1235446693    -2.9806407734    -2.2217915455
   58      C       1.2665520062    -4.9673696109    -1.0114408027
   59      H       1.2931669635    -5.5817595078    -0.1045225289
   60      C       1.2376248670    -3.3643196960    -3.2622251621
   61      H       1.1936913356    -2.7320375925    -4.1558881774
   62      C       0.3747962879    -5.3507474962    -2.0506631973
   63      C       0.4106644234    -4.4895653773    -3.1824896357
   64      O      -0.4117893149    -6.3947495588    -1.9704498126
   65      H      -0.2653741461    -4.7147198943    -4.0144930124
 ----------------------------------------------------------------
 Nuclear Repulsion Energy =        2434.18847774 hartrees
 There are       98 alpha and       98 beta electrons
 Discretize the solute cavity surface with Lebedev spheres
	Using 194 Lebedev grid points for each H atom
	Using 194 Lebedev grid points for other atoms
	Atomic van der Waals radii will be scaled by 1.10
 Remove points where switching function is < 1.0e-08
 Keep 4314 surface tesserae and discard 8296 interior tesserae
 Molecular Surface Area = 488.578 Angst**2
 Requested basis set is def2-SVPD
 There are 362 shells and 826 basis functions
 A cutoff of  1.0D-16 yielded  57570 shell pairs
 There are    298928 function pairs (    336389 Cartesian)
 Smallest overlap matrix eigenvalue = 5.61E-06

 Scale SEOQF with 1.000000e-01/1.000000e-02/1.000000e-01

 Standard Electronic Orientation quadrupole field applied
 Nucleus-field energy     =    -0.0000000297 hartrees
 Guess from superposition of atomic densities
 Warning:  Energy on first SCF cycle will be non-variational
 SAD guess density has 195.000000 electrons

 -----------------------------------------------------------------------
  General SCF calculation program by
  Eric Jon Sundstrom, Paul Horn, Yuezhi Mao, Dmitri Zuev, Alec White,
  David Stuck, Shaama M.S., Shane Yost, Joonho Lee, David Small,
  Daniel Levine, Susi Lehtola, Hugh Burton, Evgeny Epifanovsky,
  Bang C. Huynh
 -----------------------------------------------------------------------
 Exchange:     0.2220 Hartree-Fock + 1.0000 wB97X-D + LR-HF
 Correlation:  1.0000 wB97X-D
 Using SG-3 standard quadrature grid
 Dispersion:   Grimme D
 using 40 threads for integral computing
 -------------------------------------------------------
 OpenMP Integral computing Module                
 Release: version 1.0, May 2013, Q-Chem Inc. Pittsburgh 
 -------------------------------------------------------
 A restricted SCF calculation will be
 performed using DIIS
 SCF converges when DIIS error is below 1.0e-08
 ---------------------------------------
  Cycle       Energy         DIIS error
 ---------------------------------------
    1   -1073.4260916909      2.08e-02  
    2   -1066.2731418266      2.31e-03  
    3   -1066.2509111300      2.66e-03  
    4   -1066.7094047361      4.03e-04  
    5   -1066.7207846942      1.29e-04  
    6   -1066.7220350503      3.63e-05  
    7   -1066.7221300772      1.28e-05  
    8   -1066.7221436008      2.24e-06  
    9   -1066.7221441702      9.86e-07  
   10   -1066.7221442595      2.76e-07  
   11   -1066.7221445102      1.83e-07  
   12   -1066.7221444174      4.49e-08  
   13   -1066.7221444367      1.66e-08  
   14   -1066.7221445207      7.90e-09  Convergence criterion met
 ---------------------------------------
 SCF time:   CPU 20887.45s  wall 1002.00s 

************** Final PCM Free Energy Summary **************
 G_electrostatic  =      -0.16470914 hartree =    -103.35654673 kcal/mol
 G_cavitation     =       0.00000000 hartree =       0.00000000 kcal/mol
 G_dispersion     =       0.00000000 hartree =       0.00000000 kcal/mol
 G_repulsion      =       0.00000000 hartree =       0.00000000 kcal/mol
 --------------------------------------------------
 Non-electrostatic Free Energy =       0.00000000 hartree =       0.00000000 kcal/mol
 Total                         =      -0.16470914 hartree =    -103.35654673 kcal/mol
 --------------------------------------------------
 SCF Energy (H0 + V/2)                       =   -1066.72214452 
 Solute Internal Energy (H0)                 =   -1066.55743538 
 Total Free Energy (H0 + V/2 + non-elec)     =   -1066.72214452 hartree
                                             = -669378.24861220 kcal/mol
***********************************************************

 SCF   energy in the final basis set =    -1066.7221445207
 Total energy in the final basis set =    -1066.7221445207
 
 --------------------------------------------------------------
 
                    Orbital Energies (a.u.)
 --------------------------------------------------------------
 
 Alpha MOs
 -- Occupied --
-19.1530 -19.1499 -14.5731 -10.3538 -10.3505 -10.3433 -10.3340 -10.3094
-10.3032 -10.3011 -10.2968 -10.2966 -10.2964 -10.2941 -10.2922 -10.2915
-10.2892 -10.2886 -10.2862 -10.2859 -10.2758 -10.2499 -10.2499 -10.2490
-10.2487  -1.1107  -1.0085  -1.0032  -0.9139  -0.9048  -0.9042  -0.8882
 -0.8681  -0.8411  -0.8385  -0.8337  -0.7962  -0.7872  -0.7532  -0.7522
 -0.7328  -0.7313  -0.6851  -0.6805  -0.6790  -0.6731  -0.6582  -0.6496
 -0.6222  -0.6139  -0.5996  -0.5942  -0.5825  -0.5685  -0.5558  -0.5529
 -0.5270  -0.5240  -0.5147  -0.5123  -0.5113  -0.5080  -0.5070  -0.5042
 -0.4995  -0.4957  -0.4894  -0.4865  -0.4772  -0.4662  -0.4641  -0.4571
 -0.4533  -0.4476  -0.4438  -0.4408  -0.4379  -0.4348  -0.4295  -0.4271
 -0.4269  -0.4232  -0.4212  -0.4153  -0.4145  -0.4140  -0.4124  -0.4079
 -0.4054  -0.4003  -0.3966  -0.3926  -0.3842  -0.3035  -0.2916  -0.2758
 -0.2726  -0.1899
 -- Virtual --
  0.0820   0.0868   0.0883   0.0915   0.0958   0.1073   0.1081   0.1094
  0.1134   0.1155   0.1239   0.1271   0.1303   0.1350   0.1375   0.1382
  0.1417   0.1484   0.1513   0.1563   0.1581   0.1631   0.1649   0.1712
  0.1733   0.1766   0.1805   0.1835   0.1845   0.1878   0.1906   0.1932
  0.1948   0.1976   0.1998   0.1999   0.2039   0.2065   0.2096   0.2112
  0.2130   0.2160   0.2207   0.2216   0.2231   0.2252   0.2269   0.2310
  0.2334   0.2393   0.2403   0.2410   0.2447   0.2472   0.2496   0.2532
  0.2559   0.2583   0.2625   0.2630   0.2662   0.2712   0.2718   0.2743
  0.2761   0.2783   0.2817   0.2842   0.2884   0.2888   0.2925   0.2949
  0.2981   0.3018   0.3042   0.3067   0.3082   0.3132   0.3154   0.3176
  0.3217   0.3223   0.3251   0.3297   0.3301   0.3358   0.3382   0.3424
  0.3449   0.3456   0.3477   0.3548   0.3580   0.3590   0.3634   0.3651
  0.3667   0.3673   0.3705   0.3743   0.3753   0.3782   0.3801   0.3830
  0.3856   0.3896   0.3917   0.3934   0.3960   0.4007   0.4031   0.4046
  0.4061   0.4083   0.4120   0.4136   0.4158   0.4184   0.4192   0.4206
  0.4229   0.4245   0.4262   0.4272   0.4298   0.4318   0.4349   0.4354
  0.4358   0.4398   0.4404   0.4426   0.4452   0.4484   0.4486   0.4503
  0.4527   0.4535   0.4559   0.4580   0.4591   0.4651   0.4670   0.4688
  0.4700   0.4728   0.4754   0.4757   0.4788   0.4801   0.4821   0.4871
  0.4886   0.4892   0.4942   0.4955   0.4987   0.4997   0.5007   0.5017
  0.5064   0.5071   0.5089   0.5116   0.5145   0.5166   0.5197   0.5232
  0.5242   0.5252   0.5282   0.5293   0.5307   0.5338   0.5354   0.5393
  0.5409   0.5419   0.5435   0.5484   0.5506   0.5549   0.5565   0.5574
  0.5611   0.5620   0.5631   0.5660   0.5680   0.5696   0.5719   0.5759
  0.5771   0.5808   0.5811   0.5844   0.5856   0.5900   0.5924   0.5934
  0.5954   0.6002   0.6014   0.6026   0.6049   0.6104   0.6120   0.6148
  0.6172   0.6198   0.6243   0.6267   0.6279   0.6332   0.6366   0.6378
  0.6398   0.6404   0.6437   0.6470   0.6496   0.6527   0.6544   0.6552
  0.6615   0.6624   0.6632   0.6657   0.6682   0.6724   0.6778   0.6805
  0.6821   0.6839   0.6857   0.6903   0.6922   0.6948   0.6973   0.7016
  0.7054   0.7073   0.7083   0.7108   0.7138   0.7182   0.7186   0.7244
  0.7248   0.7274   0.7326   0.7357   0.7365   0.7412   0.7430   0.7493
  0.7504   0.7523   0.7553   0.7592   0.7618   0.7634   0.7675   0.7697
  0.7711   0.7759   0.7776   0.7811   0.7831   0.7858   0.7909   0.7965
  0.7984   0.8024   0.8043   0.8057   0.8140   0.8152   0.8164   0.8205
  0.8217   0.8245   0.8273   0.8299   0.8346   0.8407   0.8415   0.8430
  0.8479   0.8509   0.8559   0.8578   0.8617   0.8640   0.8659   0.8691
  0.8772   0.8791   0.8834   0.8876   0.8893   0.8927   0.8951   0.8972
  0.9033   0.9096   0.9119   0.9179   0.9219   0.9245   0.9275   0.9307
  0.9355   0.9426   0.9459   0.9482   0.9502   0.9532   0.9611   0.9631
  0.9679   0.9701   0.9764   0.9777   0.9849   0.9890   0.9906   0.9947
  0.9988   1.0073   1.0162   1.0177   1.0228   1.0263   1.0336   1.0374
  1.0472   1.0514   1.0533   1.0589   1.0614   1.0653   1.0683   1.0703
  1.0784   1.0808   1.0911   1.0942   1.0983   1.1012   1.1063   1.1114
  1.1132   1.1165   1.1177   1.1221   1.1226   1.1287   1.1355   1.1392
  1.1432   1.1445   1.1451   1.1491   1.1538   1.1643   1.1660   1.1704
  1.1758   1.1835   1.1887   1.1930   1.1946   1.2001   1.2034   1.2081
  1.2117   1.2141   1.2272   1.2329   1.2367   1.2418   1.2486   1.2551
  1.2558   1.2597   1.2613   1.2663   1.2785   1.2834   1.2864   1.2958
  1.2993   1.3049   1.3084   1.3180   1.3236   1.3270   1.3354   1.3379
  1.3409   1.3476   1.3584   1.3597   1.3684   1.3754   1.3831   1.3850
  1.3867   1.3963   1.3974   1.4056   1.4086   1.4154   1.4207   1.4209
  1.4220   1.4300   1.4350   1.4451   1.4462   1.4488   1.4632   1.4653
  1.4706   1.4737   1.4782   1.4846   1.4953   1.4973   1.5097   1.5156
  1.5245   1.5274   1.5335   1.5402   1.5405   1.5451   1.5491   1.5507
  1.5634   1.5649   1.5694   1.5752   1.5835   1.5860   1.5989   1.6022
  1.6141   1.6168   1.6277   1.6453   1.6517   1.6548   1.6605   1.6690
  1.6806   1.6856   1.6918   1.7015   1.7049   1.7171   1.7212   1.7296
  1.7329   1.7415   1.7507   1.7613   1.7632   1.7718   1.7741   1.7803
  1.7857   1.7896   1.7981   1.8035   1.8115   1.8147   1.8199   1.8236
  1.8254   1.8286   1.8357   1.8491   1.8540   1.8614   1.8681   1.8700
  1.8771   1.8890   1.8928   1.8986   1.9049   1.9084   1.9123   1.9185
  1.9217   1.9288   1.9328   1.9353   1.9412   1.9432   1.9492   1.9540
  1.9645   1.9717   1.9749   1.9791   1.9835   1.9885   1.9934   1.9999
  2.0058   2.0117   2.0139   2.0198   2.0251   2.0286   2.0316   2.0364
  2.0374   2.0453   2.0508   2.0560   2.0605   2.0631   2.0729   2.0750
  2.0808   2.0864   2.0881   2.0967   2.1010   2.1028   2.1086   2.1114
  2.1207   2.1215   2.1237   2.1291   2.1339   2.1376   2.1414   2.1460
  2.1535   2.1549   2.1632   2.1652   2.1713   2.1765   2.1821   2.1876
  2.1921   2.1972   2.2027   2.2049   2.2121   2.2162   2.2233   2.2243
  2.2285   2.2397   2.2417   2.2502   2.2574   2.2580   2.2703   2.2744
  2.2812   2.2897   2.3004   2.3048   2.3068   2.3208   2.3244   2.3250
  2.3287   2.3325   2.3439   2.3529   2.3577   2.3609   2.3677   2.3754
  2.3787   2.3845   2.3918   2.3966   2.4054   2.4073   2.4140   2.4198
  2.4215   2.4283   2.4319   2.4436   2.4454   2.4526   2.4608   2.4734
  2.4748   2.4841   2.4892   2.4948   2.4990   2.5062   2.5262   2.5271
  2.5432   2.5506   2.5546   2.5588   2.5649   2.5702   2.5726   2.5886
  2.5987   2.6041   2.6188   2.6227   2.6303   2.6331   2.6403   2.6437
  2.6468   2.6544   2.6605   2.6618   2.6697   2.6744   2.6807   2.6918
  2.6951   2.7073   2.7134   2.7195   2.7307   2.7346   2.7486   2.7519
  2.7562   2.7588   2.7637   2.7696   2.7717   2.7803   2.7843   2.7923
  2.8007   2.8040   2.8063   2.8136   2.8258   2.8293   2.8374   2.8491
  2.8639   2.8679   2.8811   2.8855   2.9142   2.9203   2.9349   2.9391
  2.9418   2.9556   2.9599   2.9725   2.9815   2.9954   3.0011   3.0147
  3.0196   3.0250   3.0322   3.0492   3.0930   3.0956   3.1106   3.1224
  3.1336   3.1429   3.1500   3.1561   3.1586   3.1644   3.1713   3.1728
  3.1824   3.1897   3.1992   3.2041   3.2090   3.2206   3.2335   3.2373
  3.2519   3.2619   3.2706   3.2738   3.2803   3.2854   3.2881   3.2994
  3.3027   3.3074   3.3125   3.3304   3.3406   3.3550   3.3576   3.3635
  3.3705   3.3738   3.3841   3.4023   3.4216   3.4480   3.4800   3.5150
  3.5353   3.5431   3.5524   3.6033   3.6206   3.6583   3.9225   4.0457
 --------------------------------------------------------------
 
          Ground-State Mulliken Net Atomic Charges

     Atom                 Charge (a.u.)
  ----------------------------------------
      1 N                    -2.351628
      2 C                     0.349199
      3 C                     0.406961
      4 C                     0.278953
      5 C                     0.750583
      6 C                     0.567744
      7 C                     0.311433
      8 C                     0.210100
      9 C                     0.301088
     10 C                     0.048836
     11 C                    -0.078616
     12 C                    -0.056751
     13 C                     0.005678
     14 C                     0.775303
     15 C                     0.597157
     16 C                     1.355406
     17 C                     0.724788
     18 H                    -1.032331
     19 H                    -0.128884
     20 H                    -0.293025
     21 H                     0.010076
     22 H                    -0.145161
     23 H                    -0.319326
     24 H                    -0.194536
     25 H                    -0.486410
     26 H                    -0.055662
     27 H                    -0.195297
     28 H                    -0.007696
     29 H                    -0.011340
     30 H                    -0.020991
     31 H                    -0.066577
     32 H                     0.144917
     33 H                    -0.378921
     34 H                     0.029429
     35 H                    -0.028103
     36 H                    -0.029412
     37 H                     0.044942
     38 H                     0.055302
     39 H                    -0.067976
     40 H                    -0.018568
     41 H                    -0.094218
     42 H                     0.073343
     43 H                     0.099121
     44 H                    -0.013502
     45 H                     0.072231
     46 H                     0.087903
     47 H                     0.003774
     48 H                     0.161945
     49 H                    -0.603694
     50 H                     0.078286
     51 H                     0.110636
     52 H                     0.037653
     53 H                    -0.011294
     54 O                    -0.826315
     55 H                    -0.380383
     56 C                     0.204631
     57 C                     0.006523
     58 C                    -0.193640
     59 H                     0.066501
     60 C                    -0.080562
     61 H                    -0.077077
     62 C                     0.300413
     63 C                    -0.071327
     64 O                    -0.890539
     65 H                    -0.061093
  ----------------------------------------
  Sum of atomic charges =    -1.000000

  Building new vdw surfaces
         Merz-Kollman RESP Net Atomic Charges

     Atom                 Charge (a.u.)
  ----------------------------------------
      1 N                     0.476641
      2 C                    -0.217533
      3 C                    -0.324558
      4 C                    -0.351284
      5 C                    -0.351284
      6 C                    -0.304537
      7 C                    -0.065899
      8 C                    -0.079290
      9 C                     0.025063
     10 C                     0.310087
     11 C                     0.148968
     12 C                     0.122613
     13 C                     0.146665
     14 C                    -0.622241
     15 C                    -0.455110
     16 C                    -0.455110
     17 C                    -0.455110
     18 H                     0.309379
     19 H                     0.104154
     20 H                     0.134123
     21 H                     0.134123
     22 H                     0.134123
     23 H                     0.134123
     24 H                     0.136571
     25 H                     0.136571
     26 H                     0.107750
     27 H                     0.107750
     28 H                     0.073514
     29 H                     0.073514
     30 H                     0.084925
     31 H                     0.084925
     32 H                     0.053429
     33 H                     0.053429
     34 H                     0.000629
     35 H                     0.000629
     36 H                     0.021667
     37 H                     0.021667
     38 H                     0.021667
     39 H                     0.021667
     40 H                     0.007738
     41 H                     0.007738
     42 H                     0.149699
     43 H                     0.149699
     44 H                     0.149699
     45 H                     0.113156
     46 H                     0.113156
     47 H                     0.113156
     48 H                     0.113189
     49 H                     0.113189
     50 H                     0.113189
     51 H                     0.111193
     52 H                     0.111193
     53 H                     0.111193
     54 O                    -0.977020
     55 H                     0.094742
     56 C                    -0.242802
     57 C                     0.350747
     58 C                    -0.519152
     59 H                     0.164126
     60 C                    -0.265920
     61 H                     0.151141
     62 C                     0.658820
     63 C                    -0.574967
     64 O                    -1.025688
     65 H                     0.210373
  ----------------------------------------
  Sum of atomic charges =    -1.000000

  Related Dipole Moment =    43.6041 (X -9.6367 Y 38.4287 Z 18.2122)

 -----------------------------------------------------------------
                    Cartesian Multipole Moments
 -----------------------------------------------------------------
    Charge (ESU x 10^10)
                -4.8032
    Dipole Moment (Debye)
         X      -9.6312      Y      38.5862      Z      18.3345
       Tot      43.7928
    Quadrupole Moments (Debye-Ang)
        XX    -192.7119     XY      16.8239     YY    -362.7509
        XZ      25.4531     YZ     -79.3415     ZZ    -199.7186
    Octopole Moments (Debye-Ang^2)
       XXX    -376.4029    XXY     303.4249    XYY     -93.7865
       YYY    1871.5748    XXZ     229.3846    XYZ     -54.0828
       YYZ     550.3698    XZZ    -162.2004    YZZ     381.4055
       ZZZ     501.9115
    Hexadecapole Moments (Debye-Ang^3)
      XXXX   -5944.1104   XXXY     547.5227   XXYY   -2585.7039
      XYYY     117.4557   YYYY  -16040.3061   XXXZ     548.3610
      XXYZ    -657.6427   XYYZ     153.5342   YYYZ   -3822.7175
      XXZZ   -1818.2058   XYZZ     235.8539   YYZZ   -2924.7707
      XZZZ     489.0493   YZZZ   -1720.1552   ZZZZ   -4231.8337
 -----------------------------------------------------------------
 Calculating analytic gradient of the SCF energy
 Gradient of SCF Energy
            1           2           3           4           5           6
    1   0.0044755  -0.0105538   0.0040189  -0.0042834   0.0053197   0.0092198
    2  -0.0030560  -0.0062948  -0.0038865  -0.0314118   0.0097714   0.0178507
    3  -0.0130555   0.0052229   0.0052925  -0.0217401  -0.0137320   0.0081825
            7           8           9          10          11          12
    1   0.0043424   0.0339243  -0.0082599   0.0030735  -0.0042213  -0.0033764
    2  -0.0068833  -0.0208465  -0.0081170  -0.0021501  -0.0016686  -0.0119375
    3  -0.0108646   0.0094959   0.0187292  -0.0036518   0.0031332  -0.0163457
           13          14          15          16          17          18
    1   0.0114252  -0.0108717   0.0037814   0.0531979  -0.0117234   0.0054675
    2   0.0000010   0.0060822  -0.0031718   0.0244401  -0.0123235  -0.0153986
    3  -0.0061491  -0.0139378  -0.0025696   0.0169895   0.0086957  -0.0447866
           19          20          21          22          23          24
    1   0.0031428  -0.0014477   0.0024427   0.0102229  -0.0028484   0.0034709
    2   0.0195185  -0.0082303   0.0103641   0.0108960  -0.0014544  -0.0124645
    3  -0.0049130  -0.0029906  -0.0027590   0.0156395   0.0135224  -0.0084699
           25          26          27          28          29          30
    1   0.0070568   0.0118934  -0.0115523   0.0026381  -0.0009741   0.0151740
    2  -0.0032043  -0.0033656  -0.0087868   0.0103746  -0.0060981   0.0075507
    3   0.0056138  -0.0103597   0.0242279   0.0034986   0.0001010  -0.0169646
           31          32          33          34          35          36
    1  -0.0686089   0.0209519  -0.0394034  -0.0211944   0.0225722  -0.0029573
    2   0.0343310   0.0057368  -0.0018691  -0.0076177   0.0152613  -0.0026564
    3   0.0109653   0.0174327  -0.0030764   0.0242707  -0.0057270  -0.0017068
           37          38          39          40          41          42
    1  -0.0003738  -0.0331969   0.0108934  -0.0063427   0.0093280   0.0079502
    2   0.0069673  -0.0040666  -0.0284256   0.0064383  -0.0103135  -0.0063298
    3  -0.0022303   0.0293579  -0.0033671  -0.0157694  -0.0001967  -0.0107220
           43          44          45          46          47          48
    1  -0.0103838  -0.0096521   0.0037674  -0.0011341   0.0036194   0.0169902
    2  -0.0114112   0.0180729   0.0059572  -0.0051851  -0.0016532   0.0012101
    3   0.0105812  -0.0082400   0.0041037   0.0032291  -0.0061306  -0.0233576
           49          50          51          52          53          54
    1  -0.0467029   0.0242036   0.0114554  -0.0148455  -0.0113984   0.0112535
    2   0.0272106   0.0056347  -0.0002312   0.0241326  -0.0177962  -0.0280030
    3  -0.0056709   0.0243484   0.0175140  -0.0053213  -0.0009138  -0.0121926
           55          56          57          58          59          60
    1  -0.0625982  -0.0199702  -0.0126115  -0.0124904  -0.0359782   0.0161907
    2   0.0262993  -0.0321877  -0.0617494   0.0339188   0.0633986  -0.0241988
    3  -0.0239532  -0.0940210  -0.0405076   0.0036675  -0.0951245   0.0550076
           61          62          63          64          65
    1  -0.0293628   0.0582255   0.0368437   0.0263290   0.0344563
    2  -0.0479432  -0.0034291   0.0221906   0.0310685   0.0211386
    3   0.0988833  -0.0337349   0.0471050  -0.0072626   0.1077047
 Max gradient component =       1.077E-01
 RMS gradient           =       2.436E-02
 Computing fast CPCM-SWIG gradient
 Updating gradient with PCM contributions...
 -- total gradient after adding PCM contribution --
---------------------------------------------------
  Atom         X              Y              Z     
---------------------------------------------------
   1       0.000003       0.000056       0.000058
   2      -0.000080       0.000440      -0.000178
   3       0.000072      -0.000025      -0.000015
   4       0.000005       0.000005       0.000017
   5      -0.000015       0.000000      -0.000023
   6       0.000038      -0.000004       0.000011
   7       0.000013       0.000008      -0.000042
   8       0.000051       0.000058       0.000039
   9      -0.000012      -0.000023       0.000024
  10      -0.000025      -0.000008      -0.000006
  11      -0.000024       0.000011       0.000007
  12      -0.000043      -0.000034      -0.000024
  13       0.000036       0.000014      -0.000008
  14       0.000006       0.000004       0.000017
  15       0.000005      -0.000009      -0.000013
  16       0.000034       0.000019       0.000031
  17      -0.000020      -0.000008       0.000004
  18      -0.000008      -0.000687       0.000193
  19       0.000043      -0.000031      -0.000029
  20      -0.000022      -0.000004       0.000015
  21      -0.000007      -0.000007      -0.000018
  22      -0.000039      -0.000084       0.000004
  23       0.000019       0.000013      -0.000021
  24      -0.000007      -0.000002       0.000007
  25      -0.000002      -0.000008      -0.000017
  26      -0.000005       0.000021      -0.000005
  27       0.000004      -0.000001       0.000006
  28      -0.000012      -0.000018       0.000028
  29      -0.000008      -0.000008      -0.000014
  30      -0.000004      -0.000001      -0.000004
  31      -0.000009      -0.000018      -0.000014
  32       0.000005       0.000002      -0.000002
  33       0.000001       0.000004       0.000003
  34      -0.000002       0.000007       0.000007
  35      -0.000000       0.000004       0.000009
  36      -0.000000      -0.000004      -0.000003
  37      -0.000003      -0.000000      -0.000001
  38       0.000002       0.000012      -0.000015
  39       0.000004      -0.000006       0.000008
  40      -0.000007       0.000004       0.000005
  41      -0.000005      -0.000000       0.000003
  42      -0.000006       0.000007      -0.000002
  43      -0.000003       0.000000       0.000003
  44      -0.000008       0.000003       0.000005
  45      -0.000002      -0.000002      -0.000006
  46      -0.000005       0.000002       0.000000
  47      -0.000005      -0.000001      -0.000005
  48      -0.000014      -0.000000      -0.000016
  49       0.000004      -0.000002      -0.000012
  50       0.000011      -0.000013      -0.000017
  51       0.000002       0.000009       0.000006
  52       0.000005       0.000006       0.000006
  53       0.000004       0.000001       0.000005
  54       0.000002       0.000288      -0.000041
  55      -0.000030       0.000011       0.000022
  56       0.000071       0.000030      -0.000038
  57       0.000028       0.000029       0.000082
  58      -0.000063      -0.000086      -0.000048
  59       0.000020       0.000042       0.000027
  60       0.000033      -0.000062      -0.000049
  61      -0.000041       0.000011       0.000015
  62      -0.000003      -0.000036       0.000070
  63       0.000004       0.000093      -0.000036
  64       0.000011      -0.000010      -0.000017
  65       0.000005      -0.000009       0.000002
---------------------------------------------------
 Number of fixed atoms: 0
 Gradient time:  CPU 4421.39 s  wall 227.24 s
Initial Energy: -1.06672214e+03

 *****************************************************
             Starting BFGS Algorithm
 *****************************************************
            LIBOPT3 RUN PARAMETERS

  Geometry Optimization Coordinates :
	Internal Coordinates

  Step Length Selection Method :
	Eigenvector Following Algorithm

  Convergence Criteria :
	Max Gradient Component    	3.00000000e-04
	Max Displacement Component	1.20000000e-03
	Absolute Energy Difference	1.00000000e-06

  Initial Hessian :
	Approximate Hessian - Simple Internal Coordinate Scaled

  Type of Verification :
	Verify with final updated Hessian
 *****************************************************

	OPTIMIZATION CYCLE:	1

 All Eigenvalues from Projected Hessian
   0.10000000   0.10000000   0.10000000   0.10000000   0.10000000
   0.10000000   0.10000000   0.10000000   0.10000000   0.10000000
   0.10000000   0.10000000   0.10000000   0.10000000   0.10000000
   0.10000000   0.10000000   0.10000000   0.10000000   0.10000000
   0.10000000   0.10000000   0.10000000   0.10000000   0.10000000
   0.10000000   0.10000000   0.10000000   0.10000000   0.10000000
   0.10000000   0.10000000   0.10000000   0.10000000   0.10000000
   0.10000000   0.10000000   0.10000000   0.10000000   0.10000000
   0.10000000   0.10000000   0.10000000   0.10000000   0.10000000
   0.10000000   0.10000000   0.10000000   0.10000000   0.10000000
   0.10000000   0.10000000   0.10000000   0.10000000   0.10000000
   0.10000000   0.10000000   0.10000000   0.10000000   0.10000000
   0.10000000   0.10000000   0.10000000   0.10000000   0.10000000
   0.10000000   0.10000000   0.10000000   0.10000000   0.10000000
   0.10000000   0.10000000   0.10000000   0.10000000   0.10000000
   0.10000000   0.10000000   0.10000000   0.10000000   0.10000000
   0.10000000   0.10000000   0.10000000   0.10000000   0.10000000
   0.10000000   0.10000000   0.10000000   0.10000000   0.10000000
   0.10000000   0.10000000   0.10000000   0.10000000   0.10000000
   0.10000000   0.10000000   0.10000000   0.10000000   0.10000000
   0.10000000   0.10000000   0.10000000   0.10000000   0.10000000
   0.10000000   0.10000000   0.10000000   0.10000000   0.10000000
   0.10000000   0.10000000   0.10000000   0.10000000   0.10000000
   0.10000000   0.10000000   0.10000000   0.10000000   0.10000000
   0.10000000   0.10000000   0.10000000   0.10000000   0.10000000
   0.10000000   0.10000000   0.10000000   0.10000000   0.10000000
   0.10000000   0.10000000   0.10000000   0.10000000   0.10000000
   0.10000000   0.10000000   0.10000000   0.10000000   0.10000000
   0.10000000   0.10000000   0.10000000   0.10000000   0.10000000
   0.10000000   0.10000000   0.10000000   0.10000000   0.10000000
   0.10000000   0.10000000   0.10000000   0.10000000   0.10000000
   0.10000000   0.10000000   0.10000000   0.10000000   0.10000000
   0.10000000   0.10000000   0.10000000   0.10000000   0.10000000
   0.10000000   0.10000000   0.10000000   0.10000000   0.10000000
   0.10000000   0.10000000   0.10000000   0.10000000   0.20000000
   0.20000000   0.20000000   0.20000000   0.20000000   0.20000000
   0.20000000   0.20000000   0.20000000   0.20000000   0.20000000
   0.20000000   0.20000000   0.20000000   0.20000000   0.20000000
   0.20000000   0.20000000   0.20000000   0.20000000   0.20000000
   0.20000000   0.20000000   0.20000000   0.20000000   0.20000000
   0.20000000   0.20000000   0.20000000   0.20000000   0.20000000
   0.20000000   0.20000000   0.20000000   0.20000000   0.20000000
   0.20000000   0.20000000   0.20000000   0.20000000   0.20000000
   0.20000000   0.20000000   0.20000000   0.20000000   0.20000000
   0.20000000   0.20000000   0.20000000   0.20000000   0.20000000
   0.20000000   0.20000000   0.20000000   0.20000000   0.20000000
   0.20000000   0.20000000   0.20000000   0.20000000   0.20000000
   0.20000000   0.20000000   0.20000000   0.20000000   0.20000000
   0.20000000   0.20000000   0.20000000   0.20000000   0.20000000
   0.20000000   0.20000000   0.20000000   0.20000000   0.20000000
   0.20000000   0.20000000   0.20000000   0.20000000   0.20000000
   0.20000000   0.20000000   0.20000000   0.20000000   0.20000000
   0.20000000   0.20000000   0.20000000   0.20000000   0.20000000
   0.20000000   0.20000000   0.20000000   0.20000000   0.20000000
   0.20000000   0.20000000   0.20000000   0.20000000   0.20000000
   0.20000000   0.20000000   0.20000000   0.20000000   0.20000000
   0.20000000   0.20000000   0.20000000   0.20000000   0.20000000
   0.20000000   0.20000000   0.20000000   0.20000000   0.20000000
   0.20000000   0.20000000   0.20000000   0.20000000   0.20000000
   0.20000000   0.50000000   0.50000000   0.50000000   0.50000000
   0.50000000   0.50000000   0.50000000   0.50000000   0.50000000
   0.50000000   0.50000000   0.50000000   0.50000000   0.50000000
   0.50000000   0.50000000   0.50000000   0.50000000   0.50000000
   0.50000000   0.50000000   0.50000000   0.50000000   0.50000000
   0.50000000   0.50000000   0.50000000   0.50000000   0.50000000
   0.50000000   0.50000000   0.50000000   0.50000000   0.50000000
   0.50000000   0.50000000   0.50000000   0.50000000   0.50000000
   0.50000000   0.50000000   0.50000000   0.50000000   0.50000000
   0.50000000   0.50000000   0.50000000   0.50000000   0.50000000
   0.50000000   0.50000000   0.50000000   0.50000000   0.50000000
   0.50000000   0.50000000   0.50000000   0.50000000   0.50000000
   0.50000000   0.50000000   0.50000000   0.50000000   0.50000000
   0.50000000

 Scaling Magnitute of eigenvalues
 Minimum: -25.00000000
 Maximum: 25.00000000
 361 Hessian Eigenvalues to form next step
   0.10000000   0.10000000   0.10000000   0.10000000   0.10000000
   0.10000000   0.10000000   0.10000000   0.10000000   0.10000000
   0.10000000   0.10000000   0.10000000   0.10000000   0.10000000
   0.10000000   0.10000000   0.10000000   0.10000000   0.10000000
   0.10000000   0.10000000   0.10000000   0.10000000   0.10000000
   0.10000000   0.10000000   0.10000000   0.10000000   0.10000000
   0.10000000   0.10000000   0.10000000   0.10000000   0.10000000
   0.10000000   0.10000000   0.10000000   0.10000000   0.10000000
   0.10000000   0.10000000   0.10000000   0.10000000   0.10000000
   0.10000000   0.10000000   0.10000000   0.10000000   0.10000000
   0.10000000   0.10000000   0.10000000   0.10000000   0.10000000
   0.10000000   0.10000000   0.10000000   0.10000000   0.10000000
   0.10000000   0.10000000   0.10000000   0.10000000   0.10000000
   0.10000000   0.10000000   0.10000000   0.10000000   0.10000000
   0.10000000   0.10000000   0.10000000   0.10000000   0.10000000
   0.10000000   0.10000000   0.10000000   0.10000000   0.10000000
   0.10000000   0.10000000   0.10000000   0.10000000   0.10000000
   0.10000000   0.10000000   0.10000000   0.10000000   0.10000000
   0.10000000   0.10000000   0.10000000   0.10000000   0.10000000
   0.10000000   0.10000000   0.10000000   0.10000000   0.10000000
   0.10000000   0.10000000   0.10000000   0.10000000   0.10000000
   0.10000000   0.10000000   0.10000000   0.10000000   0.10000000
   0.10000000   0.10000000   0.10000000   0.10000000   0.10000000
   0.10000000   0.10000000   0.10000000   0.10000000   0.10000000
   0.10000000   0.10000000   0.10000000   0.10000000   0.10000000
   0.10000000   0.10000000   0.10000000   0.10000000   0.10000000
   0.10000000   0.10000000   0.10000000   0.10000000   0.10000000
   0.10000000   0.10000000   0.10000000   0.10000000   0.10000000
   0.10000000   0.10000000   0.10000000   0.10000000   0.10000000
   0.10000000   0.10000000   0.10000000   0.10000000   0.10000000
   0.10000000   0.10000000   0.10000000   0.10000000   0.10000000
   0.10000000   0.10000000   0.10000000   0.10000000   0.10000000
   0.10000000   0.10000000   0.10000000   0.10000000   0.10000000
   0.10000000   0.10000000   0.10000000   0.10000000   0.10000000
   0.10000000   0.10000000   0.10000000   0.10000000   0.20000000
   0.20000000   0.20000000   0.20000000   0.20000000   0.20000000
   0.20000000   0.20000000   0.20000000   0.20000000   0.20000000
   0.20000000   0.20000000   0.20000000   0.20000000   0.20000000
   0.20000000   0.20000000   0.20000000   0.20000000   0.20000000
   0.20000000   0.20000000   0.20000000   0.20000000   0.20000000
   0.20000000   0.20000000   0.20000000   0.20000000   0.20000000
   0.20000000   0.20000000   0.20000000   0.20000000   0.20000000
   0.20000000   0.20000000   0.20000000   0.20000000   0.20000000
   0.20000000   0.20000000   0.20000000   0.20000000   0.20000000
   0.20000000   0.20000000   0.20000000   0.20000000   0.20000000
   0.20000000   0.20000000   0.20000000   0.20000000   0.20000000
   0.20000000   0.20000000   0.20000000   0.20000000   0.20000000
   0.20000000   0.20000000   0.20000000   0.20000000   0.20000000
   0.20000000   0.20000000   0.20000000   0.20000000   0.20000000
   0.20000000   0.20000000   0.20000000   0.20000000   0.20000000
   0.20000000   0.20000000   0.20000000   0.20000000   0.20000000
   0.20000000   0.20000000   0.20000000   0.20000000   0.20000000
   0.20000000   0.20000000   0.20000000   0.20000000   0.20000000
   0.20000000   0.20000000   0.20000000   0.20000000   0.20000000
   0.20000000   0.20000000   0.20000000   0.20000000   0.20000000
   0.20000000   0.20000000   0.20000000   0.20000000   0.20000000
   0.20000000   0.20000000   0.20000000   0.20000000   0.20000000
   0.20000000   0.20000000   0.20000000   0.20000000   0.20000000
   0.20000000   0.20000000   0.20000000   0.20000000   0.20000000
   0.20000000   0.50000000   0.50000000   0.50000000   0.50000000
   0.50000000   0.50000000   0.50000000   0.50000000   0.50000000
   0.50000000   0.50000000   0.50000000   0.50000000   0.50000000
   0.50000000   0.50000000   0.50000000   0.50000000   0.50000000
   0.50000000   0.50000000   0.50000000   0.50000000   0.50000000
   0.50000000   0.50000000   0.50000000   0.50000000   0.50000000
   0.50000000   0.50000000   0.50000000   0.50000000   0.50000000
   0.50000000   0.50000000   0.50000000   0.50000000   0.50000000
   0.50000000   0.50000000   0.50000000   0.50000000   0.50000000
   0.50000000   0.50000000   0.50000000   0.50000000   0.50000000
   0.50000000   0.50000000   0.50000000   0.50000000   0.50000000
   0.50000000   0.50000000   0.50000000   0.50000000   0.50000000
   0.50000000   0.50000000   0.50000000   0.50000000   0.50000000
   0.50000000

 Minimum Search taking a RFO step
 Searching for Lambda that minimizes along all modes
 Value of Lambda  -0.00000051
 Norm of Stepsize  0.00202295

	Performing Iterative Coordinate Back-Transformation

	  Starting from Previous Position
	  iter:	0	rms: 0.00141604	maxdev: 0.00535753
	  iter:	1	rms: 0.00000033	maxdev: 0.00000153	 Success!

	Finished Iterative Coordinate Back-Transformation
 ----------------------------------------------------------------
             Standard Nuclear Orientation (Angstroms)
    I     Atom           X                Y                Z
 ----------------------------------------------------------------
    1      N       0.2885187120     0.0852962035    -0.2308724777
    2      C       1.3303005244    -0.8701363968     0.3088377251
    3      C      -0.7203060971     0.3845508708     0.8516090790
    4      C      -0.3579765372    -0.5600084148    -1.4320809110
    5      C       0.9170279339     1.3879524324    -0.6556668307
    6      C       2.2481845466    -0.3083412900     1.3806060063
    7      C      -2.0196517970     1.0288652917     0.3952511302
    8      C      -1.1276588675    -1.8428685055    -1.1521577188
    9      C       1.9377565971     1.2854604914    -1.7792835103
   10      C       3.1243531945    -1.4249523385     1.9488567900
   11      C      -2.8791023027     1.3966144573     1.6045881227
   12      C      -2.0819126908    -2.1395274349    -2.3069928283
   13      C       2.8713759234     2.4945499952    -1.7697544096
   14      C       4.0946422565    -0.9237031186     3.0117427941
   15      C      -4.2170628626     2.0046089446     1.2012308085
   16      C      -2.8374862597    -3.4472675227    -2.1113274105
   17      C       3.8678848024     2.4651372721    -2.9226048953
   18      H       1.9189556140    -1.2201605729    -0.5510686348
   19      H       0.7719275653    -1.7265507003     0.6995347406
   20      H      -0.2141131493     1.0368423107     1.5702685934
   21      H      -0.9301191691    -0.5603368279     1.3626320762
   22      H       0.4522861389    -0.7742692491    -2.1364005197
   23      H      -1.0080230777     0.2024005928    -1.8756261398
   24      H       1.3715580592     1.8135924807     0.2441785494
   25      H       0.0972221594     2.0523781950    -0.9444408895
   26      H       1.6826882739     0.1549722781     2.2016279909
   27      H       2.9022428071     0.4669662760     0.9570234427
   28      H      -2.5865613153     0.3407397498    -0.2459993853
   29      H      -1.8281689272     1.9346536889    -0.1963662746
   30      H      -1.7106880542    -1.7743847583    -0.2232539893
   31      H      -0.4250833845    -2.6795146157    -1.0420288712
   32      H       1.4178939179     1.2362988795    -2.7465878653
   33      H       2.5206884934     0.3568559259    -1.7039525737
   34      H       3.6826736875    -1.8942803781     1.1253027601
   35      H       2.4792712991    -2.2099449530     2.3722189293
   36      H      -2.3248157112     2.1026765519     2.2415539642
   37      H      -3.0494603546     0.4956597649     2.2141949023
   38      H      -1.5025324391    -2.1840808860    -3.2411831282
   39      H      -2.7933276186    -1.3043166037    -2.4125610023
   40      H       3.4134880230     2.5198269677    -0.8111868072
   41      H       2.2786826010     3.4218471614    -1.8136211470
   42      H       3.5550775564    -0.4777369314     3.8597244830
   43      H       4.7662705838    -0.1562661827     2.6007776449
   44      H       4.7148247635    -1.7424726000     3.3991542429
   45      H      -4.7977059631     1.3035838638     0.5844742648
   46      H      -4.0711141482     2.9241860588     0.6163012281
   47      H      -4.8194592814     2.2572452920     2.0834331673
   48      H      -3.4350634814    -3.4194390667    -1.1877100483
   49      H      -2.1344512130    -4.2886972721    -2.0410851515
   50      H      -3.5221795156    -3.6395104320    -2.9485355802
   51      H       3.3466925237     2.4651380421    -3.8908849800
   52      H       4.4903402542     1.5598361893    -2.8772927451
   53      H       4.5332574543     3.3380678025    -2.8958819088
   54      O       2.8635448624    -1.8969131910    -2.2724828672
   55      H       2.7557579742    -3.6032568754    -0.2528282054
   56      C       2.1029209455    -3.8480612474    -1.0964994945
   57      C       2.1236611702    -2.9818493853    -2.2213566758
   58      C       1.2673385636    -4.9680825379    -1.0098612141
   59      H       1.2940342030    -5.5822246141    -0.1027746025
   60      C       1.2378719308    -3.3662737660    -3.2615576393
   61      H       1.1939928812    -2.7345238477    -4.1556033365
   62      C       0.3756534839    -5.3522041539    -2.0488945009
   63      C       0.4112427065    -4.4917487966    -3.1812052214
   64      O      -0.4106457444    -6.3963640273    -1.9679848999
   65      H      -0.2647150253    -4.7175545370    -4.0130961446
 ----------------------------------------------------------------
 Nuclear Repulsion Energy =        2434.05272938 hartrees
 There are       98 alpha and       98 beta electrons
 Discretize the solute cavity surface with Lebedev spheres
	Using 194 Lebedev grid points for each H atom
	Using 194 Lebedev grid points for other atoms
	Atomic van der Waals radii will be scaled by 1.10
 Remove points where switching function is < 1.0e-08
 Keep 4315 surface tesserae and discard 8295 interior tesserae
 Molecular Surface Area = 488.635 Angst**2
 Applying Cartesian multipole field
    Component          Value
    ---------          -----
     (2,0,0)        1.00000E-11
     (0,2,0)        2.00000E-12
     (0,0,2)       -3.00000E-11
 Nucleus-field energy     =    -0.0000000297 hartrees
 Requested basis set is def2-SVPD
 There are 362 shells and 826 basis functions
 A cutoff of  1.0D-16 yielded  57566 shell pairs
 There are    298916 function pairs (    336376 Cartesian)
 Smallest overlap matrix eigenvalue = 5.61E-06
 Guess MOs from SCF MO coefficient file

 -----------------------------------------------------------------------
  General SCF calculation program by
  Eric Jon Sundstrom, Paul Horn, Yuezhi Mao, Dmitri Zuev, Alec White,
  David Stuck, Shaama M.S., Shane Yost, Joonho Lee, David Small,
  Daniel Levine, Susi Lehtola, Hugh Burton, Evgeny Epifanovsky,
  Bang C. Huynh
 -----------------------------------------------------------------------
 Exchange:     0.2220 Hartree-Fock + 1.0000 wB97X-D + LR-HF
 Correlation:  1.0000 wB97X-D
 Using SG-3 standard quadrature grid
 Dispersion:   Grimme D
 A restricted SCF calculation will be
 performed using Roothaan-Hall, DIIS
 SCF converges when DIIS error is below 1.0e-08
 ---------------------------------------
  Cycle       Energy         DIIS error
 ---------------------------------------
    1   -1066.5573815794      3.32e-04  Roothaan Step
 ---------------------------------------
  Cycle       Energy         DIIS error
 ---------------------------------------
    1   -1066.6986509052      3.64e-04  
    2   -1066.7167657181      2.55e-04  
    3   -1066.7212070605      9.93e-05  
    4   -1066.7219829722      3.53e-05  
    5   -1066.7221198866      1.39e-05  
    6   -1066.7221419191      3.55e-06  
    7   -1066.7221442475      1.80e-06  
    8   -1066.7221446668      4.58e-07  
    9   -1066.7221445215      2.56e-07  
   10   -1066.7221446820      1.10e-07  
   11   -1066.7221447313      4.56e-08  
   12   -1066.7221447031      1.53e-08  
   13   -1066.7221447107      4.91e-09  Convergence criterion met
 ---------------------------------------
 SCF time:   CPU 21763.36s  wall 1029.00s 

************** Final PCM Free Energy Summary **************
 G_electrostatic  =      -0.16475980 hartree =    -103.38833234 kcal/mol
 G_cavitation     =       0.00000000 hartree =       0.00000000 kcal/mol
 G_dispersion     =       0.00000000 hartree =       0.00000000 kcal/mol
 G_repulsion      =       0.00000000 hartree =       0.00000000 kcal/mol
 --------------------------------------------------
 Non-electrostatic Free Energy =       0.00000000 hartree =       0.00000000 kcal/mol
 Total                         =      -0.16475980 hartree =    -103.38833234 kcal/mol
 --------------------------------------------------
 SCF Energy (H0 + V/2)                       =   -1066.72214471 
 Solute Internal Energy (H0)                 =   -1066.55738491 
 Total Free Energy (H0 + V/2 + non-elec)     =   -1066.72214471 hartree
                                             = -669378.24873141 kcal/mol
***********************************************************

 SCF   energy in the final basis set =    -1066.7221447107
 Total energy in the final basis set =    -1066.7221447107
 
 --------------------------------------------------------------
 
                    Orbital Energies (a.u.)
 --------------------------------------------------------------
 
 Alpha MOs
 -- Occupied --
-19.1530 -19.1499 -14.5731 -10.3538 -10.3505 -10.3433 -10.3340 -10.3094
-10.3033 -10.3011 -10.2969 -10.2966 -10.2964 -10.2941 -10.2922 -10.2915
-10.2893 -10.2887 -10.2862 -10.2859 -10.2758 -10.2499 -10.2499 -10.2490
-10.2487  -1.1107  -1.0085  -1.0032  -0.9139  -0.9048  -0.9042  -0.8882
 -0.8681  -0.8411  -0.8385  -0.8337  -0.7962  -0.7872  -0.7532  -0.7522
 -0.7328  -0.7313  -0.6851  -0.6805  -0.6790  -0.6731  -0.6582  -0.6496
 -0.6222  -0.6138  -0.5996  -0.5942  -0.5825  -0.5685  -0.5558  -0.5530
 -0.5270  -0.5241  -0.5147  -0.5123  -0.5113  -0.5080  -0.5070  -0.5042
 -0.4995  -0.4957  -0.4894  -0.4865  -0.4772  -0.4662  -0.4641  -0.4571
 -0.4533  -0.4476  -0.4438  -0.4408  -0.4379  -0.4348  -0.4295  -0.4271
 -0.4269  -0.4232  -0.4213  -0.4153  -0.4145  -0.4140  -0.4124  -0.4079
 -0.4054  -0.4003  -0.3967  -0.3926  -0.3842  -0.3035  -0.2916  -0.2758
 -0.2726  -0.1899
 -- Virtual --
  0.0820   0.0868   0.0883   0.0915   0.0958   0.1073   0.1081   0.1094
  0.1134   0.1155   0.1239   0.1271   0.1303   0.1350   0.1375   0.1382
  0.1417   0.1484   0.1513   0.1562   0.1581   0.1631   0.1649   0.1712
  0.1733   0.1766   0.1805   0.1834   0.1845   0.1878   0.1906   0.1932
  0.1948   0.1976   0.1998   0.1999   0.2039   0.2065   0.2096   0.2112
  0.2130   0.2159   0.2207   0.2216   0.2231   0.2251   0.2269   0.2310
  0.2334   0.2393   0.2403   0.2410   0.2447   0.2472   0.2496   0.2532
  0.2559   0.2583   0.2625   0.2630   0.2662   0.2711   0.2718   0.2743
  0.2761   0.2782   0.2817   0.2842   0.2884   0.2888   0.2925   0.2949
  0.2981   0.3018   0.3042   0.3066   0.3082   0.3132   0.3153   0.3176
  0.3217   0.3223   0.3250   0.3296   0.3301   0.3358   0.3382   0.3424
  0.3449   0.3456   0.3477   0.3548   0.3580   0.3589   0.3634   0.3651
  0.3667   0.3673   0.3705   0.3743   0.3752   0.3782   0.3801   0.3830
  0.3856   0.3896   0.3917   0.3934   0.3960   0.4007   0.4031   0.4046
  0.4061   0.4083   0.4120   0.4136   0.4158   0.4184   0.4192   0.4206
  0.4229   0.4245   0.4262   0.4272   0.4298   0.4317   0.4348   0.4354
  0.4358   0.4398   0.4404   0.4426   0.4452   0.4484   0.4486   0.4503
  0.4526   0.4535   0.4559   0.4580   0.4591   0.4651   0.4670   0.4688
  0.4700   0.4728   0.4754   0.4756   0.4788   0.4801   0.4821   0.4871
  0.4886   0.4891   0.4942   0.4955   0.4987   0.4997   0.5006   0.5017
  0.5064   0.5071   0.5089   0.5116   0.5145   0.5165   0.5197   0.5232
  0.5241   0.5252   0.5282   0.5293   0.5307   0.5338   0.5354   0.5393
  0.5409   0.5418   0.5435   0.5483   0.5505   0.5549   0.5565   0.5573
  0.5611   0.5620   0.5631   0.5660   0.5679   0.5696   0.5719   0.5759
  0.5771   0.5808   0.5811   0.5844   0.5856   0.5899   0.5923   0.5934
  0.5953   0.6002   0.6014   0.6026   0.6049   0.6105   0.6120   0.6148
  0.6172   0.6197   0.6243   0.6266   0.6279   0.6331   0.6365   0.6377
  0.6398   0.6403   0.6437   0.6469   0.6495   0.6527   0.6544   0.6552
  0.6614   0.6624   0.6632   0.6657   0.6682   0.6723   0.6778   0.6805
  0.6821   0.6839   0.6856   0.6902   0.6922   0.6948   0.6973   0.7016
  0.7054   0.7073   0.7082   0.7107   0.7137   0.7182   0.7185   0.7244
  0.7247   0.7274   0.7326   0.7356   0.7364   0.7412   0.7430   0.7493
  0.7504   0.7522   0.7553   0.7591   0.7617   0.7633   0.7675   0.7696
  0.7711   0.7759   0.7776   0.7811   0.7831   0.7858   0.7908   0.7965
  0.7984   0.8024   0.8042   0.8056   0.8140   0.8152   0.8163   0.8204
  0.8216   0.8244   0.8273   0.8298   0.8345   0.8406   0.8415   0.8429
  0.8479   0.8508   0.8559   0.8577   0.8616   0.8640   0.8659   0.8690
  0.8771   0.8791   0.8833   0.8875   0.8892   0.8926   0.8950   0.8971
  0.9033   0.9095   0.9118   0.9178   0.9219   0.9245   0.9274   0.9307
  0.9354   0.9426   0.9458   0.9482   0.9502   0.9532   0.9611   0.9631
  0.9679   0.9701   0.9764   0.9777   0.9849   0.9889   0.9905   0.9946
  0.9988   1.0073   1.0162   1.0177   1.0228   1.0262   1.0335   1.0374
  1.0471   1.0513   1.0533   1.0589   1.0614   1.0652   1.0683   1.0703
  1.0784   1.0807   1.0911   1.0941   1.0982   1.1011   1.1062   1.1112
  1.1132   1.1165   1.1177   1.1221   1.1226   1.1286   1.1354   1.1392
  1.1432   1.1445   1.1450   1.1490   1.1536   1.1642   1.1660   1.1704
  1.1758   1.1835   1.1887   1.1930   1.1946   1.2001   1.2034   1.2081
  1.2117   1.2140   1.2272   1.2329   1.2367   1.2418   1.2485   1.2550
  1.2557   1.2597   1.2613   1.2663   1.2783   1.2833   1.2864   1.2958
  1.2992   1.3049   1.3084   1.3180   1.3236   1.3270   1.3353   1.3378
  1.3408   1.3476   1.3584   1.3596   1.3683   1.3753   1.3831   1.3850
  1.3867   1.3963   1.3973   1.4055   1.4086   1.4153   1.4207   1.4208
  1.4220   1.4300   1.4350   1.4448   1.4461   1.4488   1.4631   1.4653
  1.4706   1.4737   1.4782   1.4846   1.4953   1.4972   1.5097   1.5156
  1.5245   1.5274   1.5334   1.5402   1.5405   1.5451   1.5491   1.5506
  1.5633   1.5649   1.5694   1.5751   1.5834   1.5859   1.5989   1.6022
  1.6140   1.6167   1.6277   1.6452   1.6517   1.6548   1.6603   1.6689
  1.6806   1.6856   1.6916   1.7014   1.7048   1.7171   1.7211   1.7295
  1.7328   1.7414   1.7507   1.7612   1.7631   1.7718   1.7741   1.7802
  1.7856   1.7896   1.7981   1.8034   1.8115   1.8147   1.8198   1.8236
  1.8253   1.8285   1.8358   1.8492   1.8539   1.8614   1.8681   1.8700
  1.8771   1.8890   1.8927   1.8985   1.9048   1.9083   1.9123   1.9184
  1.9217   1.9288   1.9327   1.9352   1.9412   1.9432   1.9492   1.9539
  1.9644   1.9717   1.9749   1.9790   1.9834   1.9884   1.9933   1.9998
  2.0057   2.0117   2.0139   2.0197   2.0251   2.0286   2.0315   2.0363
  2.0374   2.0452   2.0508   2.0559   2.0604   2.0631   2.0728   2.0749
  2.0807   2.0864   2.0881   2.0966   2.1008   2.1027   2.1086   2.1113
  2.1206   2.1214   2.1237   2.1290   2.1338   2.1375   2.1414   2.1460
  2.1534   2.1549   2.1632   2.1652   2.1712   2.1765   2.1820   2.1875
  2.1920   2.1971   2.2027   2.2049   2.2122   2.2162   2.2232   2.2243
  2.2285   2.2397   2.2417   2.2500   2.2574   2.2579   2.2703   2.2744
  2.2812   2.2897   2.3004   2.3046   2.3067   2.3207   2.3244   2.3249
  2.3286   2.3324   2.3438   2.3529   2.3576   2.3608   2.3675   2.3753
  2.3786   2.3845   2.3918   2.3966   2.4054   2.4073   2.4139   2.4197
  2.4214   2.4283   2.4318   2.4436   2.4454   2.4526   2.4607   2.4733
  2.4747   2.4840   2.4891   2.4947   2.4990   2.5062   2.5262   2.5271
  2.5432   2.5505   2.5545   2.5588   2.5649   2.5702   2.5726   2.5886
  2.5986   2.6042   2.6187   2.6227   2.6303   2.6331   2.6403   2.6437
  2.6467   2.6543   2.6604   2.6618   2.6697   2.6744   2.6806   2.6917
  2.6951   2.7072   2.7135   2.7195   2.7307   2.7346   2.7486   2.7519
  2.7562   2.7587   2.7637   2.7696   2.7717   2.7803   2.7842   2.7923
  2.8007   2.8040   2.8063   2.8135   2.8258   2.8292   2.8374   2.8491
  2.8638   2.8678   2.8811   2.8855   2.9142   2.9203   2.9349   2.9391
  2.9418   2.9556   2.9598   2.9725   2.9814   2.9954   3.0011   3.0146
  3.0195   3.0250   3.0321   3.0491   3.0930   3.0956   3.1105   3.1224
  3.1336   3.1429   3.1499   3.1561   3.1585   3.1644   3.1713   3.1728
  3.1824   3.1897   3.1992   3.2040   3.2090   3.2206   3.2335   3.2372
  3.2518   3.2618   3.2706   3.2738   3.2803   3.2854   3.2880   3.2994
  3.3026   3.3073   3.3124   3.3303   3.3406   3.3549   3.3575   3.3635
  3.3705   3.3738   3.3841   3.4022   3.4216   3.4478   3.4799   3.5148
  3.5353   3.5431   3.5524   3.6033   3.6206   3.6583   3.9225   4.0456
 --------------------------------------------------------------
 
          Ground-State Mulliken Net Atomic Charges

     Atom                 Charge (a.u.)
  ----------------------------------------
      1 N                    -2.351388
      2 C                     0.348990
      3 C                     0.406612
      4 C                     0.277922
      5 C                     0.750284
      6 C                     0.567370
      7 C                     0.311347
      8 C                     0.210310
      9 C                     0.301105
     10 C                     0.048806
     11 C                    -0.078660
     12 C                    -0.056696
     13 C                     0.005553
     14 C                     0.775411
     15 C                     0.597107
     16 C                     1.352914
     17 C                     0.724626
     18 H                    -1.032406
     19 H                    -0.128391
     20 H                    -0.292661
     21 H                     0.009830
     22 H                    -0.144535
     23 H                    -0.319063
     24 H                    -0.194804
     25 H                    -0.486227
     26 H                    -0.055723
     27 H                    -0.195230
     28 H                    -0.007842
     29 H                    -0.011234
     30 H                    -0.020719
     31 H                    -0.066226
     32 H                     0.144949
     33 H                    -0.378437
     34 H                     0.029481
     35 H                    -0.028287
     36 H                    -0.029384
     37 H                     0.044945
     38 H                     0.055423
     39 H                    -0.067819
     40 H                    -0.018527
     41 H                    -0.094118
     42 H                     0.073314
     43 H                     0.099126
     44 H                    -0.013475
     45 H                     0.072241
     46 H                     0.087900
     47 H                     0.003769
     48 H                     0.161498
     49 H                    -0.601851
     50 H                     0.078565
     51 H                     0.110606
     52 H                     0.037750
     53 H                    -0.011313
     54 O                    -0.826498
     55 H                    -0.381014
     56 C                     0.205543
     57 C                     0.006478
     58 C                    -0.193722
     59 H                     0.066282
     60 C                    -0.080325
     61 H                    -0.076590
     62 C                     0.300207
     63 C                    -0.071679
     64 O                    -0.890661
     65 H                    -0.060756
  ----------------------------------------
  Sum of atomic charges =    -1.000000

  Building new vdw surfaces
         Merz-Kollman RESP Net Atomic Charges

     Atom                 Charge (a.u.)
  ----------------------------------------
      1 N                     0.478057
      2 C                    -0.219008
      3 C                    -0.323702
      4 C                    -0.351111
      5 C                    -0.351111
      6 C                    -0.304117
      7 C                    -0.066441
      8 C                    -0.079417
      9 C                     0.025099
     10 C                     0.309800
     11 C                     0.149138
     12 C                     0.122940
     13 C                     0.146413
     14 C                    -0.622371
     15 C                    -0.454926
     16 C                    -0.454926
     17 C                    -0.454926
     18 H                     0.309652
     19 H                     0.104335
     20 H                     0.133867
     21 H                     0.133867
     22 H                     0.133867
     23 H                     0.133867
     24 H                     0.136373
     25 H                     0.136373
     26 H                     0.107701
     27 H                     0.107701
     28 H                     0.073589
     29 H                     0.073589
     30 H                     0.084854
     31 H                     0.084854
     32 H                     0.053420
     33 H                     0.053420
     34 H                     0.000769
     35 H                     0.000769
     36 H                     0.021602
     37 H                     0.021602
     38 H                     0.021602
     39 H                     0.021602
     40 H                     0.007824
     41 H                     0.007824
     42 H                     0.149740
     43 H                     0.149740
     44 H                     0.149740
     45 H                     0.113109
     46 H                     0.113109
     47 H                     0.113109
     48 H                     0.113128
     49 H                     0.113128
     50 H                     0.113128
     51 H                     0.111158
     52 H                     0.111158
     53 H                     0.111158
     54 O                    -0.977314
     55 H                     0.094931
     56 C                    -0.243560
     57 C                     0.351418
     58 C                    -0.518231
     59 H                     0.163791
     60 C                    -0.266182
     61 H                     0.151237
     62 C                     0.658803
     63 C                    -0.575336
     64 O                    -1.025829
     65 H                     0.210550
  ----------------------------------------
  Sum of atomic charges =    -1.000000

  Related Dipole Moment =    43.6151 (X -9.6425 Y 38.4449 Z 18.2014)

 -----------------------------------------------------------------
                    Cartesian Multipole Moments
 -----------------------------------------------------------------
    Charge (ESU x 10^10)
                -4.8032
    Dipole Moment (Debye)
         X      -9.6371      Y      38.6021      Z      18.3241
       Tot      43.8037
    Quadrupole Moments (Debye-Ang)
        XX    -192.7007     XY      16.8669     YY    -362.8716
        XZ      25.4664     YZ     -79.3032     ZZ    -199.6744
    Octopole Moments (Debye-Ang^2)
       XXX    -376.4603    XXY     303.4743    XYY     -94.0020
       YYY    1872.7183    XXZ     229.3298    XYZ     -54.1934
       YYZ     550.1456    XZZ    -162.2506    YZZ     381.2354
       ZZZ     501.6821
    Hexadecapole Moments (Debye-Ang^3)
      XXXX   -5943.7013   XXXY     548.4234   XXYY   -2586.2258
      XYYY     119.2543   YYYY  -16051.8417   XXXZ     548.4045
      XXYZ    -657.5478   XYYZ     154.1157   YYYZ   -3821.6393
      XXZZ   -1817.9743   XYZZ     236.3567   YYZZ   -2924.0006
      XZZZ     489.1363   YZZZ   -1719.0974   ZZZZ   -4230.7077
 -----------------------------------------------------------------
 Calculating analytic gradient of the SCF energy
 Gradient of SCF Energy
            1           2           3           4           5           6
    1   0.0044231  -0.0104469   0.0040105  -0.0042161   0.0053287   0.0092252
    2  -0.0030452  -0.0062820  -0.0038903  -0.0314000   0.0097850   0.0178396
    3  -0.0130761   0.0051944   0.0053059  -0.0217169  -0.0137228   0.0081667
            7           8           9          10          11          12
    1   0.0043232   0.0338733  -0.0082404   0.0030620  -0.0042065  -0.0033836
[...]
           19          20          21          22          23          24
    1   0.0031278  -0.0014369   0.0024483   0.0102038  -0.0028355   0.0034750
    2   0.0195245  -0.0082333   0.0103650   0.0109536  -0.0014632  -0.0124609
    3  -0.0049183  -0.0029901  -0.0027517   0.0156689   0.0135187  -0.0084738
           25          26          27          28          29          30
    1   0.0070494   0.0118906  -0.0115499   0.0026341  -0.0009716   0.0152101
    2  -0.0031986  -0.0033636  -0.0087753   0.0103649  -0.0060964   0.0075457
    3   0.0056102  -0.0103638   0.0242223   0.0034963   0.0000923  -0.0169647
           31          32          33          34          35          36
    1  -0.0686291   0.0209288  -0.0393858  -0.0212104   0.0225823  -0.0029557
    2   0.0343470   0.0057064  -0.0018038  -0.0076583   0.0152699  -0.0026526
    3   0.0109969   0.0174152  -0.0030932   0.0242481  -0.0057289  -0.0017057
           37          38          39          40          41          42
    1  -0.0003748  -0.0331708   0.0108849  -0.0063385   0.0093222   0.0079509
    2   0.0069638  -0.0040258  -0.0284056   0.0064419  -0.0103037  -0.0063308
    3  -0.0022271   0.0293304  -0.0033692  -0.0157573  -0.0001967  -0.0107228
           43          44          45          46          47          48
    1  -0.0103848  -0.0096513   0.0037649  -0.0011311   0.0036158   0.0169988
    2  -0.0114127   0.0180790   0.0059499  -0.0051822  -0.0016513   0.0011909
    3   0.0105820  -0.0082377   0.0041013   0.0032227  -0.0061270  -0.0233977
           49          50          51          52          53          54
    1  -0.0466835   0.0241860   0.0114487  -0.0148366  -0.0113929   0.0112584
    2   0.0272677   0.0056271  -0.0002357   0.0241185  -0.0177848  -0.0280380
    3  -0.0055857   0.0243479   0.0174990  -0.0053072  -0.0009172  -0.0121650
           55          56          57          58          59          60
    1  -0.0625445  -0.0200758  -0.0125923  -0.0125288  -0.0360144   0.0162339
    2   0.0263582  -0.0323524  -0.0617471   0.0338999   0.0633555  -0.0242069
    3  -0.0239481  -0.0940269  -0.0407155   0.0037907  -0.0951736   0.0551298
           61          62          63          64          65
    1  -0.0293541   0.0582962   0.0367945   0.0263468   0.0345039
    2  -0.0479012  -0.0034061   0.0221558   0.0311121   0.0212430
    3   0.0988974  -0.0337933   0.0472446  -0.0072955   0.1076616
 Max gradient component =       1.077E-01
 RMS gradient           =       2.436E-02
 Computing fast CPCM-SWIG gradient
 Updating gradient with PCM contributions...
 -- total gradient after adding PCM contribution --
---------------------------------------------------
  Atom         X              Y              Z     
---------------------------------------------------
   1       0.000007       0.000042       0.000042
   2      -0.000037       0.000444      -0.000176
   3       0.000059      -0.000014       0.000003
   4      -0.000018       0.000007       0.000013
   5      -0.000016       0.000001      -0.000032
   6       0.000006       0.000010       0.000008
   7       0.000003       0.000012      -0.000024
   8       0.000010       0.000033       0.000018
   9      -0.000000      -0.000009       0.000025
  10      -0.000024      -0.000006      -0.000003
  11      -0.000013       0.000011       0.000002
  12      -0.000031      -0.000014      -0.000019
  13       0.000016       0.000009      -0.000004
  14       0.000003       0.000002       0.000012
  15       0.000002      -0.000006      -0.000010
  16       0.000029       0.000008       0.000017
  17      -0.000011      -0.000004       0.000004
  18      -0.000002      -0.000720       0.000207
  19       0.000040      -0.000031      -0.000029
  20      -0.000016      -0.000004       0.000015
  21      -0.000001      -0.000006      -0.000015
  22      -0.000003      -0.000038       0.000016
  23       0.000020       0.000006      -0.000020
  24      -0.000009       0.000000       0.000007
  25      -0.000004      -0.000007      -0.000015
  26      -0.000009       0.000022      -0.000006
  27       0.000006      -0.000003       0.000004
  28      -0.000011      -0.000015       0.000023
  29      -0.000005      -0.000010      -0.000016
  30      -0.000003      -0.000006      -0.000009
  31      -0.000011      -0.000006      -0.000014
  32       0.000002      -0.000002      -0.000001
  33      -0.000004       0.000007      -0.000006
  34      -0.000002       0.000004       0.000002
  35      -0.000001       0.000003       0.000008
  36      -0.000002      -0.000003      -0.000003
  37      -0.000004      -0.000001      -0.000002
  38      -0.000006       0.000015      -0.000003
  39      -0.000002      -0.000002       0.000011
  40      -0.000003       0.000004       0.000005
  41      -0.000003       0.000002       0.000003
  42      -0.000006       0.000007      -0.000000
  43      -0.000002       0.000000       0.000003
  44      -0.000007       0.000002       0.000007
  45      -0.000002      -0.000002      -0.000006
  46      -0.000004       0.000001      -0.000001
  47      -0.000005      -0.000002      -0.000006
  48      -0.000012       0.000003      -0.000013
  49      -0.000007      -0.000003      -0.000008
  50       0.000010      -0.000010      -0.000014
  51       0.000002       0.000007       0.000004
  52       0.000003       0.000003       0.000005
  53       0.000004       0.000002       0.000005
  54      -0.000000       0.000266      -0.000036
  55      -0.000021       0.000012       0.000023
  56       0.000054       0.000011      -0.000031
  57       0.000010       0.000007       0.000046
  58      -0.000032      -0.000055      -0.000030
  59       0.000007       0.000026       0.000018
  60       0.000033      -0.000054      -0.000034
  61      -0.000028       0.000016       0.000013
  62       0.000015      -0.000018       0.000040
  63       0.000005       0.000048      -0.000014
  64       0.000029       0.000007      -0.000011
  65       0.000004      -0.000005      -0.000000
---------------------------------------------------
 Number of fixed atoms: 0
 Gradient time:  CPU 4422.16 s  wall 230.19 s

     Step 1	:	Energy -1066.7221447107
                            Maximum         Tolerance       Converged?
         Gradient           2.34484081e-04	3.00000000e-04	true
         Displacement       4.82750035e-04	1.20000000e-03	true
         Energy change      1.89966613e-07	1.00000000e-06	true

	 Optimization Converged in 1 cycles

 *****************************************************
             End of BFGS Algorithm
 *****************************************************
		----------------------------------
		   Verification of Optimization
		----------------------------------

 Eigenvalues of Hessian in Optimization Verification
   0.01775016   0.10000000   0.10000000   0.10000000   0.10000000
   0.10000000   0.10000000   0.10000000   0.10000000   0.10000000
   0.10000000   0.10000000   0.10000000   0.10000000   0.10000000
   0.10000000   0.10000000   0.10000000   0.10000000   0.10000000
   0.10000000   0.10000000   0.10000000   0.10000000   0.10000000
   0.10000000   0.10000000   0.10000000   0.10000000   0.10000000
   0.10000000   0.10000000   0.10000000   0.10000000   0.10000000
   0.10000000   0.10000000   0.10000000   0.10000000   0.10000000
   0.10000000   0.10000000   0.10000000   0.10000000   0.10000000
   0.10000000   0.10000000   0.10000000   0.10000000   0.10000000
   0.10000000   0.10000000   0.10000000   0.10000000   0.10000000
   0.10000000   0.10000000   0.10000000   0.10000000   0.10000000
   0.10000000   0.10000000   0.10000000   0.10000000   0.10000000
   0.10000000   0.10000000   0.10000000   0.10000000   0.10000000
   0.10000000   0.10000000   0.10000000   0.10000000   0.10000000
   0.10000000   0.10000000   0.10000000   0.10000000   0.10000000
   0.10000000   0.10000000   0.10000000   0.10000000   0.10000000
   0.10000000   0.10000000   0.10000000   0.10000000   0.10000000
   0.10000000   0.10000000   0.10000000   0.10000000   0.10000000
   0.10000000   0.10000000   0.10000000   0.10000000   0.10000000
   0.10000000   0.10000000   0.10000000   0.10000000   0.10000000
   0.10000000   0.10000000   0.10000000   0.10000000   0.10000000
   0.10000000   0.10000000   0.10000000   0.10000000   0.10000000
   0.10000000   0.10000000   0.10000000   0.10000000   0.10000000
   0.10000000   0.10000000   0.10000000   0.10000000   0.10000000
   0.10000000   0.10000000   0.10000000   0.10000000   0.10000000
   0.10000000   0.10000000   0.10000000   0.10000000   0.10000000
   0.10000000   0.10000000   0.10000000   0.10000000   0.10000000
   0.10000000   0.10000000   0.10000000   0.10000000   0.10000000
   0.10000000   0.10000000   0.10000000   0.10000000   0.10000000
   0.10000000   0.10000000   0.10000000   0.10000000   0.10000000
   0.10000000   0.10000000   0.10000000   0.10000000   0.10000000
   0.10000000   0.10000000   0.10000000   0.10000000   0.10000000
   0.10000000   0.10000000   0.10000000   0.10000000   0.10000000
   0.10000000   0.10000000   0.10000000   0.14227971   0.18158027
   0.20000000   0.20000000   0.20000000   0.20000000   0.20000000
   0.20000000   0.20000000   0.20000000   0.20000000   0.20000000
   0.20000000   0.20000000   0.20000000   0.20000000   0.20000000
   0.20000000   0.20000000   0.20000000   0.20000000   0.20000000
   0.20000000   0.20000000   0.20000000   0.20000000   0.20000000
   0.20000000   0.20000000   0.20000000   0.20000000   0.20000000
   0.20000000   0.20000000   0.20000000   0.20000000   0.20000000
   0.20000000   0.20000000   0.20000000   0.20000000   0.20000000
   0.20000000   0.20000000   0.20000000   0.20000000   0.20000000
   0.20000000   0.20000000   0.20000000   0.20000000   0.20000000
   0.20000000   0.20000000   0.20000000   0.20000000   0.20000000
   0.20000000   0.20000000   0.20000000   0.20000000   0.20000000
   0.20000000   0.20000000   0.20000000   0.20000000   0.20000000
   0.20000000   0.20000000   0.20000000   0.20000000   0.20000000
   0.20000000   0.20000000   0.20000000   0.20000000   0.20000000
   0.20000000   0.20000000   0.20000000   0.20000000   0.20000000
   0.20000000   0.20000000   0.20000000   0.20000000   0.20000000
   0.20000000   0.20000000   0.20000000   0.20000000   0.20000000
   0.20000000   0.20000000   0.20000000   0.20000000   0.20000000
   0.20000000   0.20000000   0.20000000   0.20000000   0.20000000
   0.20000000   0.20000000   0.20000000   0.20000000   0.20000000
   0.20000000   0.20000000   0.20000000   0.20000000   0.20000000
   0.20000000   0.20000000   0.20000000   0.20000000   0.20000000
   0.20000000   0.20000000   0.20000000   0.20000000   0.20000000
   0.45332531   0.48919644   0.50000000   0.50000000   0.50000000
   0.50000000   0.50000000   0.50000000   0.50000000   0.50000000
   0.50000000   0.50000000   0.50000000   0.50000000   0.50000000
   0.50000000   0.50000000   0.50000000   0.50000000   0.50000000
   0.50000000   0.50000000   0.50000000   0.50000000   0.50000000
   0.50000000   0.50000000   0.50000000   0.50000000   0.50000000
   0.50000000   0.50000000   0.50000000   0.50000000   0.50000000
   0.50000000   0.50000000   0.50000000   0.50000000   0.50000000
   0.50000000   0.50000000   0.50000000   0.50000000   0.50000000
   0.50000000   0.50000000   0.50000000   0.50000000   0.50000000
   0.50000000   0.50000000   0.50000000   0.50000000   0.50000000
   0.50000000   0.50000000   0.50000000   0.50000000   0.50000000
   0.50000000   0.50000000   0.50000000   0.50000000   0.50000000
   0.84794289

 Found a minimum
		---------------------------------
		       End of Verification
		---------------------------------

 Final energy is -1066.722144710714

	******************************
	**  OPTIMIZATION CONVERGED  **
	******************************
 ----------------------------------------------------------------
             Standard Nuclear Orientation (Angstroms)
    I     Atom           X                Y                Z
 ----------------------------------------------------------------
    1      N       0.2885187120     0.0852962035    -0.2308724777
    2      C       1.3303005244    -0.8701363968     0.3088377251
    3      C      -0.7203060971     0.3845508708     0.8516090790
    4      C      -0.3579765372    -0.5600084148    -1.4320809110
    5      C       0.9170279339     1.3879524324    -0.6556668307
    6      C       2.2481845466    -0.3083412900     1.3806060063
    7      C      -2.0196517970     1.0288652917     0.3952511302
    8      C      -1.1276588675    -1.8428685055    -1.1521577188
    9      C       1.9377565971     1.2854604914    -1.7792835103
   10      C       3.1243531945    -1.4249523385     1.9488567900
   11      C      -2.8791023027     1.3966144573     1.6045881227
   12      C      -2.0819126908    -2.1395274349    -2.3069928283
   13      C       2.8713759234     2.4945499952    -1.7697544096
   14      C       4.0946422565    -0.9237031186     3.0117427941
   15      C      -4.2170628626     2.0046089446     1.2012308085
   16      C      -2.8374862597    -3.4472675227    -2.1113274105
   17      C       3.8678848024     2.4651372721    -2.9226048953
   18      H       1.9189556140    -1.2201605729    -0.5510686348
   19      H       0.7719275653    -1.7265507003     0.6995347406
   20      H      -0.2141131493     1.0368423107     1.5702685934
   21      H      -0.9301191691    -0.5603368279     1.3626320762
   22      H       0.4522861389    -0.7742692491    -2.1364005197
   23      H      -1.0080230777     0.2024005928    -1.8756261398
   24      H       1.3715580592     1.8135924807     0.2441785494
   25      H       0.0972221594     2.0523781950    -0.9444408895
   26      H       1.6826882739     0.1549722781     2.2016279909
   27      H       2.9022428071     0.4669662760     0.9570234427
   28      H      -2.5865613153     0.3407397498    -0.2459993853
   29      H      -1.8281689272     1.9346536889    -0.1963662746
   30      H      -1.7106880542    -1.7743847583    -0.2232539893
   31      H      -0.4250833845    -2.6795146157    -1.0420288712
   32      H       1.4178939179     1.2362988795    -2.7465878653
   33      H       2.5206884934     0.3568559259    -1.7039525737
   34      H       3.6826736875    -1.8942803781     1.1253027601
   35      H       2.4792712991    -2.2099449530     2.3722189293
   36      H      -2.3248157112     2.1026765519     2.2415539642
   37      H      -3.0494603546     0.4956597649     2.2141949023
   38      H      -1.5025324391    -2.1840808860    -3.2411831282
   39      H      -2.7933276186    -1.3043166037    -2.4125610023
   40      H       3.4134880230     2.5198269677    -0.8111868072
   41      H       2.2786826010     3.4218471614    -1.8136211470
   42      H       3.5550775564    -0.4777369314     3.8597244830
   43      H       4.7662705838    -0.1562661827     2.6007776449
   44      H       4.7148247635    -1.7424726000     3.3991542429
   45      H      -4.7977059631     1.3035838638     0.5844742648
   46      H      -4.0711141482     2.9241860588     0.6163012281
   47      H      -4.8194592814     2.2572452920     2.0834331673
   48      H      -3.4350634814    -3.4194390667    -1.1877100483
   49      H      -2.1344512130    -4.2886972721    -2.0410851515
   50      H      -3.5221795156    -3.6395104320    -2.9485355802
   51      H       3.3466925237     2.4651380421    -3.8908849800
   52      H       4.4903402542     1.5598361893    -2.8772927451
   53      H       4.5332574543     3.3380678025    -2.8958819088
   54      O       2.8635448624    -1.8969131910    -2.2724828672
   55      H       2.7557579742    -3.6032568754    -0.2528282054
   56      C       2.1029209455    -3.8480612474    -1.0964994945
   57      C       2.1236611702    -2.9818493853    -2.2213566758
   58      C       1.2673385636    -4.9680825379    -1.0098612141
   59      H       1.2940342030    -5.5822246141    -0.1027746025
   60      C       1.2378719308    -3.3662737660    -3.2615576393
   61      H       1.1939928812    -2.7345238477    -4.1556033365
   62      C       0.3756534839    -5.3522041539    -2.0488945009
   63      C       0.4112427065    -4.4917487966    -3.1812052214
   64      O      -0.4106457444    -6.3963640273    -1.9679848999
   65      H      -0.2647150253    -4.7175545370    -4.0130961446
 ----------------------------------------------------------------
 Nuclear Repulsion Energy =        2434.05272938 hartrees
 There are       98 alpha and       98 beta electrons

Z-matrix Print:
$molecule
-1 1
N 
C  1 1.507444
H  2 1.094045 1 106.664253
H  2 1.094298 1 106.115668 3 113.818109 0
C  1 1.509065 2 108.895064 3 66.301772 0
H  5 1.094760 1 106.183971 2 63.105302 0
H  5 1.095701 1 106.190946 2 -52.086119 0
C  1 1.509651 2 108.021901 3 -55.149121 0
H  8 1.094522 1 106.962876 2 -162.452066 0
H  8 1.094617 1 106.252245 2 -48.129884 0
C  1 1.513092 2 111.045602 3 -174.914796 0
H  11 1.094472 1 105.674197 2 173.311796 0
H  11 1.099305 1 106.901266 2 -72.202500 0
C  11 1.518819 1 115.736638 2 51.033316 0
H  14 1.099234 11 110.399152 1 -67.397329 0
H  14 1.099328 11 111.840912 1 51.941629 0
C  8 1.520429 1 116.095202 2 74.337337 0
H  17 1.098228 8 110.540799 1 65.236024 0
H  17 1.098694 8 111.226140 1 -53.461547 0
C  2 1.521482 1 115.442824 3 -123.057630 0
H  20 1.098995 2 111.232119 1 -35.656969 0
H  20 1.099251 2 109.608729 1 81.070981 0
C  5 1.522005 1 115.510673 2 -175.795798 0
H  23 1.098052 5 109.700023 1 -78.230941 0
H  23 1.098852 5 111.793248 1 41.033617 0
C  23 1.527171 5 109.916099 1 161.777716 0
H  26 1.100172 23 108.717969 5 56.021164 0
H  26 1.102195 23 109.180182 5 -60.161679 0
C  26 1.522945 23 112.312316 5 177.491832 0
H  29 1.098490 26 111.198212 23 179.661000 0
H  29 1.098725 26 110.387436 23 -60.147121 0
H  29 1.100428 26 110.826354 23 59.775954 0
C  20 1.527623 2 110.615138 1 -158.384671 0
H  33 1.101404 20 109.708844 2 -54.868285 0
H  33 1.101534 20 108.927270 2 61.073520 0
C  33 1.524126 20 112.308715 2 -177.213361 0
H  36 1.097926 33 111.252609 20 -179.678631 0
H  36 1.099579 33 110.783508 20 -59.414105 0
H  36 1.099640 33 110.864154 20 60.144420 0
C  17 1.528526 8 110.181639 1 -174.458467 0
H  40 1.100674 17 109.210469 8 59.808124 0
H  40 1.101073 17 109.157484 8 -56.145656 0
C  40 1.523973 17 112.347551 8 -178.064159 0
H  43 1.097719 40 111.155253 17 179.765965 0
H  43 1.099532 40 110.960802 17 59.659999 0
H  43 1.099575 40 110.971967 17 -60.109189 0
C  14 1.528856 11 109.783724 1 173.025010 0
H  47 1.100105 14 108.916456 11 56.671627 0
H  47 1.100718 14 109.145107 11 -59.020503 0
C  47 1.523955 14 112.574689 11 178.739354 0
H  50 1.097769 47 111.131794 14 -179.693805 0
H  50 1.099516 47 110.965412 14 -59.626120 0
H  50 1.099586 47 111.028949 14 60.183615 0
O  13 2.076899 11 174.642821 1 -42.178171 0
C  54 1.314203 13 88.894471 11 -57.734405 0
C  55 1.419304 54 123.124110 13 120.295947 0
H  56 1.095605 55 117.831873 54 1.503184 0
C  56 1.398737 55 123.002107 54 -177.299380 0
H  58 1.095422 56 119.138257 55 178.668382 0
C  55 1.419879 54 122.866045 13 -57.273782 0
H  60 1.094489 55 117.743025 54 -1.608092 0
C  60 1.400054 55 123.078026 54 176.715413 0
H  62 1.095760 60 119.016085 55 -179.005414 0
C  62 1.422056 60 123.031882 55 0.916751 0
O  64 1.309612 62 123.141146 60 -179.723031 0
$end

 -----------------------------------------------------------------------
                  END OF GEOMETRY OPTIMIZER USING LIBOPT3               
 -----------------------------------------------------------------------
 Total job time:  2503.00s(wall), 51747.22s(cpu) 
 Thu May 19 15:14:51 2022

        *************************************************************
        *                                                           *
        *  Thank you very much for using Q-Chem.  Have a nice day.  *
        *                                                           *
        *************************************************************


