
Running Job 1 of 1 mol.qin
qchem mol.qin_142448.0 /tmp/scratch/ 0
/clusterfs/mp/software/qchem5.4/exe/qcprog.exe_s mol.qin_142448.0 /tmp/scratch/
                  Welcome to Q-Chem
     A Quantum Leap Into The Future Of Chemistry


 Q-Chem 5.4, Q-Chem, Inc., Pleasanton, CA (2021)

 E. Epifanovsky,  A. T. B. Gilbert,  Xintian Feng,  Joonho Lee,  Yuezhi Mao,  
 N. Mardirossian,  P. Pokhilko,  A. White,  M. Wormit,  M. P. Coons,  
 A. L. Dempwolff,  Zhengting Gan,  D. Hait,  P. R. Horn,  L. D. Jacobson,  
 I. Kaliman,  J. Kussmann,  A. W. Lange,  Ka Un Lao,  D. S. Levine,  Jie Liu,  
 S. C. McKenzie,  A. F. Morrison,  K. Nanda,  F. Plasser,  D. R. Rehn,  
 M. L. Vidal,  Zhi-Qiang You,  Ying Zhu,  B. Alam,  B. Albrecht,  
 A. Aldossary,  E. Alguire,  J. H. Andersen,  D. Barton,  K. Begam,  A. Behn,  
 Y. A. Bernard,  E. J. Berquist,  H. Burton,  A. Carreras,  K. Carter-Fenk,  
 Romit Chakraborty,  A. D. Chien,  K. D. Closser,  V. Cofer-Shabica,  
 S. Dasgupta,  Jia Deng,  M. de Wergifosse,  M. Diedenhofen,  Hainam Do,  
 S. Ehlert,  Po-Tung Fang,  S. Fatehi,  Qingguo Feng,  T. Friedhoff,  
 J. Gayvert,  Qinghui Ge,  G. Gidofalvi,  M. Goldey,  J. Gomes,  
 C. Gonzalez-Espinoza,  S. Gulania,  A. Gunina,  M. W. D. Hanson-Heine,  
 P. H. P. Harbach,  A. W. Hauser,  M. F. Herbst,  M. Hernandez Vera,  
 M. Hodecker,  Z. C. Holden,  S. Houck,  Xunkun Huang,  Kerwin Hui,  
 B. C. Huynh,  M. Ivanov,  Hyunjun Ji,  Hanjie Jiang,  B. Kaduk,  S. Kaehler,  
 K. Khistyaev,  Jaehoon Kim,  P. Klunzinger,  Z. Koczor-Benda,  
 Joong Hoon Koh,  D. Kosenkov,  L. Koulias,  T. Kowalczyk,  C. M. Krauter,  
 K. Kue,  A. Kunitsa,  T. Kus,  A. Landau,  K. V. Lawler,  D. Lefrancois,  
 S. Lehtola,  Rain Li,  Yi-Pei Li,  Jiashu Liang,  M. Liebenthal,  
 Hung-Hsuan Lin,  You-Sheng Lin,  Fenglai Liu,  Kuan-Yu Liu,  
 M. Loipersberger,  A. Luenser,  A. Manjanath,  P. Manohar,  E. Mansoor,  
 S. F. Manzer,  Shan-Ping Mao,  A. V. Marenich,  T. Markovich,  S. Mason,  
 S. A. Maurer,  P. F. McLaughlin,  M. F. S. J. Menger,  J.-M. Mewes,  
 S. A. Mewes,  P. Morgante,  J. W. Mullinax,  K. J. Oosterbaan,  G. Paran,  
 Alexander C. Paul,  Suranjan K. Paul,  F. Pavosevic,  Zheng Pei,  S. Prager,  
 E. I. Proynov,  E. Ramos,  B. Rana,  A. E. Rask,  A. Rettig,  R. M. Richard,  
 F. Rob,  E. Rossomme,  T. Scheele,  M. Scheurer,  M. Schneider,  
 N. Sergueev,  S. M. Sharada,  W. Skomorowski,  D. W. Small,  C. J. Stein,  
 Yu-Chuan Su,  E. J. Sundstrom,  Zhen Tao,  J. Thirman,  T. Tsuchimochi,  
 N. M. Tubman,  S. P. Veccham,  O. Vydrov,  J. Wenzel,  J. Witte,  A. Yamada,  
 Kun Yao,  S. Yeganeh,  S. R. Yost,  A. Zech,  Igor Ying Zhang,  Xing Zhang,  
 Yu Zhang,  D. Zuev,  A. Aspuru-Guzik,  A. T. Bell,  N. A. Besley,  
 K. B. Bravaya,  B. R. Brooks,  D. Casanova,  Jeng-Da Chai,  S. Coriani,  
 C. J. Cramer,  A. E. DePrince, III,  R. A. DiStasio Jr.,  A. Dreuw,  
 B. D. Dunietz,  T. R. Furlani,  W. A. Goddard III,  S. Grimme,  
 S. Hammes-Schiffer,  T. Head-Gordon,  W. J. Hehre,  Chao-Ping Hsu,  
 T.-C. Jagau,  Yousung Jung,  A. Klamt,  Jing Kong,  D. S. Lambrecht,  
 WanZhen Liang,  N. J. Mayhall,  C. W. McCurdy,  J. B. Neaton,  T. Neudecker,  
 C. Ochsenfeld,  J. A. Parkhill,  R. Peverati,  V. A. Rassolov,  Yihan Shao,  
 L. V. Slipchenko,  R. P. Steele,  J. E. Subotnik,  A. J. W. Thom,  
 A. Tkatchenko,  D. G. Truhlar,  T. Van Voorhis,  T. A. Wesolowski,  
 K. B. Whaley,  H. L. Woodcock III,  P. M. Zimmerman,  S. Faraji,  
 P. M. W. Gill,  M. Head-Gordon,  J. M. Herbert,  A. I. Krylov

 Additional authors since Version 5.4.0: 
 Chandrima Chakravarty,  L. Cunha,  R. Kang,  Yongbin Kim,  S. Kotaru,  
 Shaozhi Li,  Xiangyuan Li,  F. Matz,  A. Molle,  V. Parravicini,  
 Haisheng Ren,  Hengyuan Shen,  Yingli Su,  Hung-Yi Tsai,  C. Utku,  
 Fang Wang,  Jeff Yang,  F. Zeller

 Contributors to earlier versions of Q-Chem not listed above: 
 R. D. Adamson,  B. Austin,  R. Baer,  J. Baker,  G. J. O. Beran,  
 K. Brandhorst,  S. T. Brown,  E. F. C. Byrd,  Arup K. Chakraborty,  
 G. K. L. Chan,  Chun-Min Chang,  Yunqing Chen,  C.-L. Cheng,  
 Siu Hung Chien,  D. M. Chipman,  D. L. Crittenden,  H. Dachsel,  
 R. J. Doerksen,  A. D. Dutoi,  R. G. Edgar,  J. Fosso-Tande,  
 L. Fusti-Molnar,  D. Ghosh,  A. Ghysels,  A. Golubeva-Zadorozhnaya,  
 J. Gonthier,  M. S. Gordon,  S. R. Gwaltney,  G. Hawkins,  J. E. Herr,  
 A. Heyden,  S. Hirata,  E. G. Hohenstein,  G. Kedziora,  F. J. Keil,  
 C. Kelley,  Jihan Kim,  R. A. King,  R. Z. Khaliullin,  P. P. Korambath,  
 W. Kurlancheek,  A. Laurent,  A. M. Lee,  M. S. Lee,  S. V. Levchenko,  
 Ching Yeh Lin,  D. Liotard,  E. Livshits,  R. C. Lochan,  I. Lotan,  
 L. A. Martinez-Martinez,  P. E. Maslen,  N. Nair,  D. P. O'Neill,  
 D. Neuhauser,  E. Neuscamman,  C. M. Oana,  R. Olivares-Amaya,  R. Olson,  
 T. M. Perrine,  B. Peters,  P. A. Pieniazek,  A. Prociuk,  Y. M. Rhee,  
 J. Ritchie,  M. A. Rohrdanz,  E. Rosta,  N. J. Russ,  H. F. Schaefer III,  
 M. W. Schmidt,  N. E. Schultz,  S. Sharma,  N. Shenvi,  C. D. Sherrill,  
 A. C. Simmonett,  A. Sodt,  T. Stein,  D. Stuck,  K. S. Thanthiriwatte,  
 V. Vanovschi,  L. Vogt,  Tao Wang,  A. Warshel,  M. A. Watson,  
 C. F. Williams,  Q. Wu,  X. Xu,  Jun Yang,  W. Zhang,  Yan Zhao

   Please cite Q-Chem as follows:
  "Software for the frontiers of quantum chemistry:
   An overview of developments in the Q-Chem 5 package"
   J. Chem. Phys. 155, 084801 (2021)
   https://doi.org/10.1063/5.0055522 (open access)

 Q-Chem 5.4.2 for Intel X86 EM64T Linux

 Parts of Q-Chem use Armadillo 9.900.5 (Nocturnal Misbehaviour).
 http://arma.sourceforge.net/

 Q-Chem begins on Sat May 21 14:57:07 2022  

 Host: 
0

     Scratch files written to /tmp/scratch//
 Dec1321 |scratch|qcdevops|jenkins|workspace|build_RNUM 7600   
 Processing $rem in /clusterfs/mp/software/qchem5.4/config/preferences:
 Processing $rem in /global/home/users/smblau/.qchemrc:
 Symmetry turned off for PCM/SM12/SMD calculation

 Checking the input file for inconsistencies... 	...done.

--------------------------------------------------------------
User input:
--------------------------------------------------------------
$molecule
-1 1
N      0.2885187120      0.0852962035     -0.2308724777
C      1.3303005244     -0.8701363968      0.3088377251
C     -0.7203060971      0.3845508708      0.8516090790
C     -0.3579765372     -0.5600084148     -1.4320809110
C      0.9170279339      1.3879524324     -0.6556668307
C      2.2481845466     -0.3083412900      1.3806060063
C     -2.0196517970      1.0288652917      0.3952511302
C     -1.1276588675     -1.8428685055     -1.1521577188
C      1.9377565971      1.2854604914     -1.7792835103
C      3.1243531945     -1.4249523385      1.9488567900
C     -2.8791023027      1.3966144573      1.6045881227
C     -2.0819126908     -2.1395274349     -2.3069928283
C      2.8713759234      2.4945499952     -1.7697544096
C      4.0946422565     -0.9237031186      3.0117427941
C     -4.2170628626      2.0046089446      1.2012308085
C     -2.8374862597     -3.4472675227     -2.1113274105
C      3.8678848024      2.4651372721     -2.9226048953
H      1.9189556140     -1.2201605729     -0.5510686348
H      0.7719275653     -1.7265507003      0.6995347406
H     -0.2141131493      1.0368423107      1.5702685934
H     -0.9301191691     -0.5603368279      1.3626320762
H      0.4522861389     -0.7742692491     -2.1364005197
H     -1.0080230777      0.2024005928     -1.8756261398
H      1.3715580592      1.8135924807      0.2441785494
H      0.0972221594      2.0523781950     -0.9444408895
H      1.6826882739      0.1549722781      2.2016279909
H      2.9022428071      0.4669662760      0.9570234427
H     -2.5865613153      0.3407397498     -0.2459993853
H     -1.8281689272      1.9346536889     -0.1963662746
H     -1.7106880542     -1.7743847583     -0.2232539893
H     -0.4250833845     -2.6795146157     -1.0420288712
H      1.4178939179      1.2362988795     -2.7465878653
H      2.5206884934      0.3568559259     -1.7039525737
H      3.6826736875     -1.8942803781      1.1253027601
H      2.4792712991     -2.2099449530      2.3722189293
H     -2.3248157112      2.1026765519      2.2415539642
H     -3.0494603546      0.4956597649      2.2141949023
H     -1.5025324391     -2.1840808860     -3.2411831282
H     -2.7933276186     -1.3043166037     -2.4125610023
H      3.4134880230      2.5198269677     -0.8111868072
H      2.2786826010      3.4218471614     -1.8136211470
H      3.5550775564     -0.4777369314      3.8597244830
H      4.7662705838     -0.1562661827      2.6007776449
H      4.7148247635     -1.7424726000      3.3991542429
H     -4.7977059631      1.3035838638      0.5844742648
H     -4.0711141482      2.9241860588      0.6163012281
H     -4.8194592814      2.2572452920      2.0834331673
H     -3.4350634814     -3.4194390667     -1.1877100483
H     -2.1344512130     -4.2886972721     -2.0410851515
H     -3.5221795156     -3.6395104320     -2.9485355802
H      3.3466925237      2.4651380421     -3.8908849800
H      4.4903402542      1.5598361893     -2.8772927451
H      4.5332574543      3.3380678025     -2.8958819088
O      2.8635448624     -1.8969131910     -2.2724828672
H      2.7557579742     -3.6032568754     -0.2528282054
C      2.1029209455     -3.8480612474     -1.0964994945
C      2.1236611702     -2.9818493853     -2.2213566758
C      1.2673385636     -4.9680825379     -1.0098612141
H      1.2940342030     -5.5822246141     -0.1027746025
C      1.2378719308     -3.3662737660     -3.2615576393
H      1.1939928812     -2.7345238477     -4.1556033365
C      0.3756534839     -5.3522041539     -2.0488945009
C      0.4112427065     -4.4917487966     -3.1812052214
O     -0.4106457444     -6.3963640273     -1.9679848999
H     -0.2647150253     -4.7175545370     -4.0130961446
$end

$rem
job_type = opt
basis = def2-svpd
max_scf_cycles = 100
gen_scfman = true
xc_grid = 3
thresh = 14
s2thresh = 16
scf_algorithm = diis
resp_charges = true
symmetry = false
sym_ignore = true
method = wb97xd
geom_opt_max_cycles = 200
solvent_method = pcm
geom_opt_hessian = read
scf_guess_always = True
$end

$pcm
heavypoints 194
hpoints 194
radii uff
theory cpcm
vdwscale 1.1
$end

$solvent
dielectric 38.88
$end
--------------------------------------------------------------
 ----------------------------------------------------------------
             Standard Nuclear Orientation (Angstroms)
    I     Atom           X                Y                Z
 ----------------------------------------------------------------
    1      N       0.2885187120     0.0852962035    -0.2308724777
    2      C       1.3303005244    -0.8701363968     0.3088377251
    3      C      -0.7203060971     0.3845508708     0.8516090790
    4      C      -0.3579765372    -0.5600084148    -1.4320809110
    5      C       0.9170279339     1.3879524324    -0.6556668307
    6      C       2.2481845466    -0.3083412900     1.3806060063
    7      C      -2.0196517970     1.0288652917     0.3952511302
    8      C      -1.1276588675    -1.8428685055    -1.1521577188
    9      C       1.9377565971     1.2854604914    -1.7792835103
   10      C       3.1243531945    -1.4249523385     1.9488567900
   11      C      -2.8791023027     1.3966144573     1.6045881227
   12      C      -2.0819126908    -2.1395274349    -2.3069928283
   13      C       2.8713759234     2.4945499952    -1.7697544096
   14      C       4.0946422565    -0.9237031186     3.0117427941
   15      C      -4.2170628626     2.0046089446     1.2012308085
   16      C      -2.8374862597    -3.4472675227    -2.1113274105
   17      C       3.8678848024     2.4651372721    -2.9226048953
   18      H       1.9189556140    -1.2201605729    -0.5510686348
   19      H       0.7719275653    -1.7265507003     0.6995347406
   20      H      -0.2141131493     1.0368423107     1.5702685934
   21      H      -0.9301191691    -0.5603368279     1.3626320762
   22      H       0.4522861389    -0.7742692491    -2.1364005197
   23      H      -1.0080230777     0.2024005928    -1.8756261398
   24      H       1.3715580592     1.8135924807     0.2441785494
   25      H       0.0972221594     2.0523781950    -0.9444408895
   26      H       1.6826882739     0.1549722781     2.2016279909
   27      H       2.9022428071     0.4669662760     0.9570234427
   28      H      -2.5865613153     0.3407397498    -0.2459993853
   29      H      -1.8281689272     1.9346536889    -0.1963662746
   30      H      -1.7106880542    -1.7743847583    -0.2232539893
   31      H      -0.4250833845    -2.6795146157    -1.0420288712
   32      H       1.4178939179     1.2362988795    -2.7465878653
   33      H       2.5206884934     0.3568559259    -1.7039525737
   34      H       3.6826736875    -1.8942803781     1.1253027601
   35      H       2.4792712991    -2.2099449530     2.3722189293
   36      H      -2.3248157112     2.1026765519     2.2415539642
   37      H      -3.0494603546     0.4956597649     2.2141949023
   38      H      -1.5025324391    -2.1840808860    -3.2411831282
   39      H      -2.7933276186    -1.3043166037    -2.4125610023
   40      H       3.4134880230     2.5198269677    -0.8111868072
   41      H       2.2786826010     3.4218471614    -1.8136211470
   42      H       3.5550775564    -0.4777369314     3.8597244830
   43      H       4.7662705838    -0.1562661827     2.6007776449
   44      H       4.7148247635    -1.7424726000     3.3991542429
   45      H      -4.7977059631     1.3035838638     0.5844742648
   46      H      -4.0711141482     2.9241860588     0.6163012281
   47      H      -4.8194592814     2.2572452920     2.0834331673
   48      H      -3.4350634814    -3.4194390667    -1.1877100483
   49      H      -2.1344512130    -4.2886972721    -2.0410851515
   50      H      -3.5221795156    -3.6395104320    -2.9485355802
   51      H       3.3466925237     2.4651380421    -3.8908849800
   52      H       4.4903402542     1.5598361893    -2.8772927451
   53      H       4.5332574543     3.3380678025    -2.8958819088
   54      O       2.8635448624    -1.8969131910    -2.2724828672
   55      H       2.7557579742    -3.6032568754    -0.2528282054
   56      C       2.1029209455    -3.8480612474    -1.0964994945
   57      C       2.1236611702    -2.9818493853    -2.2213566758
   58      C       1.2673385636    -4.9680825379    -1.0098612141
   59      H       1.2940342030    -5.5822246141    -0.1027746025
   60      C       1.2378719308    -3.3662737660    -3.2615576393
   61      H       1.1939928812    -2.7345238477    -4.1556033365
   62      C       0.3756534839    -5.3522041539    -2.0488945009
   63      C       0.4112427065    -4.4917487966    -3.1812052214
   64      O      -0.4106457444    -6.3963640273    -1.9679848999
   65      H      -0.2647150253    -4.7175545370    -4.0130961446
 ----------------------------------------------------------------
 Nuclear Repulsion Energy =        2434.05272938 hartrees
 There are       98 alpha and       98 beta electrons
 Requested basis set is def2-SVPD
 There are 362 shells and 826 basis functions

 Total QAlloc Memory Limit  96000 MB
 Mega-Array Size       188 MB
 MEM_STATIC part       192 MB
 Discretize the solute cavity surface with Lebedev spheres
	Using 194 Lebedev grid points for each H atom
	Using 194 Lebedev grid points for other atoms
	Atomic van der Waals radii will be scaled by 1.10
 Remove points where switching function is < 1.0e-08
 Keep 4315 surface tesserae and discard 8295 interior tesserae
 Molecular Surface Area = 488.635 Angst**2
 A cutoff of  1.0D-16 yielded  57566 shell pairs
 There are    298916 function pairs (    336376 Cartesian)
 Smallest overlap matrix eigenvalue = 5.61E-06

 Scale SEOQF with 1.000000e-01/1.000000e-02/1.000000e-01

 Standard Electronic Orientation quadrupole field applied
 Nucleus-field energy     =    -0.0000000297 hartrees
 Guess from superposition of atomic densities
 Warning:  Energy on first SCF cycle will be non-variational
 SAD guess density has 195.000000 electrons

 -----------------------------------------------------------------------
  General SCF calculation program by
  Eric Jon Sundstrom, Paul Horn, Yuezhi Mao, Dmitri Zuev, Alec White,
  David Stuck, Shaama M.S., Shane Yost, Joonho Lee, David Small,
  Daniel Levine, Susi Lehtola, Hugh Burton, Evgeny Epifanovsky,
  Bang C. Huynh
 -----------------------------------------------------------------------
 Exchange:     0.2220 Hartree-Fock + 1.0000 wB97X-D + LR-HF
 Correlation:  1.0000 wB97X-D
 Using SG-3 standard quadrature grid
 Dispersion:   Grimme D
 using 40 threads for integral computing
 -------------------------------------------------------
 OpenMP Integral computing Module                
 Release: version 1.0, May 2013, Q-Chem Inc. Pittsburgh 
 -------------------------------------------------------
 A restricted SCF calculation will be
 performed using DIIS
 SCF converges when DIIS error is below 1.0e-08
 ---------------------------------------
  Cycle       Energy         DIIS error
 ---------------------------------------
    1   -1073.4258006673      2.08e-02  
    2   -1066.2731131467      2.31e-03  
    3   -1066.2508409889      2.66e-03  
    4   -1066.7094042518      4.03e-04  
    5   -1066.7207851174      1.29e-04  
    6   -1066.7220353322      3.63e-05  
    7   -1066.7221303666      1.28e-05  
    8   -1066.7221438912      2.24e-06  
    9   -1066.7221444589      9.86e-07  
   10   -1066.7221445492      2.76e-07  
   11   -1066.7221447999      1.83e-07  
   12   -1066.7221447075      4.48e-08  
   13   -1066.7221447251      1.66e-08  
   14   -1066.7221448097      7.90e-09  Convergence criterion met
 ---------------------------------------
 SCF time:   CPU 20902.82s  wall 1004.00s 

************** Final PCM Free Energy Summary **************
 G_electrostatic  =      -0.16475962 hartree =    -103.38821899 kcal/mol
 G_cavitation     =       0.00000000 hartree =       0.00000000 kcal/mol
 G_dispersion     =       0.00000000 hartree =       0.00000000 kcal/mol
 G_repulsion      =       0.00000000 hartree =       0.00000000 kcal/mol
 --------------------------------------------------
 Non-electrostatic Free Energy =       0.00000000 hartree =       0.00000000 kcal/mol
 Total                         =      -0.16475962 hartree =    -103.38821899 kcal/mol
 --------------------------------------------------
 SCF Energy (H0 + V/2)                       =   -1066.72214481 
 Solute Internal Energy (H0)                 =   -1066.55738519 
 Total Free Energy (H0 + V/2 + non-elec)     =   -1066.72214481 hartree
                                             = -669378.24879354 kcal/mol
***********************************************************

 SCF   energy in the final basis set =    -1066.7221448097
 Total energy in the final basis set =    -1066.7221448097
 
 --------------------------------------------------------------
 
                    Orbital Energies (a.u.)
 --------------------------------------------------------------
 
 Alpha MOs
 -- Occupied --
-19.1530 -19.1499 -14.5731 -10.3538 -10.3505 -10.3433 -10.3340 -10.3094
-10.3033 -10.3011 -10.2969 -10.2966 -10.2964 -10.2941 -10.2922 -10.2915
-10.2893 -10.2887 -10.2862 -10.2859 -10.2758 -10.2499 -10.2499 -10.2490
-10.2487  -1.1107  -1.0085  -1.0032  -0.9139  -0.9048  -0.9042  -0.8882
 -0.8681  -0.8411  -0.8385  -0.8337  -0.7962  -0.7872  -0.7532  -0.7522
 -0.7328  -0.7313  -0.6851  -0.6805  -0.6790  -0.6731  -0.6582  -0.6496
 -0.6222  -0.6138  -0.5996  -0.5942  -0.5825  -0.5685  -0.5558  -0.5530
 -0.5270  -0.5241  -0.5147  -0.5123  -0.5113  -0.5080  -0.5070  -0.5042
 -0.4995  -0.4957  -0.4894  -0.4865  -0.4772  -0.4662  -0.4641  -0.4571
 -0.4533  -0.4476  -0.4438  -0.4408  -0.4379  -0.4348  -0.4295  -0.4271
 -0.4269  -0.4232  -0.4213  -0.4153  -0.4145  -0.4140  -0.4124  -0.4079
 -0.4054  -0.4003  -0.3967  -0.3926  -0.3842  -0.3035  -0.2916  -0.2758
 -0.2726  -0.1899
 -- Virtual --
  0.0820   0.0868   0.0883   0.0915   0.0958   0.1073   0.1081   0.1094
  0.1134   0.1155   0.1239   0.1271   0.1303   0.1350   0.1375   0.1382
  0.1417   0.1484   0.1513   0.1562   0.1581   0.1631   0.1649   0.1712
  0.1733   0.1766   0.1805   0.1834   0.1845   0.1878   0.1906   0.1932
  0.1948   0.1976   0.1998   0.1999   0.2039   0.2065   0.2096   0.2112
  0.2130   0.2159   0.2207   0.2216   0.2231   0.2251   0.2269   0.2310
  0.2334   0.2393   0.2403   0.2410   0.2447   0.2472   0.2496   0.2532
  0.2559   0.2583   0.2625   0.2630   0.2662   0.2711   0.2718   0.2743
  0.2761   0.2782   0.2817   0.2842   0.2884   0.2888   0.2925   0.2949
  0.2981   0.3018   0.3042   0.3066   0.3082   0.3132   0.3153   0.3176
  0.3217   0.3223   0.3250   0.3296   0.3301   0.3358   0.3382   0.3424
  0.3449   0.3456   0.3477   0.3548   0.3580   0.3589   0.3634   0.3651
  0.3667   0.3673   0.3705   0.3743   0.3752   0.3782   0.3801   0.3830
  0.3856   0.3896   0.3917   0.3934   0.3960   0.4007   0.4031   0.4046
  0.4061   0.4083   0.4120   0.4136   0.4158   0.4184   0.4192   0.4206
  0.4229   0.4245   0.4262   0.4272   0.4298   0.4317   0.4348   0.4354
  0.4358   0.4398   0.4404   0.4426   0.4452   0.4484   0.4486   0.4503
  0.4526   0.4535   0.4559   0.4580   0.4591   0.4651   0.4670   0.4688
  0.4700   0.4728   0.4754   0.4756   0.4788   0.4801   0.4821   0.4871
  0.4886   0.4891   0.4942   0.4955   0.4987   0.4997   0.5006   0.5017
  0.5064   0.5071   0.5089   0.5116   0.5145   0.5165   0.5197   0.5232
  0.5241   0.5252   0.5282   0.5293   0.5307   0.5338   0.5354   0.5393
  0.5409   0.5418   0.5435   0.5483   0.5505   0.5549   0.5565   0.5573
  0.5610   0.5620   0.5631   0.5660   0.5679   0.5696   0.5719   0.5759
  0.5771   0.5808   0.5811   0.5844   0.5856   0.5899   0.5923   0.5934
  0.5953   0.6002   0.6014   0.6026   0.6049   0.6105   0.6120   0.6148
  0.6172   0.6197   0.6243   0.6266   0.6279   0.6331   0.6365   0.6377
  0.6398   0.6403   0.6437   0.6469   0.6495   0.6527   0.6544   0.6552
  0.6614   0.6624   0.6632   0.6657   0.6682   0.6723   0.6778   0.6805
  0.6821   0.6839   0.6856   0.6902   0.6922   0.6948   0.6973   0.7016
  0.7054   0.7073   0.7082   0.7107   0.7137   0.7182   0.7185   0.7244
  0.7247   0.7274   0.7326   0.7356   0.7364   0.7412   0.7430   0.7493
  0.7504   0.7522   0.7553   0.7591   0.7617   0.7633   0.7675   0.7696
  0.7711   0.7759   0.7776   0.7811   0.7831   0.7858   0.7908   0.7965
  0.7984   0.8024   0.8042   0.8056   0.8140   0.8152   0.8163   0.8204
  0.8216   0.8244   0.8273   0.8298   0.8345   0.8406   0.8415   0.8429
  0.8479   0.8508   0.8559   0.8577   0.8616   0.8640   0.8659   0.8690
  0.8771   0.8791   0.8833   0.8875   0.8892   0.8926   0.8950   0.8971
  0.9033   0.9095   0.9118   0.9178   0.9218   0.9245   0.9274   0.9307
  0.9354   0.9426   0.9458   0.9482   0.9502   0.9532   0.9611   0.9631
  0.9679   0.9701   0.9764   0.9777   0.9849   0.9889   0.9905   0.9946
  0.9988   1.0073   1.0162   1.0177   1.0228   1.0262   1.0335   1.0374
  1.0471   1.0513   1.0533   1.0589   1.0614   1.0652   1.0683   1.0703
  1.0784   1.0807   1.0911   1.0941   1.0982   1.1011   1.1062   1.1112
  1.1132   1.1165   1.1177   1.1221   1.1226   1.1286   1.1354   1.1392
  1.1432   1.1445   1.1450   1.1490   1.1536   1.1642   1.1660   1.1704
  1.1758   1.1835   1.1887   1.1930   1.1946   1.2001   1.2034   1.2081
  1.2117   1.2140   1.2272   1.2329   1.2367   1.2418   1.2485   1.2550
  1.2557   1.2597   1.2613   1.2663   1.2783   1.2833   1.2864   1.2958
  1.2992   1.3049   1.3084   1.3180   1.3236   1.3270   1.3353   1.3378
  1.3408   1.3476   1.3584   1.3596   1.3683   1.3753   1.3831   1.3850
  1.3867   1.3963   1.3973   1.4055   1.4086   1.4153   1.4206   1.4208
  1.4220   1.4300   1.4350   1.4448   1.4461   1.4488   1.4631   1.4653
  1.4706   1.4736   1.4782   1.4846   1.4953   1.4972   1.5097   1.5156
  1.5245   1.5274   1.5334   1.5402   1.5405   1.5451   1.5491   1.5506
  1.5633   1.5649   1.5694   1.5751   1.5834   1.5859   1.5989   1.6022
  1.6140   1.6167   1.6277   1.6452   1.6517   1.6548   1.6603   1.6689
  1.6806   1.6856   1.6916   1.7014   1.7048   1.7171   1.7211   1.7295
  1.7328   1.7414   1.7507   1.7612   1.7631   1.7718   1.7741   1.7802
  1.7856   1.7896   1.7981   1.8034   1.8115   1.8147   1.8198   1.8236
  1.8253   1.8285   1.8358   1.8492   1.8539   1.8614   1.8681   1.8700
  1.8771   1.8890   1.8927   1.8985   1.9048   1.9083   1.9123   1.9184
  1.9217   1.9288   1.9327   1.9352   1.9412   1.9432   1.9492   1.9539
  1.9644   1.9717   1.9749   1.9790   1.9834   1.9884   1.9933   1.9998
  2.0057   2.0117   2.0139   2.0197   2.0251   2.0286   2.0315   2.0363
  2.0374   2.0452   2.0508   2.0559   2.0604   2.0631   2.0728   2.0749
  2.0807   2.0864   2.0881   2.0966   2.1008   2.1027   2.1086   2.1113
  2.1206   2.1214   2.1237   2.1290   2.1338   2.1375   2.1414   2.1460
  2.1534   2.1549   2.1632   2.1652   2.1712   2.1765   2.1820   2.1875
  2.1920   2.1971   2.2027   2.2049   2.2122   2.2162   2.2232   2.2243
  2.2285   2.2397   2.2417   2.2500   2.2574   2.2579   2.2703   2.2744
  2.2812   2.2897   2.3004   2.3046   2.3067   2.3207   2.3244   2.3249
  2.3286   2.3324   2.3438   2.3529   2.3576   2.3608   2.3675   2.3753
  2.3786   2.3845   2.3918   2.3966   2.4054   2.4073   2.4139   2.4197
  2.4214   2.4283   2.4318   2.4436   2.4454   2.4526   2.4607   2.4733
  2.4747   2.4840   2.4891   2.4947   2.4990   2.5062   2.5262   2.5271
  2.5432   2.5505   2.5545   2.5588   2.5649   2.5702   2.5726   2.5886
  2.5986   2.6042   2.6187   2.6227   2.6303   2.6331   2.6403   2.6437
  2.6467   2.6543   2.6604   2.6618   2.6697   2.6744   2.6806   2.6917
  2.6951   2.7072   2.7135   2.7195   2.7307   2.7346   2.7486   2.7519
  2.7562   2.7587   2.7637   2.7696   2.7717   2.7803   2.7842   2.7923
  2.8007   2.8040   2.8063   2.8135   2.8258   2.8292   2.8374   2.8491
  2.8638   2.8678   2.8811   2.8855   2.9142   2.9203   2.9349   2.9391
  2.9418   2.9556   2.9598   2.9725   2.9814   2.9954   3.0011   3.0146
  3.0195   3.0250   3.0321   3.0491   3.0930   3.0956   3.1105   3.1224
  3.1336   3.1429   3.1499   3.1561   3.1585   3.1644   3.1713   3.1728
  3.1824   3.1897   3.1992   3.2040   3.2090   3.2206   3.2335   3.2372
  3.2518   3.2618   3.2706   3.2738   3.2803   3.2854   3.2880   3.2994
  3.3026   3.3073   3.3124   3.3303   3.3406   3.3549   3.3575   3.3635
  3.3705   3.3738   3.3841   3.4022   3.4216   3.4478   3.4799   3.5148
  3.5353   3.5431   3.5524   3.6033   3.6206   3.6583   3.9225   4.0456
 --------------------------------------------------------------
 
          Ground-State Mulliken Net Atomic Charges

     Atom                 Charge (a.u.)
  ----------------------------------------
      1 N                    -2.351389
      2 C                     0.348990
      3 C                     0.406611
      4 C                     0.277922
      5 C                     0.750284
      6 C                     0.567369
      7 C                     0.311347
      8 C                     0.210310
      9 C                     0.301105
     10 C                     0.048807
     11 C                    -0.078660
     12 C                    -0.056696
     13 C                     0.005552
     14 C                     0.775410
     15 C                     0.597107
     16 C                     1.352914
     17 C                     0.724626
     18 H                    -1.032406
     19 H                    -0.128392
     20 H                    -0.292661
     21 H                     0.009830
     22 H                    -0.144535
     23 H                    -0.319063
     24 H                    -0.194803
     25 H                    -0.486227
     26 H                    -0.055723
     27 H                    -0.195230
     28 H                    -0.007842
     29 H                    -0.011234
     30 H                    -0.020719
     31 H                    -0.066226
     32 H                     0.144949
     33 H                    -0.378438
     34 H                     0.029480
     35 H                    -0.028287
     36 H                    -0.029384
     37 H                     0.044945
     38 H                     0.055423
     39 H                    -0.067820
     40 H                    -0.018527
     41 H                    -0.094117
     42 H                     0.073314
     43 H                     0.099126
     44 H                    -0.013475
     45 H                     0.072241
     46 H                     0.087900
     47 H                     0.003769
     48 H                     0.161498
     49 H                    -0.601851
     50 H                     0.078565
     51 H                     0.110606
     52 H                     0.037750
     53 H                    -0.011313
     54 O                    -0.826497
     55 H                    -0.381015
     56 C                     0.205545
     57 C                     0.006477
     58 C                    -0.193721
     59 H                     0.066281
     60 C                    -0.080323
     61 H                    -0.076591
     62 C                     0.300207
     63 C                    -0.071678
     64 O                    -0.890662
     65 H                    -0.060759
  ----------------------------------------
  Sum of atomic charges =    -1.000000

  Building new vdw surfaces
         Merz-Kollman RESP Net Atomic Charges

     Atom                 Charge (a.u.)
  ----------------------------------------
      1 N                     0.478061
      2 C                    -0.219010
      3 C                    -0.323700
      4 C                    -0.351111
      5 C                    -0.351111
      6 C                    -0.304110
      7 C                    -0.066444
      8 C                    -0.079415
      9 C                     0.025101
     10 C                     0.309799
     11 C                     0.149138
     12 C                     0.122939
     13 C                     0.146413
     14 C                    -0.622371
     15 C                    -0.454926
     16 C                    -0.454926
     17 C                    -0.454926
     18 H                     0.309646
     19 H                     0.104335
     20 H                     0.133867
     21 H                     0.133867
     22 H                     0.133867
     23 H                     0.133867
     24 H                     0.136372
     25 H                     0.136372
     26 H                     0.107700
     27 H                     0.107700
     28 H                     0.073590
     29 H                     0.073590
     30 H                     0.084853
     31 H                     0.084853
     32 H                     0.053419
     33 H                     0.053419
     34 H                     0.000769
     35 H                     0.000769
     36 H                     0.021602
     37 H                     0.021602
     38 H                     0.021602
     39 H                     0.021602
     40 H                     0.007824
     41 H                     0.007824
     42 H                     0.149741
     43 H                     0.149741
     44 H                     0.149741
     45 H                     0.113109
     46 H                     0.113109
     47 H                     0.113109
     48 H                     0.113128
     49 H                     0.113128
     50 H                     0.113128
     51 H                     0.111158
     52 H                     0.111158
     53 H                     0.111158
     54 O                    -0.977312
     55 H                     0.094931
     56 C                    -0.243561
     57 C                     0.351420
     58 C                    -0.518222
     59 H                     0.163790
     60 C                    -0.266188
     61 H                     0.151236
     62 C                     0.658798
     63 C                    -0.575332
     64 O                    -1.025829
     65 H                     0.210549
  ----------------------------------------
  Sum of atomic charges =    -1.000000

  Related Dipole Moment =    43.6151 (X -9.6425 Y 38.4449 Z 18.2014)

 -----------------------------------------------------------------
                    Cartesian Multipole Moments
 -----------------------------------------------------------------
    Charge (ESU x 10^10)
                -4.8032
    Dipole Moment (Debye)
         X      -9.6371      Y      38.6020      Z      18.3242
       Tot      43.8037
    Quadrupole Moments (Debye-Ang)
        XX    -192.7006     XY      16.8669     YY    -362.8714
        XZ      25.4665     YZ     -79.3033     ZZ    -199.6745
    Octopole Moments (Debye-Ang^2)
       XXX    -376.4604    XXY     303.4740    XYY     -94.0014
       YYY    1872.7177    XXZ     229.3297    XYZ     -54.1934
       YYZ     550.1460    XZZ    -162.2506    YZZ     381.2360
       ZZZ     501.6827
    Hexadecapole Moments (Debye-Ang^3)
      XXXX   -5943.7009   XXXY     548.4230   XXYY   -2586.2240
      XYYY     119.2514   YYYY  -16051.8385   XXXZ     548.4043
      XXYZ    -657.5474   XYYZ     154.1153   YYYZ   -3821.6419
      XXZZ   -1817.9739   XYZZ     236.3569   YYZZ   -2924.0025
      XZZZ     489.1367   YZZZ   -1719.0996   ZZZZ   -4230.7098
 -----------------------------------------------------------------
 Calculating analytic gradient of the SCF energy
 Gradient of SCF Energy
            1           2           3           4           5           6
    1   0.0044232  -0.0104467   0.0040107  -0.0042159   0.0053286   0.0092252
    2  -0.0030451  -0.0062820  -0.0038904  -0.0314000   0.0097851   0.0178398
    3  -0.0130761   0.0051945   0.0053059  -0.0217170  -0.0137228   0.0081666
            7           8           9          10          11          12
    1   0.0043232   0.0338733  -0.0082404   0.0030620  -0.0042064  -0.0033835
    2  -0.0068741  -0.0208886  -0.0081104  -0.0021236  -0.0016669  -0.0118988
    3  -0.0108422   0.0094527   0.0187268  -0.0036338   0.0031266  -0.0163495
           13          14          15          16          17          18
    1   0.0114005  -0.0108742   0.0037742   0.0531476  -0.0117104   0.0054026
    2  -0.0000155   0.0060793  -0.0031656   0.0243331  -0.0123144  -0.0155118
    3  -0.0061588  -0.0139515  -0.0025652   0.0169565   0.0086856  -0.0447210
           19          20          21          22          23          24
    1   0.0031278  -0.0014369   0.0024484   0.0102039  -0.0028355   0.0034750
    2   0.0195246  -0.0082334   0.0103650   0.0109537  -0.0014631  -0.0124610
    3  -0.0049183  -0.0029902  -0.0027517   0.0156691   0.0135187  -0.0084740
           25          26          27          28          29          30
    1   0.0070495   0.0118907  -0.0115500   0.0026341  -0.0009716   0.0152101
    2  -0.0031986  -0.0033636  -0.0087754   0.0103649  -0.0060964   0.0075457
    3   0.0056104  -0.0103639   0.0242226   0.0034963   0.0000923  -0.0169647
           31          32          33          34          35          36
    1  -0.0686293   0.0209290  -0.0393861  -0.0212105   0.0225824  -0.0029557
    2   0.0343470   0.0057064  -0.0018038  -0.0076583   0.0152699  -0.0026526
    3   0.0109970   0.0174154  -0.0030933   0.0242483  -0.0057289  -0.0017057
           37          38          39          40          41          42
    1  -0.0003748  -0.0331709   0.0108848  -0.0063386   0.0093223   0.0079510
    2   0.0069637  -0.0040258  -0.0284055   0.0064419  -0.0103038  -0.0063309
    3  -0.0022271   0.0293304  -0.0033692  -0.0157575  -0.0001967  -0.0107229
           43          44          45          46          47          48
    1  -0.0103849  -0.0096514   0.0037649  -0.0011311   0.0036157   0.0169988
    2  -0.0114128   0.0180792   0.0059498  -0.0051821  -0.0016513   0.0011910
    3   0.0105820  -0.0082377   0.0041012   0.0032227  -0.0061269  -0.0233977
           49          50          51          52          53          54
    1  -0.0466835   0.0241860   0.0114488  -0.0148367  -0.0113930   0.0112583
    2   0.0272677   0.0056271  -0.0002357   0.0241187  -0.0177850  -0.0280381
    3  -0.0055858   0.0243478   0.0174991  -0.0053073  -0.0009172  -0.0121649
           55          56          57          58          59          60
    1  -0.0625446  -0.0200756  -0.0125927  -0.0125290  -0.0360141   0.0162337
    2   0.0263583  -0.0323516  -0.0617472   0.0338989   0.0633553  -0.0242073
    3  -0.0239482  -0.0940273  -0.0407162   0.0037907  -0.0951735   0.0551306
           61          62          63          64          65
    1  -0.0293542   0.0582958   0.0367952   0.0263468   0.0345041
    2  -0.0479012  -0.0034056   0.0221563   0.0311121   0.0212429
    3   0.0988980  -0.0337935   0.0472443  -0.0072957   0.1076617
 Max gradient component =       1.077E-01
 RMS gradient           =       2.436E-02
 Computing fast CPCM-SWIG gradient
 Updating gradient with PCM contributions...
 -- total gradient after adding PCM contribution --
---------------------------------------------------
  Atom         X              Y              Z     
---------------------------------------------------
   1       0.000007       0.000042       0.000042
   2      -0.000037       0.000444      -0.000176
   3       0.000059      -0.000015       0.000003
   4      -0.000018       0.000007       0.000013
   5      -0.000016       0.000001      -0.000032
   6       0.000006       0.000010       0.000007
   7       0.000003       0.000011      -0.000024
   8       0.000010       0.000033       0.000018
   9      -0.000000      -0.000009       0.000025
  10      -0.000024      -0.000006      -0.000003
  11      -0.000013       0.000011       0.000002
  12      -0.000031      -0.000014      -0.000019
  13       0.000016       0.000009      -0.000004
  14       0.000003       0.000003       0.000012
  15       0.000002      -0.000006      -0.000010
  16       0.000029       0.000008       0.000017
  17      -0.000012      -0.000005       0.000004
  18      -0.000002      -0.000720       0.000207
  19       0.000040      -0.000031      -0.000029
  20      -0.000017      -0.000005       0.000015
  21      -0.000001      -0.000006      -0.000015
  22      -0.000003      -0.000038       0.000016
  23       0.000020       0.000006      -0.000020
  24      -0.000009       0.000000       0.000007
  25      -0.000004      -0.000007      -0.000015
  26      -0.000008       0.000022      -0.000006
  27       0.000005      -0.000003       0.000005
  28      -0.000011      -0.000015       0.000023
  29      -0.000005      -0.000010      -0.000016
  30      -0.000003      -0.000006      -0.000009
  31      -0.000012      -0.000006      -0.000014
  32       0.000002      -0.000002      -0.000000
  33      -0.000004       0.000007      -0.000006
  34      -0.000002       0.000003       0.000002
  35      -0.000001       0.000004       0.000008
  36      -0.000002      -0.000003      -0.000003
  37      -0.000004      -0.000001      -0.000002
  38      -0.000006       0.000015      -0.000003
  39      -0.000002      -0.000002       0.000011
  40      -0.000003       0.000004       0.000004
  41      -0.000003       0.000002       0.000003
  42      -0.000006       0.000007      -0.000000
  43      -0.000002       0.000000       0.000003
  44      -0.000007       0.000002       0.000007
  45      -0.000002      -0.000002      -0.000007
  46      -0.000004       0.000001      -0.000001
  47      -0.000005      -0.000002      -0.000006
  48      -0.000012       0.000003      -0.000013
  49      -0.000007      -0.000003      -0.000008
  50       0.000010      -0.000010      -0.000014
  51       0.000002       0.000007       0.000004
  52       0.000003       0.000004       0.000005
  53       0.000004       0.000002       0.000005
  54      -0.000000       0.000266      -0.000036
  55      -0.000022       0.000012       0.000023
  56       0.000055       0.000012      -0.000032
  57       0.000010       0.000006       0.000047
  58      -0.000032      -0.000056      -0.000030
  59       0.000007       0.000026       0.000018
  60       0.000033      -0.000054      -0.000034
  61      -0.000028       0.000016       0.000013
  62       0.000015      -0.000019       0.000041
  63       0.000006       0.000049      -0.000014
  64       0.000029       0.000007      -0.000011
  65       0.000004      -0.000005       0.000000
---------------------------------------------------
 Number of fixed atoms: 0
 Gradient time:  CPU 4416.18 s  wall 226.90 s
 Geometry Optimization Parameters
   NAtoms,    NIC,     NZ,  NCons,   NDum,   NFix, NCnnct, MaxDiis
       65     491       0       0       0       0       0       0

 Cartesian Hessian read from HESS file


** GEOMETRY OPTIMIZATION IN DELOCALIZED INTERNAL COORDINATES **
   Searching for a Minimum

   Optimization Cycle:   1

                       Coordinates (Angstroms)
     ATOM                X               Y               Z
      1  N         0.2885187120    0.0852962035   -0.2308724777
      2  C         1.3303005244   -0.8701363968    0.3088377251
      3  C        -0.7203060971    0.3845508708    0.8516090790
      4  C        -0.3579765372   -0.5600084148   -1.4320809110
      5  C         0.9170279339    1.3879524324   -0.6556668307
      6  C         2.2481845466   -0.3083412900    1.3806060063
      7  C        -2.0196517970    1.0288652917    0.3952511302
      8  C        -1.1276588675   -1.8428685055   -1.1521577188
      9  C         1.9377565971    1.2854604914   -1.7792835103
     10  C         3.1243531945   -1.4249523385    1.9488567900
     11  C        -2.8791023027    1.3966144573    1.6045881227
     12  C        -2.0819126908   -2.1395274349   -2.3069928283
     13  C         2.8713759234    2.4945499952   -1.7697544096
     14  C         4.0946422565   -0.9237031186    3.0117427941
     15  C        -4.2170628626    2.0046089446    1.2012308085
     16  C        -2.8374862597   -3.4472675227   -2.1113274105
     17  C         3.8678848024    2.4651372721   -2.9226048953
     18  H         1.9189556140   -1.2201605729   -0.5510686348
     19  H         0.7719275653   -1.7265507003    0.6995347406
     20  H        -0.2141131493    1.0368423107    1.5702685934
     21  H        -0.9301191691   -0.5603368279    1.3626320762
     22  H         0.4522861389   -0.7742692491   -2.1364005197
     23  H        -1.0080230777    0.2024005928   -1.8756261398
     24  H         1.3715580592    1.8135924807    0.2441785494
     25  H         0.0972221594    2.0523781950   -0.9444408895
     26  H         1.6826882739    0.1549722781    2.2016279909
     27  H         2.9022428071    0.4669662760    0.9570234427
     28  H        -2.5865613153    0.3407397498   -0.2459993853
     29  H        -1.8281689272    1.9346536889   -0.1963662746
     30  H        -1.7106880542   -1.7743847583   -0.2232539893
     31  H        -0.4250833845   -2.6795146157   -1.0420288712
     32  H         1.4178939179    1.2362988795   -2.7465878653
     33  H         2.5206884934    0.3568559259   -1.7039525737
     34  H         3.6826736875   -1.8942803781    1.1253027601
     35  H         2.4792712991   -2.2099449530    2.3722189293
     36  H        -2.3248157112    2.1026765519    2.2415539642
     37  H        -3.0494603546    0.4956597649    2.2141949023
     38  H        -1.5025324391   -2.1840808860   -3.2411831282
     39  H        -2.7933276186   -1.3043166037   -2.4125610023
     40  H         3.4134880230    2.5198269677   -0.8111868072
     41  H         2.2786826010    3.4218471614   -1.8136211470
     42  H         3.5550775564   -0.4777369314    3.8597244830
     43  H         4.7662705838   -0.1562661827    2.6007776449
     44  H         4.7148247635   -1.7424726000    3.3991542429
     45  H        -4.7977059631    1.3035838638    0.5844742648
     46  H        -4.0711141482    2.9241860588    0.6163012281
     47  H        -4.8194592814    2.2572452920    2.0834331673
     48  H        -3.4350634814   -3.4194390667   -1.1877100483
     49  H        -2.1344512130   -4.2886972721   -2.0410851515
     50  H        -3.5221795156   -3.6395104320   -2.9485355802
     51  H         3.3466925237    2.4651380421   -3.8908849800
     52  H         4.4903402542    1.5598361893   -2.8772927451
     53  H         4.5332574543    3.3380678025   -2.8958819088
     54  O         2.8635448624   -1.8969131910   -2.2724828672
     55  H         2.7557579742   -3.6032568754   -0.2528282054
     56  C         2.1029209455   -3.8480612474   -1.0964994945
     57  C         2.1236611702   -2.9818493853   -2.2213566758
     58  C         1.2673385636   -4.9680825379   -1.0098612141
     59  H         1.2940342030   -5.5822246141   -0.1027746025
     60  C         1.2378719308   -3.3662737660   -3.2615576393
     61  H         1.1939928812   -2.7345238477   -4.1556033365
     62  C         0.3756534839   -5.3522041539   -2.0488945009
     63  C         0.4112427065   -4.4917487966   -3.1812052214
     64  O        -0.4106457444   -6.3963640273   -1.9679848999
     65  H        -0.2647150253   -4.7175545370   -4.0130961446
   Point Group: c1    Number of degrees of freedom:   189


   Energy is  -1066.722144810


 Attempting to generate delocalized internal coordinates

 Transforming Cartesian Hessian to Internal Coordinates
 Hessian Transformation does not Include Derivative of B-matrix

189 Hessian modes will be used to form the next step
  Hessian Eigenvalues:
    -0.813923   -0.085184   -0.046493   -0.004803    0.001390    0.001556
     0.001910    0.002256    0.002483    0.002558    0.002588    0.002612
     0.002702    0.003413    0.003705    0.004691    0.004922    0.005502
     0.007371    0.009096    0.014973    0.017116    0.017371    0.018243
     0.018686    0.020949    0.022581    0.025379    0.026615    0.029108
     0.030714    0.032020    0.033387    0.034324    0.036711    0.037052
     0.037651    0.037896    0.038118    0.038262    0.038440    0.038556
     0.038640    0.038738    0.038894    0.039043    0.039308    0.039642
     0.039965    0.040933    0.041504    0.041733    0.042948    0.043447
     0.044441    0.044511    0.044606    0.044640    0.044961    0.045342
     0.045427    0.045443    0.050826    0.057344    0.061533    0.064055
     0.069828    0.070553    0.071261    0.072482    0.072907    0.073727
     0.074371    0.075797    0.078596    0.079435    0.083210    0.094790
     0.098804    0.101121    0.102388    0.103435    0.105226    0.106699
     0.108881    0.116020    0.118084    0.119750    0.121229    0.121522
     0.121564    0.122498    0.123658    0.127286    0.128642    0.131109
     0.136090    0.136268    0.137274    0.140628    0.141203    0.144255
     0.148560    0.150984    0.157665    0.157957    0.159675    0.160726
     0.170203    0.176014    0.178418    0.181761    0.189923    0.197082
     0.199197    0.208274    0.219370    0.219950    0.223259    0.227944
     0.231539    0.242789    0.261227    0.263937    0.274025    0.285772
     0.289725    0.292143    0.299753    0.301117    0.302404    0.305314
     0.311409    0.313369    0.313635    0.316252    0.317240    0.321860
     0.328768    0.330104    0.332084    0.332229    0.332480    0.333034
     0.335472    0.335848    0.336236    0.336407    0.337767    0.337946
     0.338364    0.338513    0.338842    0.338989    0.339143    0.339351
     0.340729    0.340959    0.341115    0.341251    0.341749    0.342390
     0.343001    0.343395    0.344509    0.345425    0.345787    0.346266
     0.346330    0.346924    0.347710    0.348374    0.348692    0.348956
     0.349820    0.351225    0.351303    0.353828    0.358828    0.378248
     0.380511    0.384139    0.399873    0.412280    0.422753    0.468071
     0.497763    0.512276    0.692518
**WARNING** Hessian does not have the desired local structure
**WARNING** Hessian does not have the desired local structure

 Minimum search - taking simple RFO step
 Searching for Lamda that Minimizes Along All modes
 Value Taken    Lamda =  -0.81392297
 Calculated Step too Large.  Step scaled by  0.000066
 Step Taken.  Stepsize is  0.300000

                             Maximum     Tolerance    Cnvgd?
         Gradient           0.000357      0.000300      NO
         Displacement       0.157863      0.001200      NO
         Energy change     *********      0.000001      NO


 New Cartesian Coordinates Obtained by Inverse Iteration

 Displacement from previous Coordinates is:  5.611151
 ----------------------------------------------------------------
             Standard Nuclear Orientation (Angstroms)
    I     Atom           X                Y                Z
 ----------------------------------------------------------------
    1      N       0.3385758988     0.0167516479    -0.3072936794
    2      C       1.3993564312    -0.9258746331     0.2038415410
    3      C      -0.6881326417     0.2304139831     0.7719823922
    4      C      -0.3024335516    -0.5851854378    -1.5354216408
    5      C       0.9472101308     1.3413939062    -0.6771051124
    6      C       2.3034872292    -0.4160387894     1.3060149834
    7      C      -1.9996249749     0.8445725618     0.3191369094
    8      C      -1.0655258575    -1.8824179667    -1.2993084353
    9      C       1.9714759990     1.2729602200    -1.8003951149
   10      C       3.1775943294    -1.5704184558     1.7971066647
   11      C      -2.8949530529     1.1186560048     1.5236781116
   12      C      -2.0312507080    -2.1294941510    -2.4579216190
   13      C       2.9044541284     2.4800879699    -1.7628457710
   14      C       4.1484762495    -1.1502632684     2.8912470605
   15      C      -4.2468214476     1.6875236543     1.1143184041
   16      C      -2.7988893127    -3.4380027069    -2.3144272582
   17      C       3.8993118296     2.4723595994    -2.9174573641
   18      H       2.0065967502    -1.2173863666    -0.6563340224
   19      H       0.8515105879    -1.8086541251     0.5475090877
   20      H      -0.2160259782     0.8634250617     1.5306342563
   21      H      -0.8734756388    -0.7444861747     1.2337987376
   22      H       0.5050051704    -0.7591380259    -2.2530611191
   23      H      -0.9642347947     0.1873441281    -1.9424811111
   24      H       1.3930864356     1.7428901293     0.2383423123
   25      H       0.1227197833     2.0084139487    -0.9472111928
   26      H       1.7341216203    -0.0057016931     2.1525037627
   27      H       2.9542818144     0.3880815731     0.9342483434
   28      H      -2.5270896658     0.1648347724    -0.3632856524
   29      H      -1.8334200247     1.7831538244    -0.2276346717
   30      H      -1.6425768166    -1.8494161101    -0.3651355380
   31      H      -0.3648068297    -2.7214124561    -1.2243451354
   32      H       1.4528841769     1.2471639564    -2.7693148060
   33      H       2.5563056651     0.3439280280    -1.7469780156
   34      H       3.7350461127    -1.9822080938     0.9433227794
   35      H       2.5298571283    -2.3811584642     2.1644300065
   36      H      -2.3842479100     1.8158369819     2.2053213371
   37      H      -3.0406947251     0.1841683231     2.0876416191
   38      H      -1.4585319886    -2.1369028891    -3.3967239200
   39      H      -2.7392880062    -1.2870293971    -2.5222478637
   40      H       3.4472503245     2.4838148637    -0.8043321918
   41      H       2.3130753015     3.4089958798    -1.7856266792
   42      H       3.6106088836    -0.7634654721     3.7687889177
   43      H       4.8232228708    -0.3583691351     2.5356663294
   44      H       4.7651524422    -1.9971294271     3.2192125021
   45      H      -4.7819959438     0.9912756516     0.4525089054
   46      H      -4.1268164520     2.6379687224     0.5745717874
   47      H      -4.8802232393     1.8744217797     1.9910849618
   48      H      -3.3910692675    -3.4424583672    -1.3866621881
   49      H      -2.1096764205    -4.2911033222    -2.2841403651
   50      H      -3.4907088122    -3.5855084567    -3.1553109226
   51      H       3.3767878747     2.4935571098    -3.8848244230
   52      H       4.5195603083     1.5646986399    -2.8917092818
   53      H       4.5669503212     3.3428382685    -2.8738373949
   54      O       2.9804554653    -1.8152828715    -2.3816551361
   55      H       2.9013792331    -3.1511341900    -0.1573557713
   56      C       2.1181438070    -3.4136764492    -0.8731826311
   57      C       2.1161644757    -2.7506068522    -2.1238855830
   58      C       1.1444287620    -4.3315253721    -0.5053733340
   59      H       1.1871277442    -4.7881805515     0.4891232515
   60      C       1.0660615407    -3.1204000673    -2.9943121106
   61      H       1.0030225115    -2.6259175147    -3.9696473252
   62      C       0.0793058015    -4.6939534699    -1.3640387236
   63      C       0.0957070592    -4.0522794537    -2.6314819619
   64      O      -0.8443309282    -5.5315480328    -1.0079580049
   65      H      -0.7161972093    -4.2788229801    -3.3292018931
 ----------------------------------------------------------------
 Nuclear Repulsion Energy =        2516.69582222 hartrees
 There are       98 alpha and       98 beta electrons
 Discretize the solute cavity surface with Lebedev spheres
	Using 194 Lebedev grid points for each H atom
	Using 194 Lebedev grid points for other atoms
	Atomic van der Waals radii will be scaled by 1.10
 Remove points where switching function is < 1.0e-08
 Keep 4114 surface tesserae and discard 8496 interior tesserae
 Molecular Surface Area = 466.857 Angst**2
 Applying Cartesian multipole field
    Component          Value
    ---------          -----
     (2,0,0)        1.00000E-11
     (0,2,0)        2.00000E-12
     (0,0,2)       -3.00000E-11
 Nucleus-field energy     =    -0.0000000226 hartrees
 Requested basis set is def2-SVPD
 There are 362 shells and 826 basis functions
 A cutoff of  1.0D-16 yielded  58412 shell pairs
 There are    303760 function pairs (    341879 Cartesian)
 Smallest overlap matrix eigenvalue = 4.61E-06
 Guess from superposition of atomic densities
 Warning:  Energy on first SCF cycle will be non-variational
 SAD guess density has 195.000000 electrons

 -----------------------------------------------------------------------
  General SCF calculation program by
  Eric Jon Sundstrom, Paul Horn, Yuezhi Mao, Dmitri Zuev, Alec White,
  David Stuck, Shaama M.S., Shane Yost, Joonho Lee, David Small,
  Daniel Levine, Susi Lehtola, Hugh Burton, Evgeny Epifanovsky,
  Bang C. Huynh
 -----------------------------------------------------------------------
 Exchange:     0.2220 Hartree-Fock + 1.0000 wB97X-D + LR-HF
 Correlation:  1.0000 wB97X-D
 Using SG-3 standard quadrature grid
 Dispersion:   Grimme D
 A restricted SCF calculation will be
 performed using DIIS
 SCF converges when DIIS error is below 1.0e-08
 ---------------------------------------
  Cycle       Energy         DIIS error
 ---------------------------------------
    1   -1073.9728356713      2.10e-02  
    2   -1066.2302926867      2.32e-03  
    3   -1066.2233960238      2.62e-03  
    4   -1066.6670137904      3.97e-04  
    5   -1066.6778480448      1.34e-04  
    6   -1066.6792016711      3.54e-05  
    7   -1066.6792955637      1.27e-05  
    8   -1066.6793097005      2.84e-06  
    9   -1066.6793109541      1.11e-06  
   10   -1066.6793112241      3.39e-07  
   11   -1066.6793111864      1.75e-07  
   12   -1066.6793111228      8.03e-08  
   13   -1066.6793112750      2.96e-08  
   14   -1066.6793111624      1.45e-08  
   15   -1066.6793113067      6.85e-09  Convergence criterion met
 ---------------------------------------
 SCF time:   CPU 23721.22s  wall 1114.00s 

************** Final PCM Free Energy Summary **************
 G_electrostatic  =      -0.14938603 hartree =     -93.74115178 kcal/mol
 G_cavitation     =       0.00000000 hartree =       0.00000000 kcal/mol
 G_dispersion     =       0.00000000 hartree =       0.00000000 kcal/mol
 G_repulsion      =       0.00000000 hartree =       0.00000000 kcal/mol
 --------------------------------------------------
 Non-electrostatic Free Energy =       0.00000000 hartree =       0.00000000 kcal/mol
 Total                         =      -0.14938603 hartree =     -93.74115178 kcal/mol
 --------------------------------------------------
 SCF Energy (H0 + V/2)                       =   -1066.67931131 
 Solute Internal Energy (H0)                 =   -1066.52992527 
 Total Free Energy (H0 + V/2 + non-elec)     =   -1066.67931131 hartree
                                             = -669351.37036469 kcal/mol
***********************************************************

 SCF   energy in the final basis set =    -1066.6793113067
 Total energy in the final basis set =    -1066.6793113067
 
 --------------------------------------------------------------
 
                    Orbital Energies (a.u.)
 --------------------------------------------------------------
 
 Alpha MOs
 -- Occupied --
-19.1547 -19.1489 -14.5676 -10.3499 -10.3475 -10.3357 -10.3253 -10.3061
-10.3007 -10.2993 -10.2953 -10.2945 -10.2932 -10.2898 -10.2895 -10.2877
-10.2852 -10.2850 -10.2820 -10.2745 -10.2628 -10.2479 -10.2470 -10.2463
-10.2441  -1.1078  -1.0188  -1.0118  -0.9130  -0.9037  -0.9000  -0.8876
 -0.8705  -0.8397  -0.8359  -0.8293  -0.7957  -0.7909  -0.7505  -0.7485
 -0.7346  -0.7286  -0.6834  -0.6800  -0.6787  -0.6694  -0.6553  -0.6518
 -0.6194  -0.6174  -0.5969  -0.5914  -0.5807  -0.5668  -0.5538  -0.5507
 -0.5266  -0.5247  -0.5171  -0.5163  -0.5117  -0.5074  -0.5065  -0.5014
 -0.4988  -0.4959  -0.4854  -0.4815  -0.4754  -0.4681  -0.4611  -0.4583
 -0.4538  -0.4467  -0.4437  -0.4390  -0.4362  -0.4343  -0.4272  -0.4253
 -0.4215  -0.4199  -0.4181  -0.4143  -0.4131  -0.4103  -0.4076  -0.4049
 -0.3998  -0.3982  -0.3932  -0.3857  -0.3710  -0.3033  -0.2908  -0.2779
 -0.2712  -0.1889
 -- Virtual --
  0.0794   0.0854   0.0885   0.0933   0.0984   0.1079   0.1103   0.1121
  0.1126   0.1164   0.1266   0.1289   0.1320   0.1369   0.1391   0.1407
  0.1434   0.1512   0.1541   0.1570   0.1609   0.1661   0.1682   0.1715
  0.1754   0.1801   0.1842   0.1851   0.1861   0.1913   0.1951   0.1973
  0.1997   0.2004   0.2027   0.2054   0.2107   0.2109   0.2135   0.2151
  0.2179   0.2212   0.2233   0.2246   0.2284   0.2304   0.2352   0.2371
  0.2381   0.2430   0.2472   0.2494   0.2509   0.2511   0.2545   0.2561
  0.2628   0.2642   0.2662   0.2706   0.2713   0.2757   0.2779   0.2786
  0.2807   0.2863   0.2896   0.2912   0.2940   0.2945   0.2995   0.3006
  0.3039   0.3084   0.3110   0.3131   0.3186   0.3208   0.3240   0.3274
  0.3285   0.3339   0.3368   0.3408   0.3428   0.3438   0.3475   0.3516
  0.3539   0.3561   0.3592   0.3642   0.3681   0.3700   0.3713   0.3742
  0.3755   0.3785   0.3797   0.3826   0.3832   0.3853   0.3875   0.3902
  0.3931   0.3933   0.3993   0.4007   0.4051   0.4069   0.4093   0.4124
  0.4148   0.4172   0.4186   0.4201   0.4232   0.4249   0.4260   0.4277
  0.4299   0.4316   0.4322   0.4324   0.4337   0.4381   0.4392   0.4422
  0.4439   0.4467   0.4485   0.4532   0.4536   0.4558   0.4587   0.4596
  0.4610   0.4629   0.4677   0.4699   0.4713   0.4736   0.4742   0.4759
  0.4780   0.4811   0.4838   0.4853   0.4880   0.4889   0.4904   0.4942
  0.4977   0.4996   0.5012   0.5067   0.5088   0.5093   0.5108   0.5135
  0.5150   0.5200   0.5217   0.5243   0.5246   0.5287   0.5301   0.5315
  0.5333   0.5338   0.5360   0.5383   0.5417   0.5449   0.5468   0.5507
  0.5544   0.5555   0.5583   0.5591   0.5598   0.5630   0.5638   0.5658
  0.5674   0.5721   0.5735   0.5779   0.5797   0.5827   0.5845   0.5852
  0.5914   0.5925   0.5938   0.5963   0.5981   0.6015   0.6069   0.6083
  0.6086   0.6138   0.6160   0.6180   0.6227   0.6279   0.6296   0.6309
  0.6334   0.6338   0.6380   0.6391   0.6420   0.6426   0.6427   0.6490
  0.6536   0.6556   0.6590   0.6633   0.6642   0.6659   0.6679   0.6716
  0.6737   0.6776   0.6786   0.6818   0.6852   0.6882   0.6901   0.6976
  0.6988   0.7000   0.7025   0.7041   0.7080   0.7109   0.7144   0.7187
  0.7215   0.7223   0.7284   0.7305   0.7335   0.7356   0.7398   0.7413
  0.7445   0.7468   0.7495   0.7527   0.7538   0.7573   0.7606   0.7615
  0.7678   0.7688   0.7736   0.7770   0.7815   0.7858   0.7865   0.7887
  0.7910   0.7935   0.7992   0.8045   0.8050   0.8070   0.8101   0.8148
  0.8180   0.8190   0.8258   0.8279   0.8326   0.8342   0.8385   0.8436
  0.8474   0.8489   0.8508   0.8526   0.8545   0.8580   0.8606   0.8640
  0.8659   0.8711   0.8787   0.8801   0.8878   0.8907   0.8910   0.8917
  0.8953   0.8976   0.8994   0.9104   0.9152   0.9156   0.9189   0.9232
  0.9273   0.9318   0.9374   0.9395   0.9404   0.9435   0.9467   0.9512
  0.9545   0.9557   0.9602   0.9677   0.9724   0.9759   0.9802   0.9833
  0.9884   0.9955   0.9990   1.0036   1.0063   1.0083   1.0172   1.0207
  1.0245   1.0323   1.0343   1.0383   1.0452   1.0462   1.0544   1.0556
  1.0607   1.0647   1.0746   1.0749   1.0837   1.0880   1.0892   1.0931
  1.0977   1.1046   1.1092   1.1099   1.1139   1.1152   1.1225   1.1237
  1.1291   1.1308   1.1324   1.1357   1.1401   1.1440   1.1493   1.1541
  1.1591   1.1606   1.1627   1.1737   1.1773   1.1843   1.1856   1.1878
  1.1977   1.2011   1.2047   1.2088   1.2156   1.2236   1.2282   1.2347
  1.2387   1.2424   1.2481   1.2591   1.2594   1.2647   1.2723   1.2744
  1.2841   1.2926   1.2955   1.2977   1.3055   1.3106   1.3131   1.3201
  1.3249   1.3297   1.3375   1.3436   1.3462   1.3554   1.3613   1.3617
  1.3723   1.3792   1.3862   1.3897   1.3940   1.3969   1.4049   1.4086
  1.4097   1.4224   1.4250   1.4275   1.4292   1.4357   1.4398   1.4462
  1.4528   1.4621   1.4643   1.4692   1.4757   1.4809   1.4863   1.4893
  1.4997   1.5015   1.5043   1.5158   1.5187   1.5295   1.5313   1.5366
  1.5396   1.5487   1.5520   1.5593   1.5603   1.5677   1.5724   1.5800
  1.5870   1.5888   1.5988   1.6111   1.6152   1.6202   1.6258   1.6325
  1.6350   1.6504   1.6546   1.6577   1.6665   1.6798   1.6819   1.6977
  1.7061   1.7104   1.7179   1.7241   1.7276   1.7429   1.7517   1.7583
  1.7629   1.7663   1.7697   1.7764   1.7872   1.7966   1.8016   1.8042
  1.8123   1.8190   1.8312   1.8372   1.8492   1.8521   1.8589   1.8617
  1.8647   1.8727   1.8777   1.8889   1.8904   1.8918   1.8980   1.9020
  1.9112   1.9177   1.9192   1.9246   1.9266   1.9333   1.9427   1.9477
  1.9517   1.9569   1.9609   1.9693   1.9767   1.9807   1.9851   1.9905
  1.9968   1.9989   2.0023   2.0105   2.0139   2.0169   2.0193   2.0240
  2.0307   2.0335   2.0408   2.0433   2.0482   2.0538   2.0574   2.0652
  2.0664   2.0694   2.0705   2.0780   2.0873   2.0895   2.0919   2.0974
  2.1040   2.1074   2.1142   2.1185   2.1218   2.1282   2.1299   2.1389
  2.1408   2.1512   2.1548   2.1558   2.1622   2.1648   2.1701   2.1753
  2.1809   2.1850   2.1873   2.1914   2.2013   2.2097   2.2120   2.2174
  2.2227   2.2256   2.2330   2.2451   2.2470   2.2494   2.2561   2.2632
  2.2679   2.2745   2.2854   2.2886   2.2975   2.2995   2.3020   2.3119
  2.3142   2.3232   2.3311   2.3358   2.3465   2.3508   2.3540   2.3577
  2.3632   2.3694   2.3751   2.3804   2.3908   2.3963   2.4032   2.4069
  2.4108   2.4172   2.4268   2.4296   2.4327   2.4413   2.4499   2.4524
  2.4548   2.4659   2.4696   2.4765   2.4858   2.4875   2.4905   2.5022
  2.5057   2.5165   2.5278   2.5319   2.5392   2.5553   2.5577   2.5597
  2.5708   2.5747   2.5884   2.5959   2.5991   2.6078   2.6137   2.6272
  2.6320   2.6359   2.6374   2.6465   2.6531   2.6619   2.6665   2.6716
  2.6772   2.6851   2.6899   2.6923   2.6925   2.7022   2.7114   2.7229
  2.7275   2.7405   2.7450   2.7456   2.7550   2.7624   2.7660   2.7701
  2.7759   2.7827   2.7880   2.7948   2.8051   2.8067   2.8131   2.8152
  2.8211   2.8249   2.8391   2.8414   2.8444   2.8667   2.8801   2.8855
  2.8975   2.9011   2.9054   2.9288   2.9407   2.9434   2.9466   2.9582
  2.9665   2.9835   2.9894   2.9990   3.0083   3.0166   3.0343   3.0572
  3.0603   3.0682   3.0753   3.0932   3.1169   3.1280   3.1341   3.1439
  3.1497   3.1591   3.1682   3.1751   3.1784   3.1834   3.1860   3.1958
  3.2015   3.2123   3.2175   3.2199   3.2352   3.2464   3.2548   3.2637
  3.2679   3.2738   3.2798   3.2906   3.2925   3.3032   3.3144   3.3193
  3.3283   3.3349   3.3457   3.3607   3.3686   3.3722   3.3854   3.3915
  3.4026   3.4109   3.4289   3.4350   3.4569   3.4691   3.5501   3.5565
  3.5639   3.5683   3.5899   3.6327   3.6796   3.6983   3.9598   4.0850
 --------------------------------------------------------------
 
          Ground-State Mulliken Net Atomic Charges

     Atom                 Charge (a.u.)
  ----------------------------------------
      1 N                    -2.301889
      2 C                     0.458308
      3 C                     0.460184
      4 C                     0.620063
      5 C                     0.812818
      6 C                     0.677426
      7 C                     0.381651
      8 C                     0.565744
      9 C                     0.241703
     10 C                    -0.117463
     11 C                    -0.052718
     12 C                     0.202563
     13 C                     0.043393
     14 C                     0.892293
     15 C                     0.615338
     16 C                     1.372833
     17 C                     0.736172
     18 H                    -1.428443
     19 H                    -0.019968
     20 H                    -0.386622
     21 H                     0.049533
     22 H                    -0.115067
     23 H                    -0.495963
     24 H                    -0.182355
     25 H                    -0.482011
     26 H                    -0.060710
     27 H                    -0.175893
     28 H                    -0.002866
     29 H                    -0.017081
     30 H                    -0.116069
     31 H                    -1.097811
     32 H                     0.177003
     33 H                    -0.371837
     34 H                     0.138875
     35 H                     0.008432
     36 H                    -0.030993
     37 H                     0.041865
     38 H                     0.072376
     39 H                    -0.219597
     40 H                    -0.024933
     41 H                    -0.104839
     42 H                     0.071700
     43 H                     0.094069
     44 H                    -0.020723
     45 H                     0.068617
     46 H                     0.093530
     47 H                    -0.001546
     48 H                     0.128612
     49 H                    -0.545847
     50 H                     0.030702
     51 H                     0.112100
     52 H                     0.038573
     53 H                    -0.015223
     54 O                    -0.797677
     55 H                    -0.926189
     56 C                     0.285046
     57 C                     0.282185
     58 C                     0.044692
     59 H                     0.122981
     60 C                     0.021942
     61 H                    -0.264207
     62 C                     0.476360
     63 C                     0.216770
     64 O                    -0.817309
     65 H                    -0.462600
  ----------------------------------------
  Sum of atomic charges =    -1.000000

  Building new vdw surfaces
         Merz-Kollman RESP Net Atomic Charges

     Atom                 Charge (a.u.)
  ----------------------------------------
      1 N                     0.584163
      2 C                    -0.476452
      3 C                    -0.319755
      4 C                    -0.413423
      5 C                    -0.413423
      6 C                    -0.354710
      7 C                    -0.030133
      8 C                     0.202594
      9 C                     0.009567
     10 C                     0.286097
     11 C                     0.126184
     12 C                     0.020798
     13 C                     0.127196
     14 C                    -0.683318
     15 C                    -0.447180
     16 C                    -0.447180
     17 C                    -0.447180
     18 H                     0.407030
     19 H                     0.199388
     20 H                     0.124976
     21 H                     0.124976
     22 H                     0.124976
     23 H                     0.124976
     24 H                     0.154941
     25 H                     0.154941
     26 H                     0.137648
     27 H                     0.137648
     28 H                     0.053710
     29 H                     0.053710
     30 H                     0.023863
     31 H                     0.023863
     32 H                     0.064918
     33 H                     0.064918
     34 H                     0.035123
     35 H                     0.035123
     36 H                     0.024888
     37 H                     0.024888
     38 H                     0.024888
     39 H                     0.024888
     40 H                     0.012617
     41 H                     0.012617
     42 H                     0.165166
     43 H                     0.165166
     44 H                     0.165166
     45 H                     0.111643
     46 H                     0.111643
     47 H                     0.111643
     48 H                     0.105366
     49 H                     0.105366
     50 H                     0.105366
     51 H                     0.110098
     52 H                     0.110098
     53 H                     0.110098
     54 O                    -0.971780
     55 H                     0.062117
     56 C                    -0.148997
     57 C                     0.343014
     58 C                    -0.603361
     59 H                     0.176790
     60 C                    -0.318218
     61 H                     0.178702
     62 C                     0.676315
     63 C                    -0.654575
     64 O                    -0.987371
     65 H                     0.275187
  ----------------------------------------
  Sum of atomic charges =    -1.000000

  Related Dipole Moment =    36.6154 (X -7.5650 Y 32.9364 Z 14.0944)

 -----------------------------------------------------------------
                    Cartesian Multipole Moments
 -----------------------------------------------------------------
    Charge (ESU x 10^10)
                -4.8032
    Dipole Moment (Debye)
         X      -7.5570      Y      33.0914      Z      14.1865
       Tot      36.7887
    Quadrupole Moments (Debye-Ang)
        XX    -197.9661     XY       6.9223     YY    -313.2341
        XZ      25.9136     YZ     -47.8136     ZZ    -189.4023
    Octopole Moments (Debye-Ang^2)
       XXX    -360.3325    XXY     297.8983    XYY     -45.9793
       YYY    1406.2361    XXZ     227.5843    XYZ     -51.9433
       YYZ     316.5145    XZZ    -163.6085    YZZ     282.1332
       ZZZ     442.2357
    Hexadecapole Moments (Debye-Ang^3)
      XXXX   -6100.6564   XXXY     326.6424   XXYY   -2403.7919
      XYYY    -231.9409   YYYY  -11340.8574   XXXZ     485.5971
      XXYZ    -514.6496   XYYZ     143.2736   YYYZ   -1841.5456
      XXZZ   -1798.6885   XYZZ     185.6719   YYZZ   -2051.5105
      XZZZ     426.7940   YZZZ   -1075.8190   ZZZZ   -3752.3571
 -----------------------------------------------------------------
 Calculating analytic gradient of the SCF energy
 Gradient of SCF Energy
            1           2           3           4           5           6
    1  -0.0083276  -0.0136053   0.0028145  -0.0187297   0.0048465   0.0153101
    2   0.0040675   0.0096941  -0.0064809  -0.0145905   0.0084488   0.0107891
    3  -0.0178903   0.0184446   0.0084765  -0.0241110  -0.0129319   0.0083803
            7           8           9          10          11          12
    1   0.0095691   0.0916917  -0.0063701   0.0018014  -0.0039746  -0.0060793
    2  -0.0088321  -0.0443977  -0.0142088   0.0000925  -0.0050428  -0.0121728
    3  -0.0160909  -0.0332606   0.0183869  -0.0024232   0.0039727  -0.0283750
           13          14          15          16          17          18
    1   0.0109033  -0.0134088   0.0073237   0.0448357  -0.0122843   0.0219650
    2  -0.0042204   0.0006946  -0.0051652  -0.0051934  -0.0138598  -0.0260924
    3  -0.0073221  -0.0219370  -0.0044336   0.0140472   0.0090220  -0.0722663
           19          20          21          22          23          24
    1   0.0006147  -0.0033796   0.0043396   0.0329447  -0.0102330   0.0018577
    2   0.0242383  -0.0124295   0.0173728   0.0048205  -0.0009650  -0.0130868
    3  -0.0007565  -0.0054369  -0.0027340   0.0024876   0.0206941  -0.0099913
           25          26          27          28          29          30
    1   0.0093666   0.0144934  -0.0140038   0.0053030  -0.0021382   0.0182209
    2  -0.0049196  -0.0035823  -0.0119963   0.0157022  -0.0099827   0.0108126
    3   0.0082980  -0.0122886   0.0267417   0.0035833   0.0000646  -0.0201189
           31          32          33          34          35          36
    1  -0.1291763   0.0225851  -0.0424687  -0.0397048   0.0267228  -0.0055240
    2   0.0598960   0.0079909   0.0001970  -0.0260591   0.0200557  -0.0052578
    3   0.0724134   0.0177605   0.0039283   0.0049116  -0.0033628  -0.0038016
           37          38          39          40          41          42
    1  -0.0009113  -0.0221610   0.0064519  -0.0067983   0.0104587   0.0089450
    2   0.0126662  -0.0130066  -0.0314837   0.0071301  -0.0118955  -0.0067247
    3  -0.0035709   0.0305444   0.0016990  -0.0178346  -0.0004954  -0.0128536
           43          44          45          46          47          48
    1  -0.0113902  -0.0100068   0.0050591  -0.0018138   0.0060491   0.0179493
    2  -0.0128223   0.0209030   0.0093699  -0.0083702  -0.0020127   0.0020020
    3   0.0104909  -0.0073573   0.0065399   0.0045199  -0.0092839  -0.0194541
           49          50          51          52          53          54
    1  -0.0076291   0.0243102   0.0123725  -0.0157706  -0.0122841  -0.0050996
    2   0.0304778   0.0102766  -0.0008105   0.0260536  -0.0190361  -0.0284334
    3  -0.0093644   0.0191466   0.0185715  -0.0059851  -0.0011842  -0.0037187
           55          56          57          58          59          60
    1  -0.0447219  -0.0530899  -0.0035569   0.0268733  -0.0455028   0.0052818
    2   0.0510991  -0.0029387  -0.0707230   0.0194929   0.0457137   0.0026218
    3   0.0337338  -0.0928446  -0.0323636  -0.0007232  -0.0832599   0.0263474
           61          62          63          64          65
    1  -0.0247230   0.0521627   0.0692966   0.0335685  -0.0314210
    2  -0.0124946  -0.0394868   0.0134067   0.0283399   0.0343485
    3   0.1114604   0.0099629  -0.0201776  -0.0071901   0.1125636
 Max gradient component =       1.292E-01
 RMS gradient           =       2.782E-02
 Computing fast CPCM-SWIG gradient
 Updating gradient with PCM contributions...
 -- total gradient after adding PCM contribution --
---------------------------------------------------
  Atom         X              Y              Z     
---------------------------------------------------
   1       0.000853      -0.002789      -0.000562
   2       0.005033      -0.002524      -0.001974
   3      -0.000970      -0.001729      -0.001106
   4       0.002249       0.000824      -0.001156
   5       0.001007      -0.000722       0.000140
   6       0.000792      -0.002287      -0.001462
   7       0.000909      -0.000789      -0.000423
   8       0.003216      -0.010990      -0.006006
   9       0.000036      -0.001645      -0.000223
  10      -0.001857      -0.001919      -0.002511
  11       0.000494      -0.000474      -0.000522
  12       0.002332      -0.002142      -0.002581
  13       0.000032      -0.000335      -0.000024
  14      -0.000227      -0.000526      -0.000810
  15       0.000701      -0.000369      -0.000448
  16       0.005346      -0.001725       0.001375
  17      -0.000220      -0.000324      -0.000080
  18       0.002510      -0.006040      -0.002588
  19      -0.001235      -0.001630       0.001099
  20       0.000004      -0.000357       0.000140
  21      -0.000385      -0.000287      -0.000059
  22       0.001299      -0.000250      -0.000760
  23      -0.001115      -0.001287       0.000100
  24      -0.000385       0.000229      -0.000112
  25       0.000112       0.000004       0.000197
  26      -0.000018       0.000267      -0.000345
  27      -0.000345       0.000102       0.000033
  28      -0.000051      -0.000594      -0.000423
  29      -0.000073      -0.000155      -0.000221
  30       0.001131      -0.000817       0.000324
  31       0.010211      -0.014673      -0.005848
  32      -0.000061      -0.000018      -0.000030
  33       0.000059      -0.000310       0.000561
  34      -0.000984      -0.002348      -0.002908
  35      -0.000158       0.000085       0.000426
  36       0.000182      -0.000165      -0.000041
  37      -0.000096       0.000081       0.000098
  38       0.001514      -0.001623       0.000284
  39      -0.000237      -0.000592       0.000494
  40      -0.000055       0.000011      -0.000000
  41      -0.000108      -0.000125       0.000107
  42      -0.000149      -0.000108      -0.000101
  43      -0.000076      -0.000014      -0.000119
  44      -0.000087      -0.000083      -0.000062
  45       0.000007      -0.000018      -0.000068
  46       0.000043      -0.000006       0.000018
  47       0.000203      -0.000080       0.000009
  48       0.000044      -0.000064       0.000048
  49       0.010412      -0.002597      -0.006070
  50       0.001217      -0.001261       0.000467
  51       0.000007       0.000050      -0.000013
  52       0.000054      -0.000013      -0.000014
  53      -0.000094      -0.000032       0.000065
  54      -0.009014      -0.010829       0.006372
  55       0.002792       0.004016       0.004911
  56      -0.005127       0.012387       0.004175
  57      -0.000187       0.008889      -0.000696
  58      -0.003425       0.004417      -0.002176
  59       0.000792       0.000249       0.000123
  60      -0.005569       0.005654       0.004741
  61      -0.000221      -0.000020      -0.000302
  62      -0.007853       0.008376       0.005229
  63      -0.014714       0.020545       0.013030
  64       0.008467       0.010217      -0.002504
  65      -0.008969       0.001283       0.000779
---------------------------------------------------
 Number of fixed atoms: 0
 Gradient time:  CPU 4777.22 s  wall 238.57 s
 Geometry Optimization Parameters
   NAtoms,    NIC,     NZ,  NCons,   NDum,   NFix, NCnnct, MaxDiis
       65     491       0       0       0       0       0       0

 Cartesian Hessian Update
 Hessian updated using BFGS update


** GEOMETRY OPTIMIZATION IN DELOCALIZED INTERNAL COORDINATES **
   Searching for a Minimum

   Optimization Cycle:   2

                       Coordinates (Angstroms)
     ATOM                X               Y               Z
      1  N         0.3385758988    0.0167516479   -0.3072936794
      2  C         1.3993564312   -0.9258746331    0.2038415410
      3  C        -0.6881326417    0.2304139831    0.7719823922
      4  C        -0.3024335516   -0.5851854378   -1.5354216408
      5  C         0.9472101308    1.3413939062   -0.6771051124
      6  C         2.3034872292   -0.4160387894    1.3060149834
      7  C        -1.9996249749    0.8445725618    0.3191369094
      8  C        -1.0655258575   -1.8824179667   -1.2993084353
      9  C         1.9714759990    1.2729602200   -1.8003951149
     10  C         3.1775943294   -1.5704184558    1.7971066647
     11  C        -2.8949530529    1.1186560048    1.5236781116
     12  C        -2.0312507080   -2.1294941510   -2.4579216190
     13  C         2.9044541284    2.4800879699   -1.7628457710
     14  C         4.1484762495   -1.1502632684    2.8912470605
     15  C        -4.2468214476    1.6875236543    1.1143184041
     16  C        -2.7988893127   -3.4380027069   -2.3144272582
     17  C         3.8993118296    2.4723595994   -2.9174573641
     18  H         2.0065967502   -1.2173863666   -0.6563340224
[...]
     31  H        -0.4216174223   -2.6782932156   -1.0460567311
     32  H         1.4050693739    1.2394734174   -2.7562249005
     33  H         2.5240154601    0.3709054964   -1.7202477851
     34  H         3.7079538540   -1.8690425998    1.1053029904
     35  H         2.5004265400   -2.2359478424    2.3337898876
     36  H        -2.3205057871    2.0863766350    2.2509277316
     37  H        -3.0376990671    0.4761065942    2.2167121184
     38  H        -1.5023535518   -2.1844986656   -3.2419732815
     39  H        -2.7884802612   -1.2978412471   -2.4135281099
     40  H         3.4056880359    2.5422108616   -0.8391043834
     41  H         2.2565423569    3.4328502554   -1.8355233241
     42  H         3.5343871080   -0.5235272260    3.8730769816
     43  H         4.7499141103   -0.1500452807    2.6329308582
     44  H         4.7195566968   -1.7563760527    3.3907402361
     45  H        -4.7926072105    1.2837418403    0.5944170735
     46  H        -4.0734408921    2.9075346729    0.6323080981
     47  H        -4.8158946639    2.2304001049    2.0977539662
     48  H        -3.4364749216   -3.4079293157   -1.1828357060
     49  H        -2.1425036363   -4.2847042685   -2.0382958861
     50  H        -3.5293490400   -3.6296574979   -2.9431135979
     51  H         3.3169595108    2.4789936537   -3.9181324990
     52  H         4.4752681965    1.5857884829   -2.9104031445
     53  H         4.5033951285    3.3642583951   -2.9340768492
     54  O         2.8879702467   -1.9146176783   -2.2632976823
     55  H         2.7559807675   -3.6069910719   -0.2342516859
     56  C         2.1028381256   -3.8501757453   -1.0781007807
     57  C         2.1353026679   -2.9904289233   -2.2077124980
     58  C         1.2566546011   -4.9618133945   -0.9880387976
     59  H         1.2752656219   -5.5719088764   -0.0780262709
     60  C         1.2477926569   -3.3711646493   -3.2477696184
     61  H         1.2128200087   -2.7441259822   -4.1455247260
     62  C         0.3643722933   -5.3431921125   -2.0276812936
     63  C         0.4104209589   -4.4885906965   -3.1639372981
     64  O        -0.4312412148   -6.3800699091   -1.9437151569
     65  H        -0.2658035225   -4.7119922370   -3.9962506264

Z-matrix Print:
$molecule
-1 1
N 
C  1 1.507489
H  2 1.094088 1 106.665234
H  2 1.094288 1 106.117438 3 113.827836 0
C  1 1.509078 2 108.904574 3 66.611094 0
H  5 1.094694 1 106.212989 2 63.231111 0
H  5 1.095716 1 106.172799 2 -51.941257 0
C  1 1.509577 2 108.029721 3 -54.837354 0
H  8 1.094564 1 106.236874 2 -47.947090 0
H  8 1.094619 1 106.948025 2 -162.260721 0
C  1 1.513031 2 110.994710 3 -174.658404 0
H  11 1.094359 1 105.680326 2 174.600701 0
H  11 1.099425 1 106.756805 2 -70.884649 0
C  11 1.518786 1 115.778859 2 52.290492 0
H  14 1.099225 11 110.465905 1 -66.848676 0
H  14 1.099276 11 111.835439 1 52.541782 0
C  8 1.520411 1 116.111357 2 74.464276 0
H  17 1.098182 8 110.586237 1 64.915072 0
H  17 1.098726 8 111.197761 1 -53.794169 0
C  2 1.521548 1 115.490561 3 -123.038681 0
H  20 1.098946 2 111.235624 1 -36.271078 0
H  20 1.099235 2 109.635503 1 80.572699 0
C  5 1.522046 1 115.544889 2 -175.636213 0
H  23 1.097966 5 109.733064 1 -78.270840 0
H  23 1.098827 5 111.786811 1 41.001189 0
C  23 1.527136 5 109.896401 1 161.736271 0
H  26 1.100200 23 108.712731 5 56.271423 0
H  26 1.102209 23 109.186511 5 -59.904152 0
C  26 1.522975 23 112.323340 5 177.755904 0
H  29 1.098491 26 111.192319 23 179.553492 0
H  29 1.098719 26 110.415361 23 -60.226297 0
H  29 1.100443 26 110.812433 23 59.688133 0
C  20 1.527677 2 110.586235 1 -158.898370 0
H  33 1.101373 20 109.695599 2 -54.954353 0
H  33 1.101485 20 108.927078 2 60.996204 0
C  33 1.524144 20 112.312171 2 -177.287802 0
H  36 1.097913 33 111.243270 20 -179.712973 0
H  36 1.099581 33 110.785900 20 -59.451646 0
H  36 1.099636 33 110.872232 20 60.118296 0
C  17 1.528529 8 110.164782 1 -174.766914 0
H  40 1.100676 17 109.216731 8 59.767885 0
H  40 1.101071 17 109.147050 8 -56.187816 0
C  40 1.523971 17 112.350566 8 -178.098596 0
H  43 1.097718 40 111.152908 17 179.779966 0
H  43 1.099532 40 110.959779 17 59.679075 0
H  43 1.099574 40 110.976847 17 -60.094073 0
C  14 1.528970 11 109.747362 1 173.569080 0
H  47 1.100100 14 108.921774 11 56.843899 0
H  47 1.100752 14 109.137442 11 -58.824075 0
C  47 1.523917 14 112.576305 11 178.940361 0
H  50 1.097770 47 111.135500 14 -179.681477 0
H  50 1.099539 47 110.971611 14 -59.628400 0
H  50 1.099598 47 111.033998 14 60.175535 0
O  13 2.075034 11 173.805884 1 -66.319715 0
C  54 1.314142 13 89.335805 11 -33.408675 0
C  55 1.419279 54 123.145301 13 119.693326 0
H  56 1.095612 55 117.833245 54 1.448315 0
C  56 1.398878 55 123.003578 54 -177.471788 0
H  58 1.095415 56 119.137422 55 178.697003 0
C  55 1.419944 54 122.848172 13 -57.955961 0
H  60 1.094448 55 117.722939 54 -1.494465 0
C  60 1.399956 55 123.077961 54 176.886342 0
H  62 1.095758 60 119.030332 55 -179.070603 0
C  62 1.422137 60 123.034995 55 0.891187 0
O  64 1.309644 62 123.134862 60 -179.764739 0
$end

 
 --------------------------------------------------------------
 
                    Orbital Energies (a.u.)
 --------------------------------------------------------------
 
 Alpha MOs
 -- Occupied --
-19.1529 -19.1498 -14.5731 -10.3538 -10.3507 -10.3435 -10.3338 -10.3094
-10.3031 -10.3011 -10.2973 -10.2969 -10.2963 -10.2940 -10.2921 -10.2914
-10.2893 -10.2887 -10.2862 -10.2860 -10.2757 -10.2499 -10.2498 -10.2489
-10.2486  -1.1108  -1.0083  -1.0031  -0.9139  -0.9049  -0.9042  -0.8882
 -0.8680  -0.8411  -0.8385  -0.8337  -0.7962  -0.7871  -0.7533  -0.7521
 -0.7328  -0.7314  -0.6851  -0.6806  -0.6789  -0.6732  -0.6582  -0.6495
 -0.6222  -0.6138  -0.5997  -0.5940  -0.5828  -0.5684  -0.5560  -0.5532
 -0.5269  -0.5239  -0.5146  -0.5123  -0.5113  -0.5080  -0.5070  -0.5042
 -0.4993  -0.4957  -0.4893  -0.4866  -0.4772  -0.4663  -0.4643  -0.4569
 -0.4532  -0.4477  -0.4439  -0.4407  -0.4377  -0.4348  -0.4295  -0.4271
 -0.4270  -0.4232  -0.4213  -0.4154  -0.4146  -0.4141  -0.4123  -0.4079
 -0.4054  -0.4004  -0.3967  -0.3924  -0.3841  -0.3034  -0.2915  -0.2756
 -0.2725  -0.1899
 -- Virtual --
  0.0819   0.0868   0.0884   0.0915   0.0958   0.1073   0.1080   0.1096
  0.1134   0.1155   0.1238   0.1273   0.1299   0.1350   0.1376   0.1383
  0.1418   0.1485   0.1513   0.1561   0.1583   0.1631   0.1651   0.1711
  0.1732   0.1768   0.1806   0.1833   0.1845   0.1879   0.1905   0.1934
  0.1949   0.1976   0.1996   0.1999   0.2039   0.2065   0.2097   0.2111
  0.2129   0.2161   0.2206   0.2212   0.2228   0.2254   0.2273   0.2310
  0.2335   0.2393   0.2402   0.2409   0.2446   0.2470   0.2493   0.2530
  0.2558   0.2584   0.2631   0.2631   0.2661   0.2712   0.2714   0.2746
  0.2757   0.2784   0.2817   0.2844   0.2884   0.2889   0.2919   0.2946
  0.2977   0.3018   0.3038   0.3065   0.3081   0.3132   0.3152   0.3177
  0.3215   0.3227   0.3250   0.3299   0.3304   0.3352   0.3383   0.3422
  0.3446   0.3453   0.3473   0.3548   0.3579   0.3591   0.3632   0.3647
  0.3666   0.3670   0.3707   0.3743   0.3753   0.3783   0.3800   0.3828
  0.3853   0.3893   0.3916   0.3935   0.3961   0.4008   0.4034   0.4044
  0.4058   0.4086   0.4119   0.4135   0.4155   0.4186   0.4199   0.4206
  0.4230   0.4242   0.4265   0.4269   0.4293   0.4316   0.4347   0.4355
  0.4361   0.4397   0.4405   0.4427   0.4456   0.4482   0.4487   0.4503
  0.4526   0.4534   0.4558   0.4581   0.4593   0.4648   0.4669   0.4687
  0.4702   0.4724   0.4750   0.4758   0.4788   0.4802   0.4823   0.4872
  0.4885   0.4892   0.4940   0.4958   0.4988   0.4999   0.5007   0.5016
  0.5064   0.5073   0.5091   0.5113   0.5145   0.5166   0.5196   0.5236
  0.5240   0.5255   0.5276   0.5289   0.5306   0.5332   0.5353   0.5396
  0.5411   0.5418   0.5435   0.5485   0.5504   0.5541   0.5561   0.5573
  0.5604   0.5613   0.5630   0.5660   0.5681   0.5692   0.5722   0.5757
  0.5773   0.5811   0.5817   0.5849   0.5856   0.5897   0.5923   0.5933
  0.5953   0.6006   0.6014   0.6031   0.6048   0.6109   0.6126   0.6143
  0.6169   0.6197   0.6246   0.6266   0.6276   0.6331   0.6356   0.6368
  0.6398   0.6409   0.6431   0.6465   0.6490   0.6522   0.6543   0.6553
  0.6613   0.6628   0.6632   0.6651   0.6684   0.6721   0.6765   0.6808
  0.6826   0.6835   0.6855   0.6904   0.6920   0.6948   0.6977   0.7014
  0.7057   0.7078   0.7082   0.7113   0.7137   0.7187   0.7192   0.7233
  0.7251   0.7281   0.7323   0.7347   0.7359   0.7412   0.7422   0.7489
  0.7502   0.7517   0.7558   0.7601   0.7619   0.7638   0.7664   0.7690
  0.7712   0.7761   0.7777   0.7815   0.7843   0.7873   0.7911   0.7968
  0.7975   0.8022   0.8037   0.8060   0.8130   0.8157   0.8162   0.8210
  0.8215   0.8250   0.8269   0.8297   0.8345   0.8399   0.8411   0.8425
  0.8468   0.8501   0.8569   0.8577   0.8604   0.8643   0.8658   0.8706
  0.8776   0.8793   0.8818   0.8862   0.8897   0.8925   0.8945   0.8957
  0.9031   0.9096   0.9118   0.9188   0.9220   0.9240   0.9271   0.9290
  0.9356   0.9420   0.9466   0.9481   0.9509   0.9535   0.9604   0.9632
  0.9675   0.9698   0.9749   0.9781   0.9845   0.9875   0.9903   0.9954
  0.9984   1.0068   1.0168   1.0183   1.0229   1.0268   1.0330   1.0373
  1.0472   1.0522   1.0532   1.0589   1.0601   1.0655   1.0687   1.0696
  1.0776   1.0808   1.0920   1.0934   1.0976   1.1006   1.1056   1.1118
  1.1133   1.1167   1.1185   1.1222   1.1231   1.1287   1.1351   1.1391
  1.1436   1.1440   1.1452   1.1487   1.1543   1.1629   1.1656   1.1708
  1.1758   1.1838   1.1875   1.1935   1.1964   1.1989   1.2039   1.2085
  1.2119   1.2147   1.2283   1.2329   1.2374   1.2419   1.2494   1.2546
  1.2558   1.2597   1.2608   1.2674   1.2789   1.2834   1.2871   1.2961
  1.2994   1.3034   1.3084   1.3179   1.3240   1.3273   1.3350   1.3386
  1.3416   1.3488   1.3584   1.3611   1.3687   1.3733   1.3821   1.3844
  1.3856   1.3956   1.3971   1.4058   1.4087   1.4165   1.4202   1.4209
  1.4224   1.4300   1.4344   1.4455   1.4465   1.4493   1.4617   1.4657
  1.4695   1.4731   1.4791   1.4852   1.4940   1.4963   1.5075   1.5135
  1.5238   1.5265   1.5352   1.5389   1.5391   1.5457   1.5494   1.5512
  1.5624   1.5640   1.5685   1.5750   1.5835   1.5857   1.5977   1.6036
  1.6148   1.6175   1.6271   1.6461   1.6498   1.6551   1.6606   1.6693
  1.6812   1.6852   1.6912   1.6995   1.7030   1.7167   1.7205   1.7291
  1.7340   1.7424   1.7510   1.7613   1.7631   1.7703   1.7741   1.7804
  1.7846   1.7882   1.7981   1.8034   1.8095   1.8153   1.8182   1.8245
  1.8253   1.8293   1.8362   1.8493   1.8545   1.8616   1.8678   1.8709
  1.8769   1.8881   1.8932   1.8977   1.9049   1.9072   1.9137   1.9202
  1.9216   1.9284   1.9334   1.9344   1.9406   1.9425   1.9491   1.9534
  1.9624   1.9705   1.9744   1.9791   1.9828   1.9893   1.9940   1.9988
  2.0053   2.0100   2.0144   2.0199   2.0244   2.0285   2.0316   2.0356
  2.0375   2.0443   2.0505   2.0555   2.0608   2.0617   2.0729   2.0756
  2.0801   2.0858   2.0884   2.0955   2.1015   2.1022   2.1081   2.1105
  2.1198   2.1214   2.1244   2.1295   2.1340   2.1370   2.1414   2.1455
  2.1540   2.1546   2.1640   2.1658   2.1714   2.1755   2.1813   2.1883
  2.1920   2.1986   2.2029   2.2056   2.2120   2.2152   2.2216   2.2253
  2.2285   2.2390   2.2414   2.2509   2.2572   2.2576   2.2715   2.2735
  2.2808   2.2900   2.3001   2.3048   2.3064   2.3210   2.3238   2.3255
  2.3292   2.3322   2.3442   2.3540   2.3574   2.3607   2.3688   2.3757
  2.3791   2.3843   2.3913   2.3965   2.4051   2.4072   2.4140   2.4184
  2.4205   2.4276   2.4318   2.4429   2.4456   2.4532   2.4589   2.4723
  2.4747   2.4840   2.4891   2.4960   2.4974   2.5061   2.5259   2.5281
  2.5429   2.5498   2.5543   2.5582   2.5656   2.5700   2.5723   2.5880
  2.5986   2.6036   2.6177   2.6223   2.6305   2.6337   2.6390   2.6436
  2.6468   2.6544   2.6601   2.6630   2.6694   2.6745   2.6802   2.6915
  2.6955   2.7070   2.7117   2.7182   2.7305   2.7341   2.7496   2.7522
  2.7564   2.7589   2.7643   2.7693   2.7717   2.7799   2.7845   2.7925
  2.8012   2.8049   2.8065   2.8151   2.8260   2.8289   2.8368   2.8484
  2.8636   2.8685   2.8801   2.8854   2.9146   2.9206   2.9350   2.9406
  2.9420   2.9549   2.9600   2.9739   2.9817   2.9955   3.0007   3.0148
  3.0188   3.0253   3.0321   3.0511   3.0941   3.0968   3.1108   3.1225
  3.1339   3.1425   3.1496   3.1565   3.1588   3.1647   3.1712   3.1729
  3.1824   3.1899   3.1997   3.2049   3.2088   3.2209   3.2340   3.2377
  3.2521   3.2626   3.2697   3.2725   3.2798   3.2851   3.2884   3.2991
  3.3023   3.3079   3.3122   3.3308   3.3413   3.3549   3.3578   3.3627
  3.3702   3.3737   3.3839   3.4037   3.4214   3.4447   3.4814   3.5129
  3.5346   3.5430   3.5529   3.6027   3.6207   3.6584   3.9225   4.0460
 --------------------------------------------------------------
 
          Ground-State Mulliken Net Atomic Charges

     Atom                 Charge (a.u.)
  ----------------------------------------
      1 N                    -2.342513
      2 C                     0.268253
      3 C                     0.390375
      4 C                     0.285258
      5 C                     0.746423
      6 C                     0.557333
      7 C                     0.322296
      8 C                     0.207353
      9 C                     0.309374
     10 C                     0.017885
     11 C                    -0.081395
     12 C                    -0.055261
     13 C                    -0.001386
     14 C                     0.768954
     15 C                     0.598052
     16 C                     1.364592
     17 C                     0.718647
     18 H                    -0.963906
     19 H                    -0.142546
     20 H                    -0.284963
     21 H                     0.014475
     22 H                    -0.143081
     23 H                    -0.316572
     24 H                    -0.206677
     25 H                    -0.477440
     26 H                    -0.036363
     27 H                    -0.189471
     28 H                    -0.013351
     29 H                    -0.007454
     30 H                    -0.018889
     31 H                    -0.080713
     32 H                     0.151814
     33 H                    -0.382782
     34 H                     0.042284
     35 H                    -0.011808
     36 H                    -0.028721
     37 H                     0.047498
     38 H                     0.057597
     39 H                    -0.071134
     40 H                    -0.015784
     41 H                    -0.092733
     42 H                     0.076092
     43 H                     0.100460
     44 H                    -0.013171
     45 H                     0.072164
     46 H                     0.088009
     47 H                     0.003326
     48 H                     0.162195
     49 H                    -0.613258
     50 H                     0.081376
     51 H                     0.110005
     52 H                     0.040922
     53 H                    -0.011574
     54 O                    -0.835829
     55 H                    -0.399510
     56 C                     0.203248
     57 C                     0.034920
     58 C                    -0.187154
     59 H                     0.068251
     60 C                    -0.082048
     61 H                    -0.083503
     62 C                     0.300600
     63 C                    -0.063479
     64 O                    -0.890940
     65 H                    -0.064622
  ----------------------------------------
  Sum of atomic charges =    -1.000000

         Merz-Kollman RESP Net Atomic Charges

     Atom                 Charge (a.u.)
  ----------------------------------------
      1 N                     0.469906
      2 C                    -0.220395
      3 C                    -0.319756
      4 C                    -0.346195
      5 C                    -0.346195
      6 C                    -0.314132
      7 C                    -0.057052
      8 C                    -0.070654
      9 C                     0.016825
     10 C                     0.303872
     11 C                     0.144473
     12 C                     0.118010
     13 C                     0.149317
     14 C                    -0.629412
     15 C                    -0.453824
     16 C                    -0.453824
     17 C                    -0.453824
     18 H                     0.309220
     19 H                     0.109401
     20 H                     0.132303
     21 H                     0.132303
     22 H                     0.132303
     23 H                     0.132303
     24 H                     0.136113
     25 H                     0.136113
     26 H                     0.111649
     27 H                     0.111649
     28 H                     0.070819
     29 H                     0.070819
     30 H                     0.082353
     31 H                     0.082353
     32 H                     0.055004
     33 H                     0.055004
     34 H                     0.004675
     35 H                     0.004675
     36 H                     0.022279
     37 H                     0.022279
     38 H                     0.022279
     39 H                     0.022279
     40 H                     0.007731
     41 H                     0.007731
     42 H                     0.151834
     43 H                     0.151834
     44 H                     0.151834
     45 H                     0.112958
     46 H                     0.112958
     47 H                     0.112958
     48 H                     0.112994
     49 H                     0.112994
     50 H                     0.112994
     51 H                     0.110811
     52 H                     0.110811
     53 H                     0.110811
     54 O                    -0.976766
     55 H                     0.089774
     56 C                    -0.226628
     57 C                     0.342843
     58 C                    -0.528798
     59 H                     0.166850
     60 C                    -0.264063
     61 H                     0.150383
     62 C                     0.657658
     63 C                    -0.573589
     64 O                    -1.024462
     65 H                     0.210233
  ----------------------------------------
  Sum of atomic charges =    -1.000000

  Related Dipole Moment =    43.5571 (X -9.6213 Y 38.4637 Z 18.0330)

 -----------------------------------------------------------------
                    Cartesian Multipole Moments
 -----------------------------------------------------------------
    Charge (ESU x 10^10)
                -4.8032
    Dipole Moment (Debye)
         X      -9.6151      Y      38.6225      Z      18.1547
       Tot      43.7463
    Quadrupole Moments (Debye-Ang)
        XX    -193.3006     XY      16.8011     YY    -362.2175
        XZ      25.3887     YZ     -78.5947     ZZ    -199.0599
    Octopole Moments (Debye-Ang^2)
       XXX    -378.5418    XXY     305.7256    XYY     -91.9412
       YYY    1865.3903    XXZ     229.7739    XYZ     -54.0433
       YYZ     543.8614    XZZ    -162.0431    YZZ     378.2605
       ZZZ     498.0515
    Hexadecapole Moments (Debye-Ang^3)
      XXXX   -5946.2307   XXXY     551.5776   XXYY   -2590.4644
      XYYY     101.6228   YYYY  -15973.9860   XXXZ     554.8429
      XXYZ    -654.5905   XYYZ     151.9177   YYYZ   -3759.2165
      XXZZ   -1817.5070   XYZZ     235.0386   YYZZ   -2901.3932
      XZZZ     488.9031   YZZZ   -1689.6354   ZZZZ   -4219.8420
 -----------------------------------------------------------------
 Total job time:  21072.80s(wall), 434759.94s(cpu) 
 Sat May 21 20:48:20 2022

        *************************************************************
        *                                                           *
        *  Thank you very much for using Q-Chem.  Have a nice day.  *
        *                                                           *
        *************************************************************


