
Running Job 1 of 1 mol.qin
qchem mol.qin_76125.0 /tmp/scratch/ 0
/clusterfs/mp/software/qchem5.4/exe/qcprog.exe_s mol.qin_76125.0 /tmp/scratch/
                  Welcome to Q-Chem
     A Quantum Leap Into The Future Of Chemistry


 Q-Chem 5.4, Q-Chem, Inc., Pleasanton, CA (2021)

 E. Epifanovsky,  A. T. B. Gilbert,  Xintian Feng,  Joonho Lee,  Yuezhi Mao,  
 N. Mardirossian,  P. Pokhilko,  A. White,  M. Wormit,  M. P. Coons,  
 A. L. Dempwolff,  Zhengting Gan,  D. Hait,  P. R. Horn,  L. D. Jacobson,  
 I. Kaliman,  J. Kussmann,  A. W. Lange,  Ka Un Lao,  D. S. Levine,  Jie Liu,  
 S. C. McKenzie,  A. F. Morrison,  K. Nanda,  F. Plasser,  D. R. Rehn,  
 M. L. Vidal,  Zhi-Qiang You,  Ying Zhu,  B. Alam,  B. Albrecht,  
 A. Aldossary,  E. Alguire,  J. H. Andersen,  D. Barton,  K. Begam,  A. Behn,  
 Y. A. Bernard,  E. J. Berquist,  H. Burton,  A. Carreras,  K. Carter-Fenk,  
 Romit Chakraborty,  A. D. Chien,  K. D. Closser,  V. Cofer-Shabica,  
 S. Dasgupta,  Jia Deng,  M. de Wergifosse,  M. Diedenhofen,  Hainam Do,  
 S. Ehlert,  Po-Tung Fang,  S. Fatehi,  Qingguo Feng,  T. Friedhoff,  
 J. Gayvert,  Qinghui Ge,  G. Gidofalvi,  M. Goldey,  J. Gomes,  
 C. Gonzalez-Espinoza,  S. Gulania,  A. Gunina,  M. W. D. Hanson-Heine,  
 P. H. P. Harbach,  A. W. Hauser,  M. F. Herbst,  M. Hernandez Vera,  
 M. Hodecker,  Z. C. Holden,  S. Houck,  Xunkun Huang,  Kerwin Hui,  
 B. C. Huynh,  M. Ivanov,  Hyunjun Ji,  Hanjie Jiang,  B. Kaduk,  S. Kaehler,  
 K. Khistyaev,  Jaehoon Kim,  P. Klunzinger,  Z. Koczor-Benda,  
 Joong Hoon Koh,  D. Kosenkov,  L. Koulias,  T. Kowalczyk,  C. M. Krauter,  
 K. Kue,  A. Kunitsa,  T. Kus,  A. Landau,  K. V. Lawler,  D. Lefrancois,  
 S. Lehtola,  Rain Li,  Yi-Pei Li,  Jiashu Liang,  M. Liebenthal,  
 Hung-Hsuan Lin,  You-Sheng Lin,  Fenglai Liu,  Kuan-Yu Liu,  
 M. Loipersberger,  A. Luenser,  A. Manjanath,  P. Manohar,  E. Mansoor,  
 S. F. Manzer,  Shan-Ping Mao,  A. V. Marenich,  T. Markovich,  S. Mason,  
 S. A. Maurer,  P. F. McLaughlin,  M. F. S. J. Menger,  J.-M. Mewes,  
 S. A. Mewes,  P. Morgante,  J. W. Mullinax,  K. J. Oosterbaan,  G. Paran,  
 Alexander C. Paul,  Suranjan K. Paul,  F. Pavosevic,  Zheng Pei,  S. Prager,  
 E. I. Proynov,  E. Ramos,  B. Rana,  A. E. Rask,  A. Rettig,  R. M. Richard,  
 F. Rob,  E. Rossomme,  T. Scheele,  M. Scheurer,  M. Schneider,  
 N. Sergueev,  S. M. Sharada,  W. Skomorowski,  D. W. Small,  C. J. Stein,  
 Yu-Chuan Su,  E. J. Sundstrom,  Zhen Tao,  J. Thirman,  T. Tsuchimochi,  
 N. M. Tubman,  S. P. Veccham,  O. Vydrov,  J. Wenzel,  J. Witte,  A. Yamada,  
 Kun Yao,  S. Yeganeh,  S. R. Yost,  A. Zech,  Igor Ying Zhang,  Xing Zhang,  
 Yu Zhang,  D. Zuev,  A. Aspuru-Guzik,  A. T. Bell,  N. A. Besley,  
 K. B. Bravaya,  B. R. Brooks,  D. Casanova,  Jeng-Da Chai,  S. Coriani,  
 C. J. Cramer,  A. E. DePrince, III,  R. A. DiStasio Jr.,  A. Dreuw,  
 B. D. Dunietz,  T. R. Furlani,  W. A. Goddard III,  S. Grimme,  
 S. Hammes-Schiffer,  T. Head-Gordon,  W. J. Hehre,  Chao-Ping Hsu,  
 T.-C. Jagau,  Yousung Jung,  A. Klamt,  Jing Kong,  D. S. Lambrecht,  
 WanZhen Liang,  N. J. Mayhall,  C. W. McCurdy,  J. B. Neaton,  T. Neudecker,  
 C. Ochsenfeld,  J. A. Parkhill,  R. Peverati,  V. A. Rassolov,  Yihan Shao,  
 L. V. Slipchenko,  R. P. Steele,  J. E. Subotnik,  A. J. W. Thom,  
 A. Tkatchenko,  D. G. Truhlar,  T. Van Voorhis,  T. A. Wesolowski,  
 K. B. Whaley,  H. L. Woodcock III,  P. M. Zimmerman,  S. Faraji,  
 P. M. W. Gill,  M. Head-Gordon,  J. M. Herbert,  A. I. Krylov

 Additional authors since Version 5.4.0: 
 Chandrima Chakravarty,  L. Cunha,  R. Kang,  Yongbin Kim,  S. Kotaru,  
 Shaozhi Li,  Xiangyuan Li,  F. Matz,  A. Molle,  V. Parravicini,  
 Haisheng Ren,  Hengyuan Shen,  Yingli Su,  Hung-Yi Tsai,  C. Utku,  
 Fang Wang,  Jeff Yang,  F. Zeller

 Contributors to earlier versions of Q-Chem not listed above: 
 R. D. Adamson,  B. Austin,  R. Baer,  J. Baker,  G. J. O. Beran,  
 K. Brandhorst,  S. T. Brown,  E. F. C. Byrd,  Arup K. Chakraborty,  
 G. K. L. Chan,  Chun-Min Chang,  Yunqing Chen,  C.-L. Cheng,  
 Siu Hung Chien,  D. M. Chipman,  D. L. Crittenden,  H. Dachsel,  
 R. J. Doerksen,  A. D. Dutoi,  R. G. Edgar,  J. Fosso-Tande,  
 L. Fusti-Molnar,  D. Ghosh,  A. Ghysels,  A. Golubeva-Zadorozhnaya,  
 J. Gonthier,  M. S. Gordon,  S. R. Gwaltney,  G. Hawkins,  J. E. Herr,  
 A. Heyden,  S. Hirata,  E. G. Hohenstein,  G. Kedziora,  F. J. Keil,  
 C. Kelley,  Jihan Kim,  R. A. King,  R. Z. Khaliullin,  P. P. Korambath,  
 W. Kurlancheek,  A. Laurent,  A. M. Lee,  M. S. Lee,  S. V. Levchenko,  
 Ching Yeh Lin,  D. Liotard,  E. Livshits,  R. C. Lochan,  I. Lotan,  
 L. A. Martinez-Martinez,  P. E. Maslen,  N. Nair,  D. P. O'Neill,  
 D. Neuhauser,  E. Neuscamman,  C. M. Oana,  R. Olivares-Amaya,  R. Olson,  
 T. M. Perrine,  B. Peters,  P. A. Pieniazek,  A. Prociuk,  Y. M. Rhee,  
 J. Ritchie,  M. A. Rohrdanz,  E. Rosta,  N. J. Russ,  H. F. Schaefer III,  
 M. W. Schmidt,  N. E. Schultz,  S. Sharma,  N. Shenvi,  C. D. Sherrill,  
 A. C. Simmonett,  A. Sodt,  T. Stein,  D. Stuck,  K. S. Thanthiriwatte,  
 V. Vanovschi,  L. Vogt,  Tao Wang,  A. Warshel,  M. A. Watson,  
 C. F. Williams,  Q. Wu,  X. Xu,  Jun Yang,  W. Zhang,  Yan Zhao

   Please cite Q-Chem as follows:
  "Software for the frontiers of quantum chemistry:
   An overview of developments in the Q-Chem 5 package"
   J. Chem. Phys. 155, 084801 (2021)
   https://doi.org/10.1063/5.0055522 (open access)

 Q-Chem 5.4.2 for Intel X86 EM64T Linux

 Parts of Q-Chem use Armadillo 9.900.5 (Nocturnal Misbehaviour).
 http://arma.sourceforge.net/

 Q-Chem begins on Tue May 31 03:37:31 2022  

 Host: 
0

     Scratch files written to /tmp/scratch//
 Dec1321 |scratch|qcdevops|jenkins|workspace|build_RNUM 7600   
 Processing $rem in /clusterfs/mp/software/qchem5.4/config/preferences:
 Processing $rem in /global/home/users/smblau/.qchemrc:
 Symmetry turned off for PCM/SM12/SMD calculation

 Checking the input file for inconsistencies... 	...done.

--------------------------------------------------------------
User input:
--------------------------------------------------------------
$molecule
1 1
N      0.2766661829      0.1204983345     -0.1783306171
C      1.3150217063     -0.8181827186      0.3815153873
C     -0.7309450261      0.4354298679      0.9026949441
C     -0.3833124961     -0.5385221854     -1.3665813592
C      0.9114366411      1.4125676592     -0.6471978398
C      2.1246706029     -0.2977951372      1.5567828716
C     -1.9840827222      1.1654609448      0.4495500262
C     -1.1353551152     -1.8293486341     -1.0837811992
C      2.1480392787      1.2650345077     -1.5192064489
C      3.2444565494     -1.2878050242      1.8809403012
C     -2.8396637848      1.5356857909      1.6615613102
C     -1.9427147749     -2.2450218088     -2.3133766061
C      2.5772569774      2.6289546278     -2.0598011654
C      4.0769073305     -0.8556441358      3.0817499316
C     -4.1373863411      2.2284797323      1.2640460657
C     -2.6888165152     -3.5553422132     -2.1004942622
C      3.8309317910      2.5364389722     -2.9216071920
H      1.9746394972     -1.0726815980     -0.4531283543
H      0.7822916556     -1.7254366130      0.6818481879
H     -0.1988598383      1.0348303514      1.6473944633
H     -0.9953310032     -0.5158817898      1.3763311561
H      0.4091431576     -0.7213383922     -2.0979012084
H     -1.0561443248      0.2083272921     -1.7982831617
H      1.1473300012      1.9935835616      0.2499711296
H      0.1327574948      1.9537529944     -1.1930706559
H      1.4865250038     -0.1738186378      2.4415391790
H      2.5683745951      0.6823570627      1.3353874119
H     -2.5791205694      0.5342636144     -0.2244094784
H     -1.7281013083      2.0810330860     -0.1011632568
H     -1.8202012783     -1.7155309801     -0.2330052969
H     -0.4384167066     -2.6366085386     -0.8194878359
H      1.9604032586      0.5889558177     -2.3637428537
H      2.9789970965      0.8343211201     -0.9445731996
H      3.8946874283     -1.3956640986      0.9986461738
H      2.8063815510     -2.2796127861      2.0735971912
H     -2.2564584165      2.1886658577      2.3283625825
H     -3.0656625488      0.6244881760      2.2365453820
H     -1.2707583775     -2.3330993319     -3.1803364655
H     -2.6587956135     -1.4464197761     -2.5581195229
H      2.7550263445      3.3146646639     -1.2172929213
H      1.7527026000      3.0619751751     -2.6460694024
H      3.4523845024     -0.7714317010      3.9823673846
H      4.5461031936      0.1223841508      2.9038625518
H      4.8735205919     -1.5811622944      3.2894887733
H     -4.7506133772      1.5775861821      0.6244521482
H     -3.9346276129      3.1539072645      0.7060609050
H     -4.7319725164      2.4901775778      2.1487084020
H     -3.3996917644     -3.4703136628     -1.2665290904
H     -1.9961748265     -4.3743450918     -1.8623848296
H     -3.2485974315     -3.8423620138     -2.9990028859
H      3.6625078112      1.8825728904     -3.7893584651
H      4.6729169587      2.1227759956     -2.3481961136
H      4.1283269244      3.5249794821     -3.2944185921
O      2.6046499313     -2.1540546617     -2.4913248505
H      2.8913864510     -3.4680027343     -0.2615995078
C      2.2070898449     -3.9189418912     -0.9806024246
C      2.0477757154     -3.2179887961     -2.2803960467
C      1.5230665985     -5.0374746994     -0.7104776310
H      1.6089341546     -5.5589352596      0.2428696100
C      1.1590539827     -3.8323549612     -3.2969251132
H      1.0810299385     -3.3137411904     -4.2525248505
C      0.5989602204     -5.6301088444     -1.7132101229
C      0.4789571715     -4.9548207597     -3.0317641872
O     -0.0434917944     -6.6317629442     -1.4577174009
H     -0.1957558786     -5.4138218404     -3.7537705235
C     -2.2780967181     -7.8001449286     -2.9418682540
O     -2.3397236217     -6.8792625550     -3.6440497513
O     -2.2327084328     -8.7328875250     -2.2563225261
$end

$rem
job_type = freq
basis = def2-svpd
max_scf_cycles = 100
gen_scfman = true
xc_grid = 3
thresh = 14
s2thresh = 16
resp_charges = true
symmetry = false
sym_ignore = true
method = wb97xd
geom_opt_max_cycles = 200
solvent_method = pcm
gen_scfman_hybrid_algo = true
gen_scfman_algo_1 = gdm
gen_scfman_conv_1 = 4
gen_scfman_iter_1 = 50
gen_scfman_algo_2 = diis
gen_scfman_conv_2 = 8
gen_scfman_iter_2 = 50
$end

$pcm
heavypoints 194
hpoints 194
radii uff
theory cpcm
vdwscale 1.1
$end

$solvent
dielectric 38.88
$end
--------------------------------------------------------------
 ----------------------------------------------------------------
             Standard Nuclear Orientation (Angstroms)
    I     Atom           X                Y                Z
 ----------------------------------------------------------------
    1      N       0.2766661829     0.1204983345    -0.1783306171
    2      C       1.3150217063    -0.8181827186     0.3815153873
    3      C      -0.7309450261     0.4354298679     0.9026949441
    4      C      -0.3833124961    -0.5385221854    -1.3665813592
    5      C       0.9114366411     1.4125676592    -0.6471978398
    6      C       2.1246706029    -0.2977951372     1.5567828716
    7      C      -1.9840827222     1.1654609448     0.4495500262
    8      C      -1.1353551152    -1.8293486341    -1.0837811992
    9      C       2.1480392787     1.2650345077    -1.5192064489
   10      C       3.2444565494    -1.2878050242     1.8809403012
   11      C      -2.8396637848     1.5356857909     1.6615613102
   12      C      -1.9427147749    -2.2450218088    -2.3133766061
   13      C       2.5772569774     2.6289546278    -2.0598011654
   14      C       4.0769073305    -0.8556441358     3.0817499316
   15      C      -4.1373863411     2.2284797323     1.2640460657
   16      C      -2.6888165152    -3.5553422132    -2.1004942622
   17      C       3.8309317910     2.5364389722    -2.9216071920
   18      H       1.9746394972    -1.0726815980    -0.4531283543
   19      H       0.7822916556    -1.7254366130     0.6818481879
   20      H      -0.1988598383     1.0348303514     1.6473944633
   21      H      -0.9953310032    -0.5158817898     1.3763311561
   22      H       0.4091431576    -0.7213383922    -2.0979012084
   23      H      -1.0561443248     0.2083272921    -1.7982831617
   24      H       1.1473300012     1.9935835616     0.2499711296
   25      H       0.1327574948     1.9537529944    -1.1930706559
   26      H       1.4865250038    -0.1738186378     2.4415391790
   27      H       2.5683745951     0.6823570627     1.3353874119
   28      H      -2.5791205694     0.5342636144    -0.2244094784
   29      H      -1.7281013083     2.0810330860    -0.1011632568
   30      H      -1.8202012783    -1.7155309801    -0.2330052969
   31      H      -0.4384167066    -2.6366085386    -0.8194878359
   32      H       1.9604032586     0.5889558177    -2.3637428537
   33      H       2.9789970965     0.8343211201    -0.9445731996
   34      H       3.8946874283    -1.3956640986     0.9986461738
   35      H       2.8063815510    -2.2796127861     2.0735971912
   36      H      -2.2564584165     2.1886658577     2.3283625825
   37      H      -3.0656625488     0.6244881760     2.2365453820
   38      H      -1.2707583775    -2.3330993319    -3.1803364655
   39      H      -2.6587956135    -1.4464197761    -2.5581195229
   40      H       2.7550263445     3.3146646639    -1.2172929213
   41      H       1.7527026000     3.0619751751    -2.6460694024
   42      H       3.4523845024    -0.7714317010     3.9823673846
   43      H       4.5461031936     0.1223841508     2.9038625518
   44      H       4.8735205919    -1.5811622944     3.2894887733
   45      H      -4.7506133772     1.5775861821     0.6244521482
   46      H      -3.9346276129     3.1539072645     0.7060609050
   47      H      -4.7319725164     2.4901775778     2.1487084020
   48      H      -3.3996917644    -3.4703136628    -1.2665290904
   49      H      -1.9961748265    -4.3743450918    -1.8623848296
   50      H      -3.2485974315    -3.8423620138    -2.9990028859
   51      H       3.6625078112     1.8825728904    -3.7893584651
   52      H       4.6729169587     2.1227759956    -2.3481961136
   53      H       4.1283269244     3.5249794821    -3.2944185921
   54      O       2.6046499313    -2.1540546617    -2.4913248505
   55      H       2.8913864510    -3.4680027343    -0.2615995078
   56      C       2.2070898449    -3.9189418912    -0.9806024246
   57      C       2.0477757154    -3.2179887961    -2.2803960467
   58      C       1.5230665985    -5.0374746994    -0.7104776310
   59      H       1.6089341546    -5.5589352596     0.2428696100
   60      C       1.1590539827    -3.8323549612    -3.2969251132
   61      H       1.0810299385    -3.3137411904    -4.2525248505
   62      C       0.5989602204    -5.6301088444    -1.7132101229
   63      C       0.4789571715    -4.9548207597    -3.0317641872
   64      O      -0.0434917944    -6.6317629442    -1.4577174009
   65      H      -0.1957558786    -5.4138218404    -3.7537705235
   66      C      -2.2780967181    -7.8001449286    -2.9418682540
   67      O      -2.3397236217    -6.8792625550    -3.6440497513
   68      O      -2.2327084328    -8.7328875250    -2.2563225261
 ----------------------------------------------------------------
 Nuclear Repulsion Energy =        2792.41887602 hartrees
 There are      108 alpha and      108 beta electrons
 Requested basis set is def2-SVPD
 There are 388 shells and 892 basis functions

 Total QAlloc Memory Limit  96000 MB
 Mega-Array Size       188 MB
 MEM_STATIC part       192 MB
 Discretize the solute cavity surface with Lebedev spheres
	Using 194 Lebedev grid points for each H atom
	Using 194 Lebedev grid points for other atoms
	Atomic van der Waals radii will be scaled by 1.10
 Remove points where switching function is < 1.0e-08
 Keep 4706 surface tesserae and discard 8486 interior tesserae
 Molecular Surface Area = 542.176 Angst**2
 A cutoff of  1.0D-16 yielded  62869 shell pairs
 There are    329123 function pairs (    371343 Cartesian)
 Smallest overlap matrix eigenvalue = 5.86E-06
 Guess from superposition of atomic densities
 Warning:  Energy on first SCF cycle will be non-variational
 SAD guess density has 217.000000 electrons

 -----------------------------------------------------------------------
  General SCF calculation program by
  Eric Jon Sundstrom, Paul Horn, Yuezhi Mao, Dmitri Zuev, Alec White,
  David Stuck, Shaama M.S., Shane Yost, Joonho Lee, David Small,
  Daniel Levine, Susi Lehtola, Hugh Burton, Evgeny Epifanovsky,
  Bang C. Huynh
 -----------------------------------------------------------------------
 Exchange:     0.2220 Hartree-Fock + 1.0000 wB97X-D + LR-HF
 Correlation:  1.0000 wB97X-D
 Using SG-3 standard quadrature grid
 Dispersion:   Grimme D
 using 40 threads for integral computing
 -------------------------------------------------------
 OpenMP Integral computing Module                
 Release: version 1.0, May 2013, Q-Chem Inc. Pittsburgh 
 -------------------------------------------------------
 A restricted SCF calculation will be
 performed using Roothaan-Hall, GDM, DIIS
 SCF converges when DIIS error is below 1.0e-08
 ---------------------------------------
  Cycle       Energy         DIIS error
 ---------------------------------------
    1   -1262.4533692765      2.05e-02  Roothaan Step
 ---------------------------------------
  Cycle       Energy        RMS Gradient
 ---------------------------------------
    1   -1254.4210610272      1.82e-01   Descent step
    2   -1254.7965229733      2.97e-02   Normal BFGS step
    3   -1254.8391356387      3.37e-02   Normal BFGS step
    4   -1254.8480247849      1.92e-02   Normal BFGS step
    5   -1254.8500554582      4.60e-03   Normal BFGS step
    6   -1254.8503412072      2.13e-03   Normal BFGS step
    7   -1254.8504283293      2.37e-04   Normal BFGS step
    8   -1254.8504296493      1.61e-04   Normal BFGS step
    9   -1254.8504301308      1.02e-04   Normal BFGS step
   10   -1254.8504302184      7.42e-05  Done GDM. Switching to DIIS
 ---------------------------------------
  Cycle       Energy         DIIS error
 ---------------------------------------
    1   -1254.8504302184      1.30e-07  
    2   -1254.8504300703      1.33e-07  
    3   -1254.8504305072      2.87e-08  
    4   -1254.8504301646      9.11e-09  Convergence criterion met
 ---------------------------------------
 SCF time:   CPU 26347.37s  wall 1416.00s 

************** Final PCM Free Energy Summary **************
 G_electrostatic  =      -0.07322072 hartree =     -45.94669293 kcal/mol
 G_cavitation     =       0.00000000 hartree =       0.00000000 kcal/mol
 G_dispersion     =       0.00000000 hartree =       0.00000000 kcal/mol
 G_repulsion      =       0.00000000 hartree =       0.00000000 kcal/mol
 --------------------------------------------------
 Non-electrostatic Free Energy =       0.00000000 hartree =       0.00000000 kcal/mol
 Total                         =      -0.07322072 hartree =     -45.94669293 kcal/mol
 --------------------------------------------------
 SCF Energy (H0 + V/2)                       =   -1254.85043016 
 Solute Internal Energy (H0)                 =   -1254.77720945 
 Total Free Energy (H0 + V/2 + non-elec)     =   -1254.85043016 hartree
                                             = -787430.52961674 kcal/mol
***********************************************************

 SCF   energy in the final basis set =    -1254.8504301646
 Total energy in the final basis set =    -1254.8504301646
 
 --------------------------------------------------------------
 
                    Orbital Energies (a.u.)
 --------------------------------------------------------------
 
 Alpha MOs
 -- Occupied --
-19.3465 -19.3462 -19.2983 -19.2963 -14.5930 -10.4995 -10.4313 -10.4293
-10.3671 -10.3663 -10.3662 -10.3649 -10.3518 -10.3509 -10.3502 -10.3494
-10.3215 -10.3180 -10.3177 -10.3165 -10.3088 -10.3087 -10.3065 -10.3060
-10.2943 -10.2932 -10.2926 -10.2923  -1.2578  -1.2172  -1.1771  -1.1744
 -1.1300  -0.9691  -0.9283  -0.9220  -0.9209  -0.9025  -0.8968  -0.8534
 -0.8525  -0.8494  -0.8104  -0.8091  -0.7681  -0.7670  -0.7464  -0.7453
 -0.7088  -0.6966  -0.6925  -0.6900  -0.6890  -0.6778  -0.6543  -0.6379
 -0.6266  -0.6186  -0.6164  -0.6152  -0.6145  -0.6136  -0.6098  -0.6026
 -0.5869  -0.5841  -0.5732  -0.5683  -0.5592  -0.5519  -0.5465  -0.5401
 -0.5354  -0.5282  -0.5259  -0.5248  -0.5218  -0.5176  -0.5163  -0.5116
 -0.5092  -0.5016  -0.5004  -0.4897  -0.4796  -0.4788  -0.4696  -0.4640
 -0.4630  -0.4584  -0.4574  -0.4494  -0.4440  -0.4400  -0.4391  -0.4352
 -0.4346  -0.4290  -0.4269  -0.4267  -0.4238  -0.4209  -0.4200  -0.4177
 -0.4007  -0.3939  -0.3888  -0.3744
 -- Virtual --
 -0.0823   0.0294   0.0572   0.0647   0.0769   0.0826   0.0827   0.0880
  0.1007   0.1020   0.1026   0.1066   0.1082   0.1090   0.1128   0.1145
  0.1190   0.1223   0.1251   0.1263   0.1298   0.1386   0.1395   0.1428
  0.1454   0.1462   0.1525   0.1546   0.1572   0.1607   0.1627   0.1677
  0.1712   0.1736   0.1747   0.1778   0.1798   0.1813   0.1826   0.1857
  0.1880   0.1896   0.1916   0.1944   0.1965   0.1989   0.1996   0.2008
  0.2025   0.2070   0.2073   0.2106   0.2133   0.2145   0.2179   0.2201
  0.2235   0.2253   0.2269   0.2293   0.2324   0.2349   0.2380   0.2385
  0.2402   0.2438   0.2469   0.2476   0.2504   0.2529   0.2551   0.2562
  0.2596   0.2605   0.2626   0.2666   0.2710   0.2721   0.2732   0.2765
  0.2789   0.2795   0.2823   0.2860   0.2875   0.2907   0.2921   0.2926
  0.2986   0.3018   0.3037   0.3075   0.3087   0.3092   0.3101   0.3163
  0.3176   0.3224   0.3253   0.3267   0.3308   0.3324   0.3365   0.3404
  0.3430   0.3444   0.3496   0.3528   0.3545   0.3593   0.3594   0.3627
  0.3656   0.3677   0.3705   0.3722   0.3744   0.3771   0.3797   0.3812
  0.3835   0.3867   0.3892   0.3903   0.3941   0.3973   0.3977   0.4004
  0.4015   0.4017   0.4068   0.4075   0.4102   0.4118   0.4141   0.4156
  0.4173   0.4179   0.4192   0.4218   0.4225   0.4238   0.4275   0.4276
  0.4294   0.4313   0.4326   0.4367   0.4409   0.4430   0.4442   0.4452
  0.4467   0.4489   0.4508   0.4513   0.4517   0.4533   0.4551   0.4568
  0.4587   0.4616   0.4636   0.4661   0.4677   0.4708   0.4741   0.4762
  0.4767   0.4790   0.4800   0.4821   0.4839   0.4846   0.4865   0.4885
  0.4899   0.4921   0.4933   0.4949   0.4970   0.5006   0.5032   0.5052
  0.5062   0.5126   0.5144   0.5156   0.5192   0.5209   0.5231   0.5236
  0.5265   0.5270   0.5293   0.5305   0.5329   0.5358   0.5386   0.5422
  0.5462   0.5479   0.5486   0.5534   0.5565   0.5569   0.5591   0.5602
  0.5620   0.5630   0.5665   0.5675   0.5709   0.5724   0.5757   0.5777
  0.5788   0.5800   0.5839   0.5874   0.5909   0.5931   0.5955   0.5967
  0.5984   0.6017   0.6026   0.6057   0.6079   0.6091   0.6120   0.6135
  0.6161   0.6190   0.6201   0.6232   0.6248   0.6266   0.6283   0.6313
  0.6335   0.6355   0.6381   0.6388   0.6431   0.6444   0.6456   0.6498
  0.6504   0.6529   0.6573   0.6601   0.6624   0.6638   0.6658   0.6681
  0.6721   0.6744   0.6760   0.6793   0.6799   0.6846   0.6869   0.6885
  0.6916   0.6977   0.6998   0.7020   0.7031   0.7056   0.7068   0.7080
  0.7116   0.7134   0.7159   0.7180   0.7235   0.7263   0.7282   0.7304
  0.7320   0.7356   0.7366   0.7397   0.7417   0.7452   0.7485   0.7521
  0.7551   0.7571   0.7606   0.7623   0.7645   0.7667   0.7708   0.7730
  0.7780   0.7794   0.7812   0.7817   0.7882   0.7924   0.7929   0.7958
  0.8004   0.8023   0.8050   0.8084   0.8107   0.8149   0.8185   0.8220
  0.8231   0.8278   0.8296   0.8308   0.8339   0.8411   0.8417   0.8453
  0.8482   0.8509   0.8530   0.8587   0.8623   0.8631   0.8695   0.8724
  0.8735   0.8765   0.8860   0.8866   0.8871   0.8933   0.8964   0.8975
  0.9011   0.9046   0.9087   0.9122   0.9170   0.9186   0.9202   0.9234
  0.9256   0.9321   0.9330   0.9367   0.9406   0.9456   0.9472   0.9530
  0.9582   0.9617   0.9669   0.9753   0.9770   0.9823   0.9842   0.9870
  0.9920   0.9981   1.0043   1.0080   1.0106   1.0126   1.0278   1.0304
  1.0333   1.0362   1.0379   1.0429   1.0503   1.0509   1.0566   1.0629
  1.0672   1.0708   1.0730   1.0799   1.0849   1.0901   1.0928   1.0967
  1.0985   1.1010   1.1060   1.1095   1.1120   1.1129   1.1199   1.1209
  1.1220   1.1293   1.1330   1.1380   1.1417   1.1447   1.1460   1.1490
  1.1517   1.1567   1.1588   1.1621   1.1670   1.1732   1.1775   1.1799
  1.1832   1.1910   1.1968   1.2016   1.2048   1.2093   1.2146   1.2209
  1.2276   1.2307   1.2339   1.2385   1.2435   1.2495   1.2526   1.2600
  1.2686   1.2729   1.2736   1.2785   1.2909   1.2940   1.2968   1.3015
  1.3127   1.3180   1.3265   1.3278   1.3303   1.3358   1.3416   1.3469
  1.3472   1.3557   1.3601   1.3639   1.3666   1.3711   1.3827   1.3857
  1.3903   1.3954   1.3986   1.4098   1.4141   1.4175   1.4255   1.4271
  1.4349   1.4364   1.4395   1.4460   1.4524   1.4619   1.4637   1.4703
  1.4834   1.4849   1.4877   1.4943   1.4979   1.5124   1.5138   1.5238
  1.5253   1.5311   1.5321   1.5400   1.5445   1.5485   1.5546   1.5570
  1.5616   1.5647   1.5669   1.5696   1.5785   1.5880   1.5938   1.5993
  1.6071   1.6141   1.6203   1.6210   1.6278   1.6389   1.6454   1.6499
  1.6571   1.6630   1.6658   1.6741   1.6844   1.6923   1.6945   1.7026
  1.7151   1.7217   1.7252   1.7255   1.7289   1.7464   1.7517   1.7602
  1.7632   1.7700   1.7732   1.7830   1.7859   1.7872   1.7932   1.7963
  1.7996   1.8092   1.8149   1.8260   1.8317   1.8333   1.8373   1.8469
  1.8487   1.8494   1.8571   1.8662   1.8710   1.8733   1.8743   1.8782
  1.8799   1.8858   1.8905   1.8987   1.9056   1.9088   1.9115   1.9136
  1.9206   1.9251   1.9272   1.9358   1.9427   1.9446   1.9503   1.9553
  1.9613   1.9641   1.9719   1.9768   1.9771   1.9830   1.9861   1.9888
  1.9940   1.9975   2.0018   2.0042   2.0100   2.0131   2.0173   2.0227
  2.0281   2.0319   2.0356   2.0418   2.0431   2.0475   2.0489   2.0545
  2.0576   2.0596   2.0682   2.0738   2.0775   2.0830   2.0887   2.0918
  2.1002   2.1016   2.1074   2.1117   2.1167   2.1198   2.1263   2.1297
  2.1383   2.1393   2.1469   2.1495   2.1532   2.1566   2.1594   2.1608
  2.1676   2.1717   2.1801   2.1853   2.1874   2.1913   2.2012   2.2051
  2.2085   2.2147   2.2246   2.2327   2.2441   2.2455   2.2531   2.2585
  2.2692   2.2779   2.2806   2.2913   2.2968   2.2986   2.3131   2.3195
  2.3226   2.3266   2.3317   2.3378   2.3443   2.3452   2.3555   2.3612
  2.3637   2.3706   2.3708   2.3799   2.3841   2.3916   2.3969   2.4010
  2.4063   2.4095   2.4159   2.4237   2.4278   2.4349   2.4461   2.4532
  2.4581   2.4628   2.4721   2.4813   2.4884   2.4950   2.4998   2.5171
  2.5223   2.5271   2.5365   2.5448   2.5559   2.5631   2.5694   2.5729
  2.5781   2.5849   2.5906   2.5952   2.6126   2.6173   2.6232   2.6318
  2.6388   2.6451   2.6497   2.6536   2.6552   2.6644   2.6760   2.6765
  2.6860   2.6955   2.7016   2.7122   2.7187   2.7281   2.7332   2.7370
  2.7398   2.7502   2.7525   2.7582   2.7626   2.7687   2.7756   2.7825
  2.7900   2.7989   2.8015   2.8049   2.8169   2.8248   2.8339   2.8415
  2.8422   2.8493   2.8779   2.8957   2.8999   2.9061   2.9132   2.9203
  2.9278   2.9306   2.9358   2.9422   2.9475   2.9535   2.9627   2.9703
  2.9769   2.9803   2.9878   2.9993   3.0071   3.0087   3.0121   3.0182
  3.0301   3.0366   3.0480   3.0531   3.0790   3.0829   3.1135   3.1198
  3.1209   3.1352   3.1397   3.1440   3.1597   3.1622   3.1684   3.1807
  3.1851   3.1912   3.2034   3.2074   3.2223   3.2321   3.2453   3.2564
  3.2653   3.2702   3.2716   3.2792   3.2869   3.2906   3.2989   3.3100
  3.3206   3.3238   3.3349   3.3457   3.3532   3.3569   3.3650   3.3843
  3.3889   3.4118   3.4405   3.4466   3.5111   3.5174   3.5316   3.5797
  3.5905   3.6260   3.7081   3.7194   3.8003   3.9226   3.9561   4.2224
 --------------------------------------------------------------
 
          Ground-State Mulliken Net Atomic Charges

     Atom                 Charge (a.u.)
  ----------------------------------------
      1 N                    -2.412882
      2 C                    -0.025223
      3 C                     0.184830
      4 C                     0.633854
      5 C                     0.398777
      6 C                     0.373152
      7 C                     0.217002
      8 C                     0.169084
      9 C                    -0.111056
     10 C                    -0.174890
     11 C                    -0.117107
     12 C                    -0.074019
     13 C                     0.051831
     14 C                     0.762978
     15 C                     0.607189
     16 C                     1.121170
     17 C                     0.614778
     18 H                    -0.411808
     19 H                    -0.242567
     20 H                    -0.189181
     21 H                     0.005064
     22 H                    -0.310375
     23 H                    -0.272074
     24 H                    -0.077867
     25 H                    -0.251371
     26 H                     0.050576
     27 H                    -0.137243
     28 H                    -0.007183
     29 H                     0.103897
     30 H                    -0.070744
     31 H                     0.060107
     32 H                    -0.010793
     33 H                     0.024479
     34 H                     0.099372
     35 H                     0.075697
     36 H                     0.011818
     37 H                     0.053815
     38 H                    -0.017683
     39 H                     0.001076
     40 H                     0.017361
     41 H                    -0.011656
     42 H                     0.106246
     43 H                     0.091189
     44 H                    -0.012171
     45 H                     0.079119
     46 H                     0.088242
     47 H                     0.002816
     48 H                     0.146028
     49 H                    -0.420964
     50 H                     0.073649
     51 H                     0.101852
     52 H                     0.083694
     53 H                    -0.003425
     54 O                    -0.401760
     55 H                    -0.265615
     56 C                     0.568518
     57 C                     0.139602
     58 C                    -0.340733
     59 H                     0.152696
     60 C                    -0.050035
     61 H                     0.087482
     62 C                     0.340890
     63 C                     0.202982
     64 O                    -0.419440
     65 H                    -0.047306
     66 C                     0.988983
     67 O                    -0.508910
     68 O                    -0.495812
  ----------------------------------------
  Sum of atomic charges =     1.000000

  Building new vdw surfaces
         Merz-Kollman RESP Net Atomic Charges

     Atom                 Charge (a.u.)
  ----------------------------------------
      1 N                     0.781071
      2 C                    -0.031914
      3 C                    -0.337024
      4 C                    -0.254174
      5 C                    -0.637997
      6 C                    -0.174425
      7 C                    -0.048061
      8 C                    -0.048061
      9 C                     0.101796
     10 C                     0.234694
     11 C                     0.177343
     12 C                     0.140660
     13 C                     0.074685
     14 C                    -0.662724
     15 C                    -0.506955
     16 C                    -0.506955
     17 C                    -0.487910
     18 H                    -0.041407
     19 H                     0.023290
     20 H                     0.111298
     21 H                     0.111298
     22 H                     0.085277
     23 H                     0.085277
     24 H                     0.188587
     25 H                     0.188587
     26 H                     0.077709
     27 H                     0.077709
     28 H                     0.066276
     29 H                     0.066276
     30 H                     0.055107
     31 H                     0.055107
     32 H                     0.062145
     33 H                     0.062145
     34 H                     0.034816
     35 H                     0.034816
     36 H                     0.018537
     37 H                     0.018537
     38 H                     0.023753
     39 H                     0.023753
     40 H                     0.043472
     41 H                     0.043472
     42 H                     0.166520
     43 H                     0.166520
     44 H                     0.166520
     45 H                     0.127214
     46 H                     0.127214
     47 H                     0.127214
     48 H                     0.134952
     49 H                     0.134952
     50 H                     0.134952
     51 H                     0.125733
     52 H                     0.125733
     53 H                     0.125733
     54 O                    -0.573374
     55 H                     0.105984
     56 C                    -0.072493
     57 C                     0.687132
     58 C                    -0.383681
     59 H                     0.226520
     60 C                    -0.301917
     61 H                     0.208931
     62 C                     0.688372
     63 C                    -0.232605
     64 O                    -0.535088
     65 H                     0.208907
     66 C                     0.779206
     67 O                    -0.406099
     68 O                    -0.392943
  ----------------------------------------
  Sum of atomic charges =     1.000000

  Related Dipole Moment =     1.8914 (X  1.5806 Y  0.2295 Z -1.0132)

 -----------------------------------------------------------------
                    Cartesian Multipole Moments
 -----------------------------------------------------------------
    Charge (ESU x 10^10)
                 4.8032
    Dipole Moment (Debye)
         X       1.6138      Y       0.1607      Z      -1.0303
       Tot       1.9214
    Quadrupole Moments (Debye-Ang)
        XX    -158.8065     XY      -9.9089     YY    -174.6309
        XZ       4.3242     YZ       6.6394     ZZ    -154.0373
    Octopole Moments (Debye-Ang^2)
       XXX    -167.6058    XXY     295.4040    XYY      29.9129
       YYY    1163.1291    XXZ     178.3084    XYZ     -13.1300
       YYZ     115.9299    XZZ     -58.7071    YZZ     254.5763
       ZZZ     423.5736
    Hexadecapole Moments (Debye-Ang^3)
      XXXX   -5708.8409   XXXY    -393.2321   XXYY   -3145.0771
      XYYY    -952.7208   YYYY  -16518.4329   XXXZ      50.1130
      XXYZ    -742.0843   XYYZ     -15.5328   YYYZ   -2105.1997
      XXZZ   -1737.1448   XYZZ    -144.1896   YYZZ   -2714.3608
      XZZZ     -44.4606   YZZZ   -1968.4918   ZZZZ   -4329.4274
 -----------------------------------------------------------------
 Calculating MO derivatives via CPSCF
 Full subspace dimension requested for CIS/TDDFT

 CIS/TDDFT memory preview:
 --------------------------
	NOV = NOa*NVa + NOb*NVb = 169344
	NRoots = 0, max iter = 30, max vectors = 84672
	Size of each subspace vector: 1.29 Mb
	Davidson algorithm may add up to 2 x NOV x NRoots (= 0.0 Mb) per iteration
	Max memory = 218791.1 Mb (worst case scenario)
	Currently available memory = 96000.0 Mb

	In case of problems:
	(a) increase memory (MEM_TOTAL = 218792 can hold 84672 subspace vectors), or
	(b) request fewer states (CIS_N_ROOTS = 0 will fit in current MEM_TOTAL), or
	(c) reduce MAX_CIS_SUBSPACE (= 37151 will fit in current MEM_TOTAL).
	Reducing MAX_CIS_SUBSPACE may hamper convergence.

 CPSCF will be done in 2 segments to save memory.
 Computing fast CPCM-SWIG hessian.
 Computing fast CPCM-SWIG hessian.
   1         0         102      0.289219    0.005424
   2         0         102      0.070950    0.001563
   3         0         102      0.009131    0.000194
   4         0         102      0.001322    0.000032
   5         0         102      0.000167    0.000005
   6       132          75      0.000021    0.000001    Collapsing Subspace
   7        38          64      0.000014    0.000001
   8        38          64      0.000014    0.000001
   9        38          64      0.000014    0.000001
  10        38          64      0.000014    0.000001
  11        38          64      0.000014    0.000001
  12        38          64      0.000014    0.000001
  13       143          64      0.000014    0.000001    Collapsing Subspace
  14        38          64      0.000014    0.000001
  15        38          64      0.000014    0.000001
  16        38          64      0.000014    0.000001
  17        38          64      0.000014    0.000001
  18        38          64      0.000014    0.000001
  19        38          64      0.000014    0.000001
  20       143          64      0.000014    0.000001    Collapsing Subspace
  21        38          64      0.000014    0.000001
  22        38          64      0.000014    0.000001
  23        38          64      0.000014    0.000001
  24        38          64      0.000014    0.000001
  25        38          64      0.000014    0.000001
  26        38          64      0.000014    0.000001
  27       143          64      0.000014    0.000001    Collapsing Subspace
  28        38          64      0.000014    0.000001
  29        38          64      0.000014    0.000001
  30        37          65      0.000014    0.000001

 Q-Chem fatal error occurred in module 0, line  160:

 Out of Iterations- IterZ

