 argument  1 = Li1_1.nw
                                         
                                         


              Northwest Computational Chemistry Package (NWChem) 6.3
              ------------------------------------------------------


                    Environmental Molecular Sciences Laboratory
                       Pacific Northwest National Laboratory
                                Richland, WA 99352

                              Copyright (c) 1994-2012
                       Pacific Northwest National Laboratory
                            Battelle Memorial Institute

             NWChem is an open-source computational chemistry package
                        distributed under the terms of the
                      Educational Community License (ECL) 2.0
             A copy of the license is included with this distribution
                              in the LICENSE.TXT file

                                  ACKNOWLEDGMENT
                                  --------------

            This software and its documentation were developed at the
            EMSL at Pacific Northwest National Laboratory, a multiprogram
            national laboratory, operated for the U.S. Department of Energy
            by Battelle under Contract Number DE-AC05-76RL01830. Support
            for this work was provided by the Department of Energy Office
            of Biological and Environmental Research, Office of Basic
            Energy Sciences, and the Office of Advanced Scientific Computing.


           Job information
           ---------------

    hostname        = shyuep.mit.edu
    program         = /Users/shyue/nwchem-6.3/bin/MACX/nwchem
    date            = Thu Jun 20 06:30:21 2013

    compiled        = Sat_May_25_22:55:36_2013
    source          = /Users/shyue/nwchem-6.3
    nwchem branch   = 6.3
    nwchem revision = 24252
    ga revision     = N/A
    input           = Li1_1.nw
    prefix          = Li1.
    data base       = ./Li1.db
    status          = startup
    nproc           =        1
    time left       =     -1s



           Memory information
           ------------------

    heap     =   13107201 doubles =    100.0 Mbytes
    stack    =   13107201 doubles =    100.0 Mbytes
    global   =   26214400 doubles =    200.0 Mbytes (distinct from heap & stack)
    total    =   52428802 doubles =    400.0 Mbytes
    verify   = yes
    hardfail = no 


           Directory information
           ---------------------

  0 permanent = .
  0 scratch   = .




                                NWChem Input Module
                                -------------------



 Scaling coordinates for geometry "geometry" by  1.889725989
 (inverse scale =  0.529177249)



                             Geometry "geometry" -> ""
                             -------------------------

 Output coordinates in angstroms (scale by  1.889725989 to convert to a.u.)

  No.       Tag          Charge          X              Y              Z
 ---- ---------------- ---------- -------------- -------------- --------------
    1 Li                   3.0000     0.00000000     0.00000000     0.00000000

      Atomic Mass 
      ----------- 

      Li                 7.016000


 Effective nuclear repulsion energy (a.u.)       0.0000000000

            Nuclear Dipole moment (a.u.) 
            ----------------------------
        X                 Y               Z
 ---------------- ---------------- ----------------
     0.0000000000     0.0000000000     0.0000000000


            XYZ format geometry
            -------------------
     1
 geometry
 Li                    0.00000000     0.00000000     0.00000000

                                  Li1 dft energy
                                  --------------
                      Basis "ao basis" -> "" (cartesian)
                      -----
  Li (Lithium)
  ------------
            Exponent  Coefficients 
       -------------- ---------------------------------------------------------
  1 S  6.42418920E+02  0.002143
  1 S  9.67985150E+01  0.016209
  1 S  2.20911210E+01  0.077316
  1 S  6.20107030E+00  0.245786
  1 S  1.93511770E+00  0.470189
  1 S  6.36735800E-01  0.345471

  2 S  2.32491840E+00 -0.035092
  2 S  6.32430600E-01 -0.191233
  2 S  7.90534000E-02  1.083988

  3 P  2.32491840E+00  0.008941
  3 P  6.32430600E-01  0.141009
  3 P  7.90534000E-02  0.945364

  4 S  3.59620000E-02  1.000000

  5 P  3.59620000E-02  1.000000

  6 S  7.40000000E-03  1.000000

  7 P  7.40000000E-03  1.000000

  8 D  2.00000000E-01  1.000000



 Summary of "ao basis" -> "" (cartesian)
 ------------------------------------------------------------------------------
       Tag                 Description            Shells   Functions and Types
 ---------------- ------------------------------  ------  ---------------------
 Li                        6-31++g**                 8       19   4s3p1d



                                 NWChem DFT Module
                                 -----------------


                                  Li1 dft energy


  Caching 1-el integrals 

            General Information
            -------------------
          SCF calculation type: DFT
          Wavefunction type:  spin polarized.
          No. of atoms     :     1
          No. of electrons :     3
           Alpha electrons :     2
            Beta electrons :     1
          Charge           :     0
          Spin multiplicity:     2
          Use of symmetry is: off; symmetry adaption is: off
          Maximum number of iterations:  30
          AO basis - number of functions:    19
                     number of shells:     8
          Convergence on energy requested: 1.00D-06
          Convergence on density requested: 1.00D-05
          Convergence on gradient requested: 5.00D-04

              XC Information
              --------------
                         B3LYP Method XC Potential
                     Hartree-Fock (Exact) Exchange  0.200          
                        Slater Exchange Functional  0.800 local    
                    Becke 1988 Exchange Functional  0.720 non-local
              Lee-Yang-Parr Correlation Functional  0.810          
                  VWN I RPA Correlation Functional  0.190 local    

             Grid Information
             ----------------
          Grid used for XC integration:  medium    
          Radial quadrature: Mura-Knowles        
          Angular quadrature: Lebedev. 
          Tag              B.-S. Rad. Rad. Pts. Rad. Cut. Ang. Pts.
          ---              ---------- --------- --------- ---------
          Li                  1.45       49          19.0       434
          Grid pruning is: on 
          Number of quadrature shells:    49
          Spatial weights used:  Erf1

          Convergence Information
          -----------------------
          Convergence aids based upon iterative change in 
          total energy or number of iterations. 
          Levelshifting, if invoked, occurs when the 
          HOMO/LUMO gap drops below (HL_TOL): 1.00D-02
          DIIS, if invoked, will attempt to extrapolate 
          using up to (NFOCK): 10 stored Fock matrices.

                    Damping( 0%)  Levelshifting(0.5)       DIIS
                  --------------- ------------------- ---------------
          dE  on:    start            ASAP                start   
          dE off:    2 iters         30 iters            30 iters 


      Screening Tolerance Information
      -------------------------------
          Density screening/tol_rho: 1.00D-10
          AO Gaussian exp screening on grid/accAOfunc:  14
          CD Gaussian exp screening on grid/accCDfunc:  20
          XC Gaussian exp screening on grid/accXCfunc:  20
          Schwarz screening/accCoul: 1.00D-08


      Superposition of Atomic Density Guess
      -------------------------------------

 Sum of atomic energies:          -7.43147179

      Non-variational initial energy
      ------------------------------

 Total energy =      -7.372164
 1-e energy   =      -9.723699
 2-e energy   =       2.351535
 HOMO         =      -0.080329
 LUMO         =       0.015259

   Time after variat. SCF:      0.1
   Time prior to 1st pass:      0.1

 #quartets = 6.660D+02 #integrals = 3.754D+03 #direct =  0.0% #cached =100.0%


 Integral file          = ./Li1.aoints.0
 Record size in doubles =  65536        No. of integs per rec  =  43688
 Max. records in memory =      2        Max. records in file   = 242410
 No. of bits per label  =      8        No. of bits per value  =     64


 Grid_pts file          = ./Li1.gridpts.0
 Record size in doubles =  12289        No. of grid_pts per rec  =   3070
 Max. records in memory =      9        Max. recs in file   =   1292756


           Memory utilization after 1st SCF pass: 
           Heap Space remaining (MW):       12.86            12864300
          Stack Space remaining (MW):       13.11            13106988

   convergence    iter        energy       DeltaE   RMS-Dens  Diis-err    time
 ---------------- ----- ----------------- --------- --------- ---------  ------
 d= 0,ls=0.0,diis     1     -7.4872843459 -7.49D+00  1.49D-02  2.17D-03     0.2
                                                     7.87D-03  1.89D-03
 d= 0,ls=0.0,diis     2     -7.4911263319 -3.84D-03  1.38D-03  2.53D-05     0.2
                                                     2.29D-04  2.92D-06
 d= 0,ls=0.0,diis     3     -7.4912011143 -7.48D-05  2.11D-04  3.70D-07     0.3
                                                     6.97D-05  8.61D-08
 d= 0,ls=0.0,diis     4     -7.4912016568 -5.43D-07  1.16D-05  1.52D-09     0.4
                                                     3.17D-06  2.55D-10
 d= 0,ls=0.0,diis     5     -7.4912016576 -7.78D-10  6.85D-07  1.41D-12     0.4
                                                     1.63D-07  4.38D-13
  Resetting Diis
 d= 0,ls=0.0,diis     6     -7.4912016576 -1.44D-12  1.50D-08  8.64D-16     0.5
                                                     7.90D-10  2.13D-16
 d= 0,ls=0.0,diis     7     -7.4912016576  5.68D-14  1.32D-09  3.40D-18     0.5
                                                     7.57D-11  1.48D-19


         Total DFT energy =       -7.491201657613
      One electron energy =       -9.722274151314
           Coulomb energy =        4.070135820470
    Exchange-Corr. energy =       -1.839063326769
 Nuclear repulsion energy =        0.000000000000

 Numeric. integr. density =        2.999999999857

     Total iterative time =      0.5s



                    DFT Final Alpha Molecular Orbital Analysis
                    ------------------------------------------

 Vector    1  Occ=1.000000D+00  E=-2.030364D+00
              MO Center= -1.7D-17, -1.1D-17,  8.5D-18, r^2= 1.3D-01
   Bfn.  Coefficient  Atom+Function         Bfn.  Coefficient  Atom+Function  
  ----- ------------  ---------------      ----- ------------  ---------------
     1      0.998918  1 Li s          

 Vector    2  Occ=1.000000D+00  E=-1.340718D-01
              MO Center=  1.2D-16,  3.1D-16, -2.4D-16, r^2= 4.7D+00
   Bfn.  Coefficient  Atom+Function         Bfn.  Coefficient  Atom+Function  
  ----- ------------  ---------------      ----- ------------  ---------------
     6      0.578340  1 Li s                  2      0.403929  1 Li s          
     1     -0.188911  1 Li s          

 Vector    3  Occ=0.000000D+00  E=-2.916386D-02
              MO Center=  3.8D-16, -9.3D-17,  6.0D-16, r^2= 1.2D+01
   Bfn.  Coefficient  Atom+Function         Bfn.  Coefficient  Atom+Function  
  ----- ------------  ---------------      ----- ------------  ---------------
     5      0.385773  1 Li pz                 9      0.331347  1 Li pz         
     3      0.273500  1 Li px                13      0.253254  1 Li pz         
     7      0.234913  1 Li px                11      0.179549  1 Li px         

 Vector    4  Occ=0.000000D+00  E=-2.916386D-02
              MO Center= -8.5D-17,  7.8D-17,  8.4D-17, r^2= 1.2D+01
   Bfn.  Coefficient  Atom+Function         Bfn.  Coefficient  Atom+Function  
  ----- ------------  ---------------      ----- ------------  ---------------
     3      0.342974  1 Li px                 7      0.294585  1 Li px         
     5     -0.273520  1 Li pz                 9     -0.234931  1 Li pz         
    11      0.225157  1 Li px                 4     -0.187320  1 Li py         
    13     -0.179562  1 Li pz                 8     -0.160892  1 Li py         

 Vector    5  Occ=0.000000D+00  E=-2.916386D-02
              MO Center=  1.3D-16,  3.5D-16, -5.2D-17, r^2= 1.2D+01
   Bfn.  Coefficient  Atom+Function         Bfn.  Coefficient  Atom+Function  
  ----- ------------  ---------------      ----- ------------  ---------------
     4      0.434205  1 Li py                 8      0.372946  1 Li py         
    12      0.285049  1 Li py                 3      0.187351  1 Li px         
     7      0.160918  1 Li px         

 Vector    6  Occ=0.000000D+00  E= 1.484136D-03
              MO Center= -4.2D-16,  2.8D-15, -1.5D-15, r^2= 3.9D+01
   Bfn.  Coefficient  Atom+Function         Bfn.  Coefficient  Atom+Function  
  ----- ------------  ---------------      ----- ------------  ---------------
    10      1.288724  1 Li s                  6     -0.700872  1 Li s          

 Vector    7  Occ=0.000000D+00  E= 1.389482D-02
              MO Center=  1.2D-15, -1.1D-15, -3.1D-16, r^2= 4.8D+01
   Bfn.  Coefficient  Atom+Function         Bfn.  Coefficient  Atom+Function  
  ----- ------------  ---------------      ----- ------------  ---------------
    11      0.759103  1 Li px                12     -0.709289  1 Li py         
     7     -0.310685  1 Li px                 8      0.290297  1 Li py         
     3     -0.202955  1 Li px                13     -0.202610  1 Li pz         
     4      0.189637  1 Li py         

 Vector    8  Occ=0.000000D+00  E= 1.389482D-02
              MO Center=  4.5D-16,  2.1D-16,  9.9D-16, r^2= 4.8D+01
   Bfn.  Coefficient  Atom+Function         Bfn.  Coefficient  Atom+Function  
  ----- ------------  ---------------      ----- ------------  ---------------
    13      0.953264  1 Li pz                11      0.423155  1 Li px         
     9     -0.390151  1 Li pz                 5     -0.254867  1 Li pz         
    12      0.180572  1 Li py                 7     -0.173188  1 Li px         

 Vector    9  Occ=0.000000D+00  E= 1.389482D-02
              MO Center= -2.7D-15, -3.4D-15,  1.9D-15, r^2= 4.8D+01
   Bfn.  Coefficient  Atom+Function         Bfn.  Coefficient  Atom+Function  
  ----- ------------  ---------------      ----- ------------  ---------------
    12      0.764645  1 Li py                11      0.604220  1 Li px         
    13     -0.413056  1 Li pz                 8     -0.312953  1 Li py         
     7     -0.247294  1 Li px                 4     -0.204437  1 Li py         
     9      0.169055  1 Li pz                 3     -0.161545  1 Li px         

 Vector   10  Occ=0.000000D+00  E= 1.303825D-01
              MO Center= -1.1D-15,  4.8D-17, -6.6D-17, r^2= 1.6D+01
   Bfn.  Coefficient  Atom+Function         Bfn.  Coefficient  Atom+Function  
  ----- ------------  ---------------      ----- ------------  ---------------
     7      1.875347  1 Li px                 3     -1.669480  1 Li px         
    11     -0.501998  1 Li px                 9      0.227310  1 Li pz         
     5     -0.202357  1 Li pz         

 Vector   11  Occ=0.000000D+00  E= 1.303825D-01
              MO Center=  3.1D-16,  4.1D-16, -6.4D-16, r^2= 1.6D+01
   Bfn.  Coefficient  Atom+Function         Bfn.  Coefficient  Atom+Function  
  ----- ------------  ---------------      ----- ------------  ---------------
     9      1.801609  1 Li pz                 5     -1.603837  1 Li pz         
     8     -0.528142  1 Li py                13     -0.482260  1 Li pz         
     4      0.470165  1 Li py                 7     -0.211050  1 Li px         
     3      0.187882  1 Li px         

 Vector   12  Occ=0.000000D+00  E= 1.303825D-01
              MO Center= -1.1D-15,  2.1D-14,  6.1D-15, r^2= 1.6D+01
   Bfn.  Coefficient  Atom+Function         Bfn.  Coefficient  Atom+Function  
  ----- ------------  ---------------      ----- ------------  ---------------
     8      1.813743  1 Li py                 4     -1.614639  1 Li py         
     9      0.521351  1 Li pz                12     -0.485508  1 Li py         
     5     -0.464119  1 Li pz         

 Vector   13  Occ=0.000000D+00  E= 1.746909D-01
              MO Center=  2.9D-15, -1.9D-14, -6.6D-15, r^2= 1.8D+01
   Bfn.  Coefficient  Atom+Function         Bfn.  Coefficient  Atom+Function  
  ----- ------------  ---------------      ----- ------------  ---------------
     2      3.492499  1 Li s                  6     -3.457449  1 Li s          
    10      0.862127  1 Li s                 14     -0.254136  1 Li dxx        
    17     -0.254136  1 Li dyy               19     -0.254136  1 Li dzz        

 Vector   14  Occ=0.000000D+00  E= 4.252695D-01
              MO Center=  9.8D-17, -3.2D-16,  2.7D-16, r^2= 2.5D+00
   Bfn.  Coefficient  Atom+Function         Bfn.  Coefficient  Atom+Function  
  ----- ------------  ---------------      ----- ------------  ---------------
    18      1.320013  1 Li dyz               15     -0.666054  1 Li dxy        
    16     -0.491977  1 Li dxz               19     -0.427960  1 Li dzz        
    14      0.288892  1 Li dxx        

 Vector   15  Occ=0.000000D+00  E= 4.252695D-01
              MO Center= -1.1D-15,  4.2D-16, -6.1D-19, r^2= 2.5D+00
   Bfn.  Coefficient  Atom+Function         Bfn.  Coefficient  Atom+Function  
  ----- ------------  ---------------      ----- ------------  ---------------
    15      1.287314  1 Li dxy               16     -0.932792  1 Li dxz        
    18      0.536849  1 Li dyz               19      0.246698  1 Li dzz        

 Vector   16  Occ=0.000000D+00  E= 4.252695D-01
              MO Center=  2.9D-16,  1.5D-16, -3.3D-16, r^2= 2.5D+00
   Bfn.  Coefficient  Atom+Function         Bfn.  Coefficient  Atom+Function  
  ----- ------------  ---------------      ----- ------------  ---------------
    15      0.898281  1 Li dxy               19     -0.723236  1 Li dzz        
    16      0.673845  1 Li dxz               17      0.566291  1 Li dyy        
    14      0.156945  1 Li dxx        

 Vector   17  Occ=0.000000D+00  E= 4.252695D-01
              MO Center= -4.6D-16,  4.8D-17,  5.1D-18, r^2= 2.5D+00
   Bfn.  Coefficient  Atom+Function         Bfn.  Coefficient  Atom+Function  
  ----- ------------  ---------------      ----- ------------  ---------------
    14      0.938793  1 Li dxx               17     -0.677865  1 Li dyy        
    18     -0.373129  1 Li dyz               19     -0.260928  1 Li dzz        
    15      0.189338  1 Li dxy        

 Vector   18  Occ=0.000000D+00  E= 4.252695D-01
              MO Center= -3.4D-16, -3.2D-16, -3.9D-16, r^2= 2.5D+00
   Bfn.  Coefficient  Atom+Function         Bfn.  Coefficient  Atom+Function  
  ----- ------------  ---------------      ----- ------------  ---------------
    16      1.194445  1 Li dxz               18      0.909882  1 Li dyz        
    17     -0.423494  1 Li dyy               19      0.406001  1 Li dzz        
    15      0.237563  1 Li dxy        

 Vector   19  Occ=0.000000D+00  E= 1.188884D+00
              MO Center=  5.7D-17, -6.3D-16, -2.5D-16, r^2= 8.8D+00
   Bfn.  Coefficient  Atom+Function         Bfn.  Coefficient  Atom+Function  
  ----- ------------  ---------------      ----- ------------  ---------------
     2     10.622583  1 Li s                  6     -3.960045  1 Li s          
    14     -3.355378  1 Li dxx               17     -3.355378  1 Li dyy        
    19     -3.355378  1 Li dzz               10      0.505403  1 Li s          
     1      0.163727  1 Li s          


                     DFT Final Beta Molecular Orbital Analysis
                     -----------------------------------------

 Vector    1  Occ=1.000000D+00  E=-2.022055D+00
              MO Center= -7.1D-18,  1.1D-18, -3.2D-18, r^2= 1.3D-01
   Bfn.  Coefficient  Atom+Function         Bfn.  Coefficient  Atom+Function  
  ----- ------------  ---------------      ----- ------------  ---------------
     1      0.999062  1 Li s          

 Vector    2  Occ=0.000000D+00  E=-5.593677D-02
              MO Center= -1.5D-15, -5.7D-15, -1.9D-16, r^2= 6.9D+00
   Bfn.  Coefficient  Atom+Function         Bfn.  Coefficient  Atom+Function  
  ----- ------------  ---------------      ----- ------------  ---------------
     6      0.560179  1 Li s                  2      0.330351  1 Li s          
    10      0.231923  1 Li s                  1     -0.179485  1 Li s          

 Vector    3  Occ=0.000000D+00  E=-3.246396D-03
              MO Center=  9.0D-16, -7.4D-16,  1.1D-16, r^2= 3.0D+01
   Bfn.  Coefficient  Atom+Function         Bfn.  Coefficient  Atom+Function  
  ----- ------------  ---------------      ----- ------------  ---------------
    11      0.568209  1 Li px                12     -0.451455  1 Li py         
     7      0.191127  1 Li px                 3      0.188286  1 Li px         
     8     -0.151855  1 Li py         

 Vector    4  Occ=0.000000D+00  E=-3.246396D-03
              MO Center=  2.7D-17,  6.5D-16,  4.1D-15, r^2= 3.0D+01
   Bfn.  Coefficient  Atom+Function         Bfn.  Coefficient  Atom+Function  
  ----- ------------  ---------------      ----- ------------  ---------------
    13      0.719790  1 Li pz                 9      0.242113  1 Li pz         
     5      0.238515  1 Li pz         

 Vector    5  Occ=0.000000D+00  E=-3.246396D-03
              MO Center=  6.2D-15,  7.7D-15, -1.3D-15, r^2= 3.0D+01
   Bfn.  Coefficient  Atom+Function         Bfn.  Coefficient  Atom+Function  
  ----- ------------  ---------------      ----- ------------  ---------------
    12      0.560620  1 Li py                11      0.456957  1 Li px         
     8      0.188574  1 Li py                 4      0.185771  1 Li py         
     7      0.153705  1 Li px                 3      0.151421  1 Li px         

 Vector    6  Occ=0.000000D+00  E= 1.064521D-02
              MO Center=  4.6D-17, -1.5D-15, -3.3D-15, r^2= 3.7D+01
   Bfn.  Coefficient  Atom+Function         Bfn.  Coefficient  Atom+Function  
  ----- ------------  ---------------      ----- ------------  ---------------
    10      1.289332  1 Li s                  6     -0.882471  1 Li s          

 Vector    7  Occ=0.000000D+00  E= 3.107693D-02
              MO Center= -2.9D-18,  1.8D-16,  4.7D-16, r^2= 3.1D+01
   Bfn.  Coefficient  Atom+Function         Bfn.  Coefficient  Atom+Function  
  ----- ------------  ---------------      ----- ------------  ---------------
    13      0.777951  1 Li pz                 9     -0.663396  1 Li pz         
    12      0.344724  1 Li py                 8     -0.293962  1 Li py         
     5     -0.289580  1 Li pz         

 Vector    8  Occ=0.000000D+00  E= 3.107693D-02
              MO Center= -3.1D-16, -3.0D-15,  1.3D-15, r^2= 3.1D+01
   Bfn.  Coefficient  Atom+Function         Bfn.  Coefficient  Atom+Function  
  ----- ------------  ---------------      ----- ------------  ---------------
    12      0.779914  1 Li py                 8     -0.665069  1 Li py         
    13     -0.336927  1 Li pz                 4     -0.290311  1 Li py         
     9      0.287314  1 Li pz         

 Vector    9  Occ=0.000000D+00  E= 3.107693D-02
              MO Center= -5.6D-15,  3.8D-16, -7.2D-16, r^2= 3.1D+01
   Bfn.  Coefficient  Atom+Function         Bfn.  Coefficient  Atom+Function  
  ----- ------------  ---------------      ----- ------------  ---------------
    11      0.846214  1 Li px                 7     -0.721607  1 Li px         
     3     -0.314990  1 Li px         

 Vector   10  Occ=0.000000D+00  E= 1.422719D-01
              MO Center= -7.6D-15,  2.2D-15,  1.4D-15, r^2= 1.4D+01
   Bfn.  Coefficient  Atom+Function         Bfn.  Coefficient  Atom+Function  
  ----- ------------  ---------------      ----- ------------  ---------------
     7     -1.728367  1 Li px                 3      1.633153  1 Li px         
     8      0.489071  1 Li py                 4     -0.462129  1 Li py         
    11      0.436619  1 Li px                 9      0.327945  1 Li pz         
     5     -0.309879  1 Li pz         

 Vector   11  Occ=0.000000D+00  E= 1.422719D-01
              MO Center=  1.1D-15,  2.9D-16,  4.4D-15, r^2= 1.4D+01
   Bfn.  Coefficient  Atom+Function         Bfn.  Coefficient  Atom+Function  
  ----- ------------  ---------------      ----- ------------  ---------------
     9     -1.772641  1 Li pz                 5      1.674988  1 Li pz         
    13      0.447803  1 Li pz                 7     -0.391718  1 Li px         
     3      0.370138  1 Li px                 8     -0.195683  1 Li py         
     4      0.184903  1 Li py         

 Vector   12  Occ=0.000000D+00  E= 1.422719D-01
              MO Center= -1.8D-15, -6.1D-15,  1.2D-15, r^2= 1.4D+01
   Bfn.  Coefficient  Atom+Function         Bfn.  Coefficient  Atom+Function  
  ----- ------------  ---------------      ----- ------------  ---------------
     8     -1.748287  1 Li py                 4      1.651976  1 Li py         
     7     -0.439654  1 Li px                12      0.441651  1 Li py         
     3      0.415434  1 Li px                 9      0.290149  1 Li pz         
     5     -0.274165  1 Li pz         

 Vector   13  Occ=0.000000D+00  E= 1.907621D-01
              MO Center=  8.7D-15,  5.3D-15, -6.7D-15, r^2= 1.7D+01
   Bfn.  Coefficient  Atom+Function         Bfn.  Coefficient  Atom+Function  
  ----- ------------  ---------------      ----- ------------  ---------------
     2      3.734770  1 Li s                  6     -3.492290  1 Li s          
    10      0.838263  1 Li s                 14     -0.324755  1 Li dxx        
    17     -0.324755  1 Li dyy               19     -0.324755  1 Li dzz        

 Vector   14  Occ=0.000000D+00  E= 4.676778D-01
              MO Center= -3.3D-17,  5.4D-16,  1.4D-17, r^2= 2.5D+00
   Bfn.  Coefficient  Atom+Function         Bfn.  Coefficient  Atom+Function  
  ----- ------------  ---------------      ----- ------------  ---------------
    15      1.528468  1 Li dxy               16      0.663162  1 Li dxz        
    18     -0.262781  1 Li dyz               14     -0.216445  1 Li dxx        
    17      0.168227  1 Li dyy        

 Vector   15  Occ=0.000000D+00  E= 4.676778D-01
              MO Center= -2.7D-16,  5.5D-16, -3.8D-16, r^2= 2.5D+00
   Bfn.  Coefficient  Atom+Function         Bfn.  Coefficient  Atom+Function  
  ----- ------------  ---------------      ----- ------------  ---------------
    18      1.241457  1 Li dyz               14      0.622013  1 Li dxx        
    15      0.531856  1 Li dxy               17     -0.316614  1 Li dyy        
    19     -0.305400  1 Li dzz        

 Vector   16  Occ=0.000000D+00  E= 4.676778D-01
              MO Center=  1.7D-17,  2.0D-16,  1.5D-16, r^2= 2.5D+00
   Bfn.  Coefficient  Atom+Function         Bfn.  Coefficient  Atom+Function  
  ----- ------------  ---------------      ----- ------------  ---------------
    18      1.097556  1 Li dyz               14     -0.641427  1 Li dxx        
    19      0.606778  1 Li dzz               16      0.428130  1 Li dxz        
    15     -0.224631  1 Li dxy        

 Vector   17  Occ=0.000000D+00  E= 4.676778D-01
              MO Center=  1.7D-16, -4.7D-16, -2.3D-16, r^2= 2.5D+00
   Bfn.  Coefficient  Atom+Function         Bfn.  Coefficient  Atom+Function  
  ----- ------------  ---------------      ----- ------------  ---------------
    17      0.787758  1 Li dyy               19     -0.723742  1 Li dzz        
    16      0.668093  1 Li dxz               15     -0.377669  1 Li dxy        
    18      0.337771  1 Li dyz        

 Vector   18  Occ=0.000000D+00  E= 4.676778D-01
              MO Center=  1.7D-17,  2.1D-16, -1.8D-16, r^2= 2.5D+00
   Bfn.  Coefficient  Atom+Function         Bfn.  Coefficient  Atom+Function  
  ----- ------------  ---------------      ----- ------------  ---------------
    16      1.384011  1 Li dxz               17     -0.499692  1 Li dyy        
    15     -0.433383  1 Li dxy               14      0.388233  1 Li dxx        
    18     -0.266481  1 Li dyz        

 Vector   19  Occ=0.000000D+00  E= 1.211898D+00
              MO Center=  2.9D-16, -1.8D-16, -7.9D-17, r^2= 8.6D+00
   Bfn.  Coefficient  Atom+Function         Bfn.  Coefficient  Atom+Function  
  ----- ------------  ---------------      ----- ------------  ---------------
     2     10.542244  1 Li s                  6     -3.895172  1 Li s          
    14     -3.349324  1 Li dxx               17     -3.349324  1 Li dyy        
    19     -3.349324  1 Li dzz               10      0.493134  1 Li s          
     1      0.161275  1 Li s          


   alpha - beta orbital overlaps 
   ----------------------------- 


   alpha      1      2      3      4      5      6      7      8      9     10
    beta      1      2      4      3      5      6      9      7      8     10
 overlap   1.000  0.986  0.699  0.671  0.863  0.986  0.651  0.764  0.782  0.910


   alpha     11     12     13     14     15     16     17     18     19
    beta     11     12     13     15     18     17     16     16     19
 overlap   0.868  0.860  0.998  0.626  0.623  0.682  0.685  0.633  1.000

     --------------------------
     Expectation value of S2:  
     --------------------------
      <S2> =      0.7500 (Exact =     0.7500)


 Parallel integral file used       1 records with       0 large values


 Task  times  cpu:        0.5s     wall:        0.9s


                                NWChem Input Module
                                -------------------


                                  Li1 dft energy
                                  --------------
                      Basis "ao basis" -> "" (cartesian)
                      -----
  Li (Lithium)
  ------------
            Exponent  Coefficients 
       -------------- ---------------------------------------------------------
  1 S  6.42418920E+02  0.002143
  1 S  9.67985150E+01  0.016209
  1 S  2.20911210E+01  0.077316
  1 S  6.20107030E+00  0.245786
  1 S  1.93511770E+00  0.470189
  1 S  6.36735800E-01  0.345471

  2 S  2.32491840E+00 -0.035092
  2 S  6.32430600E-01 -0.191233
  2 S  7.90534000E-02  1.083988

  3 P  2.32491840E+00  0.008941
  3 P  6.32430600E-01  0.141009
  3 P  7.90534000E-02  0.945364

  4 S  3.59620000E-02  1.000000

  5 P  3.59620000E-02  1.000000

  6 S  7.40000000E-03  1.000000

  7 P  7.40000000E-03  1.000000

  8 D  2.00000000E-01  1.000000



 Summary of "ao basis" -> "" (cartesian)
 ------------------------------------------------------------------------------
       Tag                 Description            Shells   Functions and Types
 ---------------- ------------------------------  ------  ---------------------
 Li                        6-31++g**                 8       19   4s3p1d



                                 NWChem DFT Module
                                 -----------------


                                  Li1 dft energy


  Caching 1-el integrals 

            General Information
            -------------------
          SCF calculation type: DFT
          Wavefunction type:  spin polarized.
          No. of atoms     :     1
          No. of electrons :     2
           Alpha electrons :     1
            Beta electrons :     1
          Charge           :     1
          Spin multiplicity:     1
          Use of symmetry is: off; symmetry adaption is: off
          Maximum number of iterations:  30
          AO basis - number of functions:    19
                     number of shells:     8
          Convergence on energy requested: 1.00D-06
          Convergence on density requested: 1.00D-05
          Convergence on gradient requested: 5.00D-04

              XC Information
              --------------
                         B3LYP Method XC Potential
                     Hartree-Fock (Exact) Exchange  0.200          
                        Slater Exchange Functional  0.800 local    
                    Becke 1988 Exchange Functional  0.720 non-local
              Lee-Yang-Parr Correlation Functional  0.810          
                  VWN I RPA Correlation Functional  0.190 local    

             Grid Information
             ----------------
          Grid used for XC integration:  medium    
          Radial quadrature: Mura-Knowles        
          Angular quadrature: Lebedev. 
          Tag              B.-S. Rad. Rad. Pts. Rad. Cut. Ang. Pts.
          ---              ---------- --------- --------- ---------
          Li                  1.45       49          19.0       434
          Grid pruning is: on 
          Number of quadrature shells:    49
          Spatial weights used:  Erf1

          Convergence Information
          -----------------------
          Convergence aids based upon iterative change in 
          total energy or number of iterations. 
          Levelshifting, if invoked, occurs when the 
          HOMO/LUMO gap drops below (HL_TOL): 1.00D-02
          DIIS, if invoked, will attempt to extrapolate 
          using up to (NFOCK): 10 stored Fock matrices.

                    Damping( 0%)  Levelshifting(0.5)       DIIS
                  --------------- ------------------- ---------------
          dE  on:    start            ASAP                start   
          dE off:    2 iters         30 iters            30 iters 


      Screening Tolerance Information
      -------------------------------
          Density screening/tol_rho: 1.00D-10
          AO Gaussian exp screening on grid/accAOfunc:  14
          CD Gaussian exp screening on grid/accCDfunc:  20
          XC Gaussian exp screening on grid/accXCfunc:  20
          Schwarz screening/accCoul: 1.00D-08


 Loading old vectors from job with title :

Li1 dft energy

   Time after variat. SCF:      0.6
   Time prior to 1st pass:      0.6

 #quartets = 6.660D+02 #integrals = 3.754D+03 #direct =  0.0% #cached =100.0%


 Integral file          = ./Li1.aoints.0
 Record size in doubles =  65536        No. of integs per rec  =  43688
 Max. records in memory =      2        Max. records in file   = 242410
 No. of bits per label  =      8        No. of bits per value  =     64


 Grid_pts file          = ./Li1.gridpts.0
 Record size in doubles =  12289        No. of grid_pts per rec  =   3070
 Max. records in memory =      9        Max. recs in file   =   1292756


           Memory utilization after 1st SCF pass: 
           Heap Space remaining (MW):       12.86            12864300
          Stack Space remaining (MW):       13.11            13106988

   convergence    iter        energy       DeltaE   RMS-Dens  Diis-err    time
 ---------------- ----- ----------------- --------- --------- ---------  ------
 d= 0,ls=0.0,diis     1     -7.2845221356 -7.28D+00  1.04D-03  9.33D-05     0.7
                                                     2.60D-03  2.47D-04
 d= 0,ls=0.0,diis     2     -7.2845931389 -7.10D-05  1.10D-04  3.06D-07     0.7
                                                     4.18D-05  5.52D-08
 d= 0,ls=0.0,diis     3     -7.2845931970 -5.81D-08  2.44D-06  1.26D-10     0.8
                                                     2.31D-06  2.92D-10
 d= 0,ls=0.0,diis     4     -7.2845931970 -8.84D-11  3.44D-08  9.91D-14     0.9
                                                     5.54D-08  8.44D-14
 d= 0,ls=0.0,diis     5     -7.2845931970 -6.04D-14  3.25D-11  2.96D-19     0.9
                                                     1.29D-10  5.59D-19
  Singularity in Pulay matrix. Error and Fock matrices removed. 
  Singularity in Pulay matrix. Error and Fock matrices removed. 
  Singularity in Pulay matrix. Error and Fock matrices removed. 
  Singularity in Pulay matrix. Error and Fock matrices removed. 
  Singularity in Pulay matrix. Error and Fock matrices removed. 
  Resetting Diis
 d= 0,ls=0.0,diis     6     -7.2845931970 -2.66D-14  2.97D-13  2.45D-23     1.0
                                                     5.31D-13  9.84D-24
 d= 0,ls=0.0,diis     7     -7.2845931970 -8.88D-15  8.13D-15  8.30D-27     1.0
                                                     2.37D-14  2.58D-26


         Total DFT energy =       -7.284593197050
      One electron energy =       -8.878530885619
           Coulomb energy =        3.287084498932
    Exchange-Corr. energy =       -1.693146810362
 Nuclear repulsion energy =        0.000000000000

 Numeric. integr. density =        2.000000000765

     Total iterative time =      0.5s



                    DFT Final Alpha Molecular Orbital Analysis
                    ------------------------------------------

 Vector    1  Occ=1.000000D+00  E=-2.352221D+00
              MO Center= -4.9D-19, -2.9D-18, -1.6D-18, r^2= 1.3D-01
   Bfn.  Coefficient  Atom+Function         Bfn.  Coefficient  Atom+Function  
  ----- ------------  ---------------      ----- ------------  ---------------
     1      0.999123  1 Li s          

 Vector    2  Occ=0.000000D+00  E=-2.547324D-01
              MO Center=  2.7D-16,  2.7D-16, -6.3D-17, r^2= 3.7D+00
   Bfn.  Coefficient  Atom+Function         Bfn.  Coefficient  Atom+Function  
  ----- ------------  ---------------      ----- ------------  ---------------
     2      0.927022  1 Li s                  6      0.206940  1 Li s          
     1     -0.172838  1 Li s          

 Vector    3  Occ=0.000000D+00  E=-1.686615D-01
              MO Center=  3.4D-16, -6.1D-16,  4.7D-16, r^2= 4.9D+00
   Bfn.  Coefficient  Atom+Function         Bfn.  Coefficient  Atom+Function  
  ----- ------------  ---------------      ----- ------------  ---------------
     4      0.655349  1 Li py                 5     -0.624480  1 Li pz         
     3     -0.162066  1 Li px         

 Vector    4  Occ=0.000000D+00  E=-1.686615D-01
              MO Center= -4.3D-17, -4.4D-16, -1.6D-16, r^2= 4.9D+00
   Bfn.  Coefficient  Atom+Function         Bfn.  Coefficient  Atom+Function  
  ----- ------------  ---------------      ----- ------------  ---------------
     4      0.629008  1 Li py                 5      0.567069  1 Li pz         
     3      0.358475  1 Li px         

 Vector    5  Occ=0.000000D+00  E=-1.686615D-01
              MO Center= -3.5D-16,  5.9D-17,  2.8D-16, r^2= 4.9D+00
   Bfn.  Coefficient  Atom+Function         Bfn.  Coefficient  Atom+Function  
  ----- ------------  ---------------      ----- ------------  ---------------
     3      0.831236  1 Li px                 5     -0.366307  1 Li pz         

 Vector    6  Occ=0.000000D+00  E=-8.422456D-02
              MO Center=  2.9D-15,  2.7D-15, -8.7D-16, r^2= 3.3D+01
   Bfn.  Coefficient  Atom+Function         Bfn.  Coefficient  Atom+Function  
  ----- ------------  ---------------      ----- ------------  ---------------
    10      1.107587  1 Li s                  2     -0.740708  1 Li s          

 Vector    7  Occ=0.000000D+00  E=-6.788414D-02
              MO Center=  5.5D-16, -9.1D-16,  2.4D-17, r^2= 3.9D+01
   Bfn.  Coefficient  Atom+Function         Bfn.  Coefficient  Atom+Function  
  ----- ------------  ---------------      ----- ------------  ---------------
    12      0.737468  1 Li py                 4     -0.558797  1 Li py         
    11     -0.436949  1 Li px                 8      0.361941  1 Li py         
     3      0.331086  1 Li px                 7     -0.214449  1 Li px         

 Vector    8  Occ=0.000000D+00  E=-6.788414D-02
              MO Center= -4.3D-15, -2.6D-15, -5.3D-16, r^2= 3.9D+01
   Bfn.  Coefficient  Atom+Function         Bfn.  Coefficient  Atom+Function  
  ----- ------------  ---------------      ----- ------------  ---------------
    11      0.732727  1 Li px                 3     -0.555205  1 Li px         
    12      0.436180  1 Li py                 7      0.359614  1 Li px         
     4     -0.330503  1 Li py                 8      0.214072  1 Li py         

 Vector    9  Occ=0.000000D+00  E=-6.788414D-02
              MO Center= -1.0D-16, -5.4D-17,  1.1D-15, r^2= 3.9D+01
   Bfn.  Coefficient  Atom+Function         Bfn.  Coefficient  Atom+Function  
  ----- ------------  ---------------      ----- ------------  ---------------
    13      0.852559  1 Li pz                 5     -0.646004  1 Li pz         
     9      0.418426  1 Li pz         

 Vector   10  Occ=0.000000D+00  E=-8.546958D-03
              MO Center=  2.7D-16,  2.1D-17,  1.7D-15, r^2= 3.1D+01
   Bfn.  Coefficient  Atom+Function         Bfn.  Coefficient  Atom+Function  
  ----- ------------  ---------------      ----- ------------  ---------------
     9      1.910415  1 Li pz                 5     -1.349668  1 Li pz         
    13     -0.843374  1 Li pz                 7      0.305638  1 Li px         
     3     -0.215927  1 Li px         

 Vector   11  Occ=0.000000D+00  E=-8.546958D-03
              MO Center=  8.4D-15,  1.7D-15, -1.3D-15, r^2= 3.1D+01
   Bfn.  Coefficient  Atom+Function         Bfn.  Coefficient  Atom+Function  
  ----- ------------  ---------------      ----- ------------  ---------------
     7      1.875600  1 Li px                 3     -1.325072  1 Li px         
    11     -0.828004  1 Li px                 8      0.372159  1 Li py         
     9     -0.295442  1 Li pz                 4     -0.262923  1 Li py         
     5      0.208723  1 Li pz                12     -0.164294  1 Li py         

 Vector   12  Occ=0.000000D+00  E=-8.546958D-03
              MO Center= -1.7D-15,  8.9D-15,  3.9D-16, r^2= 3.1D+01
   Bfn.  Coefficient  Atom+Function         Bfn.  Coefficient  Atom+Function  
  ----- ------------  ---------------      ----- ------------  ---------------
     8      1.898578  1 Li py                 4     -1.341306  1 Li py         
    12     -0.838148  1 Li py                 7     -0.363832  1 Li px         
     3      0.257040  1 Li px                11      0.160618  1 Li px         

 Vector   13  Occ=0.000000D+00  E= 4.695236D-02
              MO Center= -5.3D-15, -8.7D-15, -6.0D-16, r^2= 2.4D+01
   Bfn.  Coefficient  Atom+Function         Bfn.  Coefficient  Atom+Function  
  ----- ------------  ---------------      ----- ------------  ---------------
     6     -3.608606  1 Li s                  2      3.482981  1 Li s          
    10      1.086334  1 Li s                 14     -0.290020  1 Li dxx        
    17     -0.290020  1 Li dyy               19     -0.290020  1 Li dzz        
     1      0.178093  1 Li s          

 Vector   14  Occ=0.000000D+00  E= 2.413883D-01
              MO Center=  1.7D-17, -1.0D-16,  1.7D-16, r^2= 2.5D+00
   Bfn.  Coefficient  Atom+Function         Bfn.  Coefficient  Atom+Function  
  ----- ------------  ---------------      ----- ------------  ---------------
    19      0.988471  1 Li dzz               14     -0.522187  1 Li dxx        
    17     -0.466284  1 Li dyy               18      0.250633  1 Li dyz        

 Vector   15  Occ=0.000000D+00  E= 2.413883D-01
              MO Center=  7.4D-17, -2.3D-16, -3.1D-18, r^2= 2.5D+00
   Bfn.  Coefficient  Atom+Function         Bfn.  Coefficient  Atom+Function  
  ----- ------------  ---------------      ----- ------------  ---------------
    17     -0.880338  1 Li dyy               14      0.845693  1 Li dxx        

 Vector   16  Occ=0.000000D+00  E= 2.413883D-01
              MO Center= -1.5D-16,  1.1D-16, -2.1D-16, r^2= 2.5D+00
   Bfn.  Coefficient  Atom+Function         Bfn.  Coefficient  Atom+Function  
  ----- ------------  ---------------      ----- ------------  ---------------
    18      1.234887  1 Li dyz               15      1.190167  1 Li dxy        

 Vector   17  Occ=0.000000D+00  E= 2.413883D-01
              MO Center= -2.9D-17, -5.8D-18, -3.7D-17, r^2= 2.5D+00
   Bfn.  Coefficient  Atom+Function         Bfn.  Coefficient  Atom+Function  
  ----- ------------  ---------------      ----- ------------  ---------------
    16      1.698570  1 Li dxz               15      0.296784  1 Li dxy        

 Vector   18  Occ=0.000000D+00  E= 2.413883D-01
              MO Center=  2.2D-16,  4.5D-16, -2.7D-16, r^2= 2.5D+00
   Bfn.  Coefficient  Atom+Function         Bfn.  Coefficient  Atom+Function  
  ----- ------------  ---------------      ----- ------------  ---------------
    15      1.217797  1 Li dxy               18     -1.181116  1 Li dyz        
    16     -0.309312  1 Li dxz        

 Vector   19  Occ=0.000000D+00  E= 1.021583D+00
              MO Center= -2.5D-16, -3.6D-16, -3.8D-17, r^2= 8.7D+00
   Bfn.  Coefficient  Atom+Function         Bfn.  Coefficient  Atom+Function  
  ----- ------------  ---------------      ----- ------------  ---------------
     2     10.567215  1 Li s                  6     -3.923779  1 Li s          
    14     -3.351519  1 Li dxx               17     -3.351519  1 Li dyy        
    19     -3.351519  1 Li dzz               10      0.504252  1 Li s          
     1      0.164685  1 Li s          


                     DFT Final Beta Molecular Orbital Analysis
                     -----------------------------------------

 Vector    1  Occ=1.000000D+00  E=-2.352221D+00
              MO Center= -1.5D-18, -2.7D-19, -2.9D-18, r^2= 1.3D-01
   Bfn.  Coefficient  Atom+Function         Bfn.  Coefficient  Atom+Function  
  ----- ------------  ---------------      ----- ------------  ---------------
     1      0.999123  1 Li s          

 Vector    2  Occ=0.000000D+00  E=-2.547324D-01
              MO Center=  2.2D-16, -5.8D-17,  4.8D-17, r^2= 3.7D+00
   Bfn.  Coefficient  Atom+Function         Bfn.  Coefficient  Atom+Function  
  ----- ------------  ---------------      ----- ------------  ---------------
     2      0.927022  1 Li s                  6      0.206940  1 Li s          
     1     -0.172838  1 Li s          

 Vector    3  Occ=0.000000D+00  E=-1.686615D-01
              MO Center= -2.8D-16,  1.3D-16, -1.3D-16, r^2= 4.9D+00
   Bfn.  Coefficient  Atom+Function         Bfn.  Coefficient  Atom+Function  
  ----- ------------  ---------------      ----- ------------  ---------------
     3      0.902700  1 Li px         

 Vector    4  Occ=0.000000D+00  E=-1.686615D-01
              MO Center= -1.2D-16,  2.8D-16,  2.9D-17, r^2= 4.9D+00
   Bfn.  Coefficient  Atom+Function         Bfn.  Coefficient  Atom+Function  
  ----- ------------  ---------------      ----- ------------  ---------------
     4      0.896805  1 Li py                 3      0.160188  1 Li px         

 Vector    5  Occ=0.000000D+00  E=-1.686615D-01
              MO Center= -4.6D-17,  4.9D-17, -3.9D-17, r^2= 4.9D+00
   Bfn.  Coefficient  Atom+Function         Bfn.  Coefficient  Atom+Function  
  ----- ------------  ---------------      ----- ------------  ---------------
     5      0.906068  1 Li pz         

 Vector    6  Occ=0.000000D+00  E=-8.422456D-02
              MO Center=  1.8D-15, -7.5D-16,  1.7D-15, r^2= 3.3D+01
   Bfn.  Coefficient  Atom+Function         Bfn.  Coefficient  Atom+Function  
  ----- ------------  ---------------      ----- ------------  ---------------
    10      1.107587  1 Li s                  2     -0.740708  1 Li s          

 Vector    7  Occ=0.000000D+00  E=-6.788414D-02
              MO Center= -2.4D-15, -2.3D-17,  1.2D-16, r^2= 3.9D+01
   Bfn.  Coefficient  Atom+Function         Bfn.  Coefficient  Atom+Function  
  ----- ------------  ---------------      ----- ------------  ---------------
    11      0.856738  1 Li px                 3     -0.649171  1 Li px         
     7      0.420477  1 Li px         

 Vector    8  Occ=0.000000D+00  E=-6.788414D-02
              MO Center= -1.2D-18,  2.5D-16,  6.1D-17, r^2= 3.9D+01
   Bfn.  Coefficient  Atom+Function         Bfn.  Coefficient  Atom+Function  
  ----- ------------  ---------------      ----- ------------  ---------------
    12      0.835751  1 Li py                 4     -0.633268  1 Li py         
     8      0.410177  1 Li py                13      0.191244  1 Li pz         

 Vector    9  Occ=0.000000D+00  E=-6.788414D-02
              MO Center= -6.7D-17,  4.8D-16, -2.2D-15, r^2= 3.9D+01
   Bfn.  Coefficient  Atom+Function         Bfn.  Coefficient  Atom+Function  
  ----- ------------  ---------------      ----- ------------  ---------------
    13      0.835194  1 Li pz                 5     -0.632846  1 Li pz         
     9      0.409903  1 Li pz                12     -0.190963  1 Li py         

 Vector   10  Occ=0.000000D+00  E=-8.546958D-03
              MO Center= -1.5D-16,  2.6D-17,  1.1D-15, r^2= 3.1D+01
   Bfn.  Coefficient  Atom+Function         Bfn.  Coefficient  Atom+Function  
  ----- ------------  ---------------      ----- ------------  ---------------
     9      1.917745  1 Li pz                 5     -1.354847  1 Li pz         
    13     -0.846610  1 Li pz                 7     -0.242007  1 Li px         
     3      0.170973  1 Li px         

 Vector   11  Occ=0.000000D+00  E=-8.546958D-03
              MO Center=  1.8D-16, -3.5D-16,  2.5D-17, r^2= 3.1D+01
   Bfn.  Coefficient  Atom+Function         Bfn.  Coefficient  Atom+Function  
  ----- ------------  ---------------      ----- ------------  ---------------
     8      1.735604  1 Li py                 4     -1.226168  1 Li py         
     7     -0.835374  1 Li px                12     -0.766202  1 Li py         
     3      0.590174  1 Li px                11      0.368785  1 Li px         
     9     -0.183011  1 Li pz         

 Vector   12  Occ=0.000000D+00  E=-8.546958D-03
              MO Center=  4.0D-15,  2.0D-15,  4.3D-16, r^2= 3.1D+01
   Bfn.  Coefficient  Atom+Function         Bfn.  Coefficient  Atom+Function  
  ----- ------------  ---------------      ----- ------------  ---------------
     7      1.728366  1 Li px                 3     -1.221054  1 Li px         
     8      0.850877  1 Li py                11     -0.763006  1 Li px         
     4     -0.601127  1 Li py                12     -0.375629  1 Li py         
     9      0.180069  1 Li pz         

 Vector   13  Occ=0.000000D+00  E= 4.695236D-02
              MO Center= -2.9D-15, -1.6D-15, -9.2D-16, r^2= 2.4D+01
   Bfn.  Coefficient  Atom+Function         Bfn.  Coefficient  Atom+Function  
  ----- ------------  ---------------      ----- ------------  ---------------
     6     -3.608606  1 Li s                  2      3.482981  1 Li s          
    10      1.086334  1 Li s                 14     -0.290020  1 Li dxx        
    17     -0.290020  1 Li dyy               19     -0.290020  1 Li dzz        
     1      0.178093  1 Li s          

 Vector   14  Occ=0.000000D+00  E= 2.413883D-01
              MO Center= -3.1D-16,  3.8D-17,  1.1D-16, r^2= 2.5D+00
   Bfn.  Coefficient  Atom+Function         Bfn.  Coefficient  Atom+Function  
  ----- ------------  ---------------      ----- ------------  ---------------
    14      0.889399  1 Li dxx               19     -0.825530  1 Li dzz        
    18     -0.197822  1 Li dyz        

 Vector   15  Occ=0.000000D+00  E= 2.413883D-01
              MO Center= -2.2D-17,  3.4D-17, -5.7D-17, r^2= 2.5D+00
   Bfn.  Coefficient  Atom+Function         Bfn.  Coefficient  Atom+Function  
  ----- ------------  ---------------      ----- ------------  ---------------
    17      0.995632  1 Li dyy               19     -0.553891  1 Li dzz        
    14     -0.441741  1 Li dxx        

 Vector   16  Occ=0.000000D+00  E= 2.413883D-01
              MO Center=  9.4D-17,  1.2D-16,  1.8D-16, r^2= 2.5D+00
   Bfn.  Coefficient  Atom+Function         Bfn.  Coefficient  Atom+Function  
  ----- ------------  ---------------      ----- ------------  ---------------
    18      1.599958  1 Li dyz               15      0.602028  1 Li dxy        
    16     -0.183625  1 Li dxz        

 Vector   17  Occ=0.000000D+00  E= 2.413883D-01
              MO Center=  2.4D-17,  1.9D-16, -2.0D-16, r^2= 2.5D+00
   Bfn.  Coefficient  Atom+Function         Bfn.  Coefficient  Atom+Function  
  ----- ------------  ---------------      ----- ------------  ---------------
    16      1.424258  1 Li dxz               15     -0.855413  1 Li dxy        
    18      0.488844  1 Li dyz        

 Vector   18  Occ=0.000000D+00  E= 2.413883D-01
              MO Center= -2.4D-16, -7.9D-17,  7.3D-17, r^2= 2.5D+00
   Bfn.  Coefficient  Atom+Function         Bfn.  Coefficient  Atom+Function  
  ----- ------------  ---------------      ----- ------------  ---------------
    15      1.376409  1 Li dxy               16      0.963346  1 Li dxz        
    18     -0.402336  1 Li dyz        

 Vector   19  Occ=0.000000D+00  E= 1.021583D+00
              MO Center= -1.4D-16, -4.4D-17, -1.4D-16, r^2= 8.7D+00
   Bfn.  Coefficient  Atom+Function         Bfn.  Coefficient  Atom+Function  
  ----- ------------  ---------------      ----- ------------  ---------------
     2     10.567215  1 Li s                  6     -3.923779  1 Li s          
    14     -3.351519  1 Li dxx               17     -3.351519  1 Li dyy        
    19     -3.351519  1 Li dzz               10      0.504252  1 Li s          
     1      0.164685  1 Li s          


   alpha - beta orbital overlaps 
   ----------------------------- 


   alpha      1      2      3      4      5      6      7      8      9     10
    beta      1      2      4      5      3      6      8      7      9     10
 overlap   1.000  1.000  0.757  0.681  0.871  1.000  0.836  0.857  0.973  0.958


   alpha     11     12     13     14     15     16     17     18     19
    beta     12     11     13     14     15     16     18     17     19
 overlap   0.936  0.957  1.000  0.852  0.851  0.919  0.703  0.685  1.000

     --------------------------
     Expectation value of S2:  
     --------------------------
      <S2> =     -0.0000 (Exact =     0.0000)


 Parallel integral file used       1 records with       0 large values


 Task  times  cpu:        0.5s     wall:        0.9s


                                NWChem Input Module
                                -------------------


                                  Li1 dft energy
                                  --------------
                      Basis "ao basis" -> "" (cartesian)
                      -----
  Li (Lithium)
  ------------
            Exponent  Coefficients 
       -------------- ---------------------------------------------------------
  1 S  6.42418920E+02  0.002143
  1 S  9.67985150E+01  0.016209
  1 S  2.20911210E+01  0.077316
  1 S  6.20107030E+00  0.245786
  1 S  1.93511770E+00  0.470189
  1 S  6.36735800E-01  0.345471

  2 S  2.32491840E+00 -0.035092
  2 S  6.32430600E-01 -0.191233
  2 S  7.90534000E-02  1.083988

  3 P  2.32491840E+00  0.008941
  3 P  6.32430600E-01  0.141009
  3 P  7.90534000E-02  0.945364

  4 S  3.59620000E-02  1.000000

  5 P  3.59620000E-02  1.000000

  6 S  7.40000000E-03  1.000000

  7 P  7.40000000E-03  1.000000

  8 D  2.00000000E-01  1.000000



 Summary of "ao basis" -> "" (cartesian)
 ------------------------------------------------------------------------------
       Tag                 Description            Shells   Functions and Types
 ---------------- ------------------------------  ------  ---------------------
 Li                        6-31++g**                 8       19   4s3p1d



                                 NWChem DFT Module
                                 -----------------


                                  Li1 dft energy


  Caching 1-el integrals 

            General Information
            -------------------
          SCF calculation type: DFT
          Wavefunction type:  spin polarized.
          No. of atoms     :     1
          No. of electrons :     4
           Alpha electrons :     2
            Beta electrons :     2
          Charge           :    -1
          Spin multiplicity:     1
          Use of symmetry is: off; symmetry adaption is: off
          Maximum number of iterations:  30
          AO basis - number of functions:    19
                     number of shells:     8
          Convergence on energy requested: 1.00D-06
          Convergence on density requested: 1.00D-05
          Convergence on gradient requested: 5.00D-04

              XC Information
              --------------
                         B3LYP Method XC Potential
                     Hartree-Fock (Exact) Exchange  0.200          
                        Slater Exchange Functional  0.800 local    
                    Becke 1988 Exchange Functional  0.720 non-local
              Lee-Yang-Parr Correlation Functional  0.810          
                  VWN I RPA Correlation Functional  0.190 local    

             Grid Information
             ----------------
          Grid used for XC integration:  medium    
          Radial quadrature: Mura-Knowles        
          Angular quadrature: Lebedev. 
          Tag              B.-S. Rad. Rad. Pts. Rad. Cut. Ang. Pts.
          ---              ---------- --------- --------- ---------
          Li                  1.45       49          19.0       434
          Grid pruning is: on 
          Number of quadrature shells:    49
          Spatial weights used:  Erf1

          Convergence Information
          -----------------------
          Convergence aids based upon iterative change in 
          total energy or number of iterations. 
          Levelshifting, if invoked, occurs when the 
          HOMO/LUMO gap drops below (HL_TOL): 1.00D-02
          DIIS, if invoked, will attempt to extrapolate 
          using up to (NFOCK): 10 stored Fock matrices.

                    Damping( 0%)  Levelshifting(0.5)       DIIS
                  --------------- ------------------- ---------------
          dE  on:    start            ASAP                start   
          dE off:    2 iters         30 iters            30 iters 


      Screening Tolerance Information
      -------------------------------
          Density screening/tol_rho: 1.00D-10
          AO Gaussian exp screening on grid/accAOfunc:  14
          CD Gaussian exp screening on grid/accCDfunc:  20
          XC Gaussian exp screening on grid/accXCfunc:  20
          Schwarz screening/accCoul: 1.00D-08


 Loading old vectors from job with title :

Li1 dft energy

   Time after variat. SCF:      1.0
   Time prior to 1st pass:      1.0

 #quartets = 6.660D+02 #integrals = 3.754D+03 #direct =  0.0% #cached =100.0%


 Integral file          = ./Li1.aoints.0
 Record size in doubles =  65536        No. of integs per rec  =  43688
 Max. records in memory =      2        Max. records in file   = 242410
 No. of bits per label  =      8        No. of bits per value  =     64


 Grid_pts file          = ./Li1.gridpts.0
 Record size in doubles =  12289        No. of grid_pts per rec  =   3070
 Max. records in memory =      9        Max. recs in file   =   1292756


           Memory utilization after 1st SCF pass: 
           Heap Space remaining (MW):       12.86            12864300
          Stack Space remaining (MW):       13.11            13106988

   convergence    iter        energy       DeltaE   RMS-Dens  Diis-err    time
 ---------------- ----- ----------------- --------- --------- ---------  ------
 d= 0,ls=0.0,diis     1     -7.4448800696 -7.44D+00  7.64D-02  1.25D-02     1.2
                                                     7.64D-02  1.25D-02
 d= 0,ls=0.5,diis     2     -7.4628095527 -1.79D-02  7.51D-03  4.86D-03     1.2
                                                     7.51D-03  4.86D-03
 d= 0,ls=0.5,diis     3     -7.4735317123 -1.07D-02  6.89D-03  3.85D-03     1.3
                                                     6.89D-03  3.85D-03
 d= 0,ls=0.5,diis     4     -7.4824419333 -8.91D-03  5.91D-03  3.13D-03     1.4
                                                     5.91D-03  3.13D-03
 d= 0,ls=0.5,diis     5     -7.4868877497 -4.45D-03  4.66D-03  2.79D-03     1.4
                                                     4.66D-03  2.79D-03
  Resetting Diis
 d= 0,ls=0.5,diis     6     -7.4906072250 -3.72D-03  3.93D-03  2.44D-03     1.5
                                                     3.93D-03  2.44D-03
 d= 0,ls=0.5,diis     7     -7.4940314842 -3.42D-03  5.56D-03  2.07D-03     1.5
                                                     5.56D-03  2.07D-03
 d= 0,ls=0.5,diis     8     -7.5005543790 -6.52D-03  3.89D-03  1.25D-03     1.6
                                                     3.89D-03  1.25D-03
 d= 0,ls=0.5,diis     9     -7.5034510869 -2.90D-03  3.32D-03  9.13D-04     1.7
                                                     3.32D-03  9.13D-04
 d= 0,ls=0.5,diis    10     -7.5050300758 -1.58D-03  2.71D-03  7.41D-04     1.7
                                                     2.71D-03  7.41D-04
 d= 0,ls=0.5,diis    11     -7.5062624974 -1.23D-03  2.20D-03  6.02D-04     1.8
                                                     2.20D-03  6.02D-04
 d= 0,ls=0.5,diis    12     -7.5072589938 -9.96D-04  1.84D-03  4.86D-04     1.9
                                                     1.84D-03  4.86D-04
 d= 0,ls=0.5,diis    13     -7.5080753901 -8.16D-04  1.59D-03  3.89D-04     1.9
                                                     1.59D-03  3.89D-04
 d= 0,ls=0.5,diis    14     -7.5087376519 -6.62D-04  1.42D-03  3.10D-04     2.0
                                                     1.42D-03  3.10D-04
 d= 0,ls=0.5,diis    15     -7.5092985255 -5.61D-04  1.27D-03  2.42D-04     2.0
                                                     1.27D-03  2.42D-04
 d= 0,ls=0.5,diis    16     -7.5097744019 -4.76D-04  1.13D-03  1.83D-04     2.1
                                                     1.13D-03  1.83D-04
 d= 0,ls=0.5,diis    17     -7.5101361608 -3.62D-04  9.99D-04  1.40D-04     2.2
                                                     9.99D-04  1.40D-04
 d= 0,ls=0.5,diis    18     -7.5103998765 -2.64D-04  8.58D-04  1.09D-04     2.2
                                                     8.58D-04  1.09D-04
 d= 0,ls=0.5,diis    19     -7.5105946135 -1.95D-04  7.26D-04  8.64D-05     2.3
                                                     7.26D-04  8.64D-05
 d= 0,ls=0.5,diis    20     -7.5107483839 -1.54D-04  6.29D-04  6.84D-05     2.3
                                                     6.29D-04  6.84D-05
  Singularity in Pulay matrix. Error and Fock matrices removed. 
 d= 0,ls=0.5,diis    21     -7.5108701029 -1.22D-04  5.51D-04  5.40D-05     2.4
                                                     5.51D-04  5.40D-05
  Singularity in Pulay matrix. Error and Fock matrices removed. 
 d= 0,ls=0.5,diis    22     -7.5109658121 -9.57D-05  4.83D-04  4.28D-05     2.5
                                                     4.83D-04  4.28D-05
  Singularity in Pulay matrix. Error and Fock matrices removed. 
  Singularity in Pulay matrix. Error and Fock matrices removed. 
 d= 0,ls=0.5,diis    23     -7.5110415857 -7.58D-05  4.27D-04  3.38D-05     2.5
                                                     4.27D-04  3.38D-05
  Singularity in Pulay matrix. Error and Fock matrices removed. 
  Singularity in Pulay matrix. Error and Fock matrices removed. 
 d= 0,ls=0.5,diis    24     -7.5111017356 -6.01D-05  3.78D-04  2.67D-05     2.6
                                                     3.78D-04  2.67D-05
  Singularity in Pulay matrix. Error and Fock matrices removed. 
 d= 0,ls=0.5,diis    25     -7.5111493120 -4.76D-05  3.35D-04  2.11D-05     2.6
                                                     3.35D-04  2.11D-05
  Singularity in Pulay matrix. Error and Fock matrices removed. 
 d= 0,ls=0.5,diis    26     -7.5111869308 -3.76D-05  2.97D-04  1.67D-05     2.7
                                                     2.97D-04  1.67D-05
  Singularity in Pulay matrix. Error and Fock matrices removed. 
  Singularity in Pulay matrix. Error and Fock matrices removed. 
  Singularity in Pulay matrix. Error and Fock matrices removed. 
 d= 0,ls=0.5,diis    27     -7.5112167289 -2.98D-05  2.63D-04  1.32D-05     2.8
                                                     2.63D-04  1.32D-05
 d= 0,ls=0.5,diis    28     -7.5112403495 -2.36D-05  2.35D-04  1.05D-05     2.8
                                                     2.35D-04  1.05D-05
  Singularity in Pulay matrix. Error and Fock matrices removed. 
 d= 0,ls=0.5,diis    29     -7.5112590538 -1.87D-05  2.09D-04  8.28D-06     2.9
                                                     2.09D-04  8.28D-06
  Singularity in Pulay matrix. Error and Fock matrices removed. 
 d= 0,ls=0.5,diis    30     -7.5112738876 -1.48D-05  1.86D-04  6.55D-06     3.0
                                                     1.86D-04  6.55D-06

      Calculation failed to converge
      ------------------------------



         Total DFT energy =       -7.511285618071
      One electron energy =      -10.220407815680
           Coulomb energy =        4.624015150440
    Exchange-Corr. energy =       -1.914892952830
 Nuclear repulsion energy =        0.000000000000

 Numeric. integr. density =        3.999999819366

     Total iterative time =      2.0s



                    DFT Final Alpha Molecular Orbital Analysis
                    ------------------------------------------

 Vector    1  Occ=1.000000D+00  E=-1.851544D+00
              MO Center=  1.1D-08,  4.2D-09,  6.8D-09, r^2= 1.3D-01
   Bfn.  Coefficient  Atom+Function         Bfn.  Coefficient  Atom+Function  
  ----- ------------  ---------------      ----- ------------  ---------------
     1      0.999002  1 Li s          

 Vector    2  Occ=1.000000D+00  E= 2.014691D-02
              MO Center=  7.8D-07,  3.5D-07,  6.2D-07, r^2= 1.2D+01
   Bfn.  Coefficient  Atom+Function         Bfn.  Coefficient  Atom+Function  
  ----- ------------  ---------------      ----- ------------  ---------------
    10      0.502945  1 Li s                  6      0.423257  1 Li s          
     2      0.206832  1 Li s                  1     -0.153184  1 Li s          

 Vector    3  Occ=0.000000D+00  E= 6.411252D-02
              MO Center=  3.5D-06, -1.1D-05,  9.7D-06, r^2= 4.9D+01
   Bfn.  Coefficient  Atom+Function         Bfn.  Coefficient  Atom+Function  
  ----- ------------  ---------------      ----- ------------  ---------------
    12      0.774704  1 Li py                13     -0.652793  1 Li pz         
    11     -0.233332  1 Li px         

 Vector    4  Occ=0.000000D+00  E= 6.411253D-02
              MO Center= -3.9D-06,  4.3D-06,  6.5D-06, r^2= 4.9D+01
   Bfn.  Coefficient  Atom+Function         Bfn.  Coefficient  Atom+Function  
  ----- ------------  ---------------      ----- ------------  ---------------
    13      0.774018  1 Li pz                12      0.510667  1 Li py         
    11     -0.469963  1 Li px         

 Vector    5  Occ=0.000000D+00  E= 6.411253D-02
              MO Center=  4.8D-05,  2.5D-05,  1.3D-05, r^2= 4.9D+01
   Bfn.  Coefficient  Atom+Function         Bfn.  Coefficient  Atom+Function  
  ----- ------------  ---------------      ----- ------------  ---------------
    11      0.897463  1 Li px                12      0.468831  1 Li py         
    13      0.235600  1 Li pz         

 Vector    6  Occ=0.000000D+00  E= 8.140383D-02
              MO Center= -3.6D-05, -1.3D-05, -2.1D-05, r^2= 3.5D+01
   Bfn.  Coefficient  Atom+Function         Bfn.  Coefficient  Atom+Function  
  ----- ------------  ---------------      ----- ------------  ---------------
     6      1.361890  1 Li s                 10     -1.285203  1 Li s          
     2     -0.305455  1 Li s                  1     -0.160241  1 Li s          

 Vector    7  Occ=0.000000D+00  E= 1.215463D-01
              MO Center= -3.1D-07,  3.2D-06, -2.3D-06, r^2= 1.5D+01
   Bfn.  Coefficient  Atom+Function         Bfn.  Coefficient  Atom+Function  
  ----- ------------  ---------------      ----- ------------  ---------------
     8      0.717352  1 Li py                 9     -0.644599  1 Li pz         
    12     -0.369637  1 Li py                13      0.332149  1 Li pz         
     7     -0.205566  1 Li px         

 Vector    8  Occ=0.000000D+00  E= 1.215464D-01
              MO Center=  2.0D-06, -3.6D-06, -4.3D-06, r^2= 1.5D+01
   Bfn.  Coefficient  Atom+Function         Bfn.  Coefficient  Atom+Function  
  ----- ------------  ---------------      ----- ------------  ---------------
     9      0.744893  1 Li pz                 8      0.602328  1 Li py         
    13     -0.383828  1 Li pz                12     -0.310367  1 Li py         
     7     -0.233874  1 Li px         

 Vector    9  Occ=0.000000D+00  E= 1.215464D-01
              MO Center= -1.2D-05, -3.8D-06, -2.1D-07, r^2= 1.5D+01
   Bfn.  Coefficient  Atom+Function         Bfn.  Coefficient  Atom+Function  
  ----- ------------  ---------------      ----- ------------  ---------------
     7      0.935632  1 Li px                11     -0.482111  1 Li px         
     8      0.308169  1 Li py                 3      0.162712  1 Li px         
    12     -0.158793  1 Li py         

 Vector   10  Occ=0.000000D+00  E= 2.618586D-01
              MO Center=  2.9D-06, -7.1D-06,  7.3D-06, r^2= 1.1D+01
   Bfn.  Coefficient  Atom+Function         Bfn.  Coefficient  Atom+Function  
  ----- ------------  ---------------      ----- ------------  ---------------
     4      1.274918  1 Li py                 8     -1.241830  1 Li py         
     5     -1.153591  1 Li pz                 9      1.123652  1 Li pz         
     3     -0.363643  1 Li px                 7      0.354205  1 Li px         
    12      0.266817  1 Li py                13     -0.241425  1 Li pz         

 Vector   11  Occ=0.000000D+00  E= 2.618587D-01
              MO Center= -2.6D-06,  9.7D-06,  1.2D-05, r^2= 1.1D+01
   Bfn.  Coefficient  Atom+Function         Bfn.  Coefficient  Atom+Function  
  ----- ------------  ---------------      ----- ------------  ---------------
     5      1.324451  1 Li pz                 9     -1.290077  1 Li pz         
     4      1.086794  1 Li py                 8     -1.058588  1 Li py         
     3     -0.391323  1 Li px                 7      0.381167  1 Li px         
    13      0.277183  1 Li pz                12      0.227446  1 Li py         

 Vector   12  Occ=0.000000D+00  E= 2.618588D-01
              MO Center=  3.2D-05,  1.0D-05,  1.6D-06, r^2= 1.1D+01
   Bfn.  Coefficient  Atom+Function         Bfn.  Coefficient  Atom+Function  
  ----- ------------  ---------------      ----- ------------  ---------------
     3      1.674233  1 Li px                 7     -1.630780  1 Li px         
     4      0.530931  1 Li py                 8     -0.517151  1 Li py         
    11      0.350386  1 Li px         

 Vector   13  Occ=0.000000D+00  E= 3.013659D-01
              MO Center= -3.1D-05, -1.2D-05, -2.0D-05, r^2= 1.4D+01
   Bfn.  Coefficient  Atom+Function         Bfn.  Coefficient  Atom+Function  
  ----- ------------  ---------------      ----- ------------  ---------------
     2      3.667641  1 Li s                  6     -3.340295  1 Li s          
    10      0.718469  1 Li s                 14     -0.300744  1 Li dxx        
    17     -0.300744  1 Li dyy               19     -0.300744  1 Li dzz        

 Vector   14  Occ=0.000000D+00  E= 5.974489D-01
              MO Center= -4.1D-07,  1.6D-07, -6.8D-07, r^2= 2.5D+00
   Bfn.  Coefficient  Atom+Function         Bfn.  Coefficient  Atom+Function  
  ----- ------------  ---------------      ----- ------------  ---------------
    18      1.494330  1 Li dyz               16     -0.432688  1 Li dxz        
    15      0.382617  1 Li dxy               14      0.369391  1 Li dxx        
    17     -0.262178  1 Li dyy        


                     DFT Final Beta Molecular Orbital Analysis
                     -----------------------------------------

 Vector    1  Occ=1.000000D+00  E=-1.851544D+00
              MO Center=  1.1D-08,  4.0D-09,  6.4D-09, r^2= 1.3D-01
   Bfn.  Coefficient  Atom+Function         Bfn.  Coefficient  Atom+Function  
  ----- ------------  ---------------      ----- ------------  ---------------
     1      0.999002  1 Li s          

 Vector    2  Occ=1.000000D+00  E= 2.014691D-02
              MO Center=  6.6D-07,  2.0D-07,  2.7D-07, r^2= 1.2D+01
   Bfn.  Coefficient  Atom+Function         Bfn.  Coefficient  Atom+Function  
  ----- ------------  ---------------      ----- ------------  ---------------
    10      0.502945  1 Li s                  6      0.423257  1 Li s          
     2      0.206832  1 Li s                  1     -0.153184  1 Li s          

 Vector    3  Occ=0.000000D+00  E= 6.411252D-02
              MO Center=  5.0D-05,  1.5D-05,  6.5D-07, r^2= 4.9D+01
   Bfn.  Coefficient  Atom+Function         Bfn.  Coefficient  Atom+Function  
  ----- ------------  ---------------      ----- ------------  ---------------
    11      0.997339  1 Li px                12      0.293097  1 Li py         

 Vector    4  Occ=0.000000D+00  E= 6.411252D-02
              MO Center= -5.0D-06,  1.6D-05,  1.9D-05, r^2= 4.9D+01
   Bfn.  Coefficient  Atom+Function         Bfn.  Coefficient  Atom+Function  
  ----- ------------  ---------------      ----- ------------  ---------------
    13      0.778758  1 Li pz                12      0.658021  1 Li py         
    11     -0.203207  1 Li px         

 Vector    5  Occ=0.000000D+00  E= 6.411253D-02
              MO Center=  3.5D-06, -1.2D-05,  1.1D-05, r^2= 4.9D+01
   Bfn.  Coefficient  Atom+Function         Bfn.  Coefficient  Atom+Function  
  ----- ------------  ---------------      ----- ------------  ---------------
    12      0.749567  1 Li py                13     -0.688569  1 Li pz         
    11     -0.211592  1 Li px         

 Vector    6  Occ=0.000000D+00  E= 8.140383D-02
              MO Center= -3.7D-05, -1.5D-05, -2.5D-05, r^2= 3.5D+01
   Bfn.  Coefficient  Atom+Function         Bfn.  Coefficient  Atom+Function  
  ----- ------------  ---------------      ----- ------------  ---------------
     6      1.361890  1 Li s                 10     -1.285203  1 Li s          
     2     -0.305455  1 Li s                  1     -0.160241  1 Li s          

 Vector    7  Occ=0.000000D+00  E= 1.215463D-01
              MO Center= -1.0D-05, -4.6D-06, -1.5D-06, r^2= 1.5D+01
   Bfn.  Coefficient  Atom+Function         Bfn.  Coefficient  Atom+Function  
  ----- ------------  ---------------      ----- ------------  ---------------
     7      0.894958  1 Li px                11     -0.461154  1 Li px         
     8      0.388317  1 Li py                12     -0.200092  1 Li py         
     3      0.155639  1 Li px         

 Vector    8  Occ=0.000000D+00  E= 1.215463D-01
              MO Center=  1.5D-06, -1.3D-06, -1.7D-06, r^2= 1.5D+01
   Bfn.  Coefficient  Atom+Function         Bfn.  Coefficient  Atom+Function  
  ----- ------------  ---------------      ----- ------------  ---------------
     9      0.746509  1 Li pz                 8      0.538638  1 Li py         
    13     -0.384661  1 Li pz                 7     -0.353488  1 Li px         
    12     -0.277549  1 Li py                11      0.182145  1 Li px         

 Vector    9  Occ=0.000000D+00  E= 1.215464D-01
              MO Center= -1.7D-07,  2.6D-06, -1.8D-06, r^2= 1.5D+01
   Bfn.  Coefficient  Atom+Function         Bfn.  Coefficient  Atom+Function  
  ----- ------------  ---------------      ----- ------------  ---------------
     8      0.729000  1 Li py                 9     -0.628065  1 Li pz         
    12     -0.375638  1 Li py                13      0.323629  1 Li pz         
     7     -0.215536  1 Li px         

 Vector   10  Occ=0.000000D+00  E= 2.618586D-01
              MO Center=  3.1D-05,  1.4D-05,  6.1D-06, r^2= 1.1D+01
   Bfn.  Coefficient  Atom+Function         Bfn.  Coefficient  Atom+Function  
  ----- ------------  ---------------      ----- ------------  ---------------
     3      1.574703  1 Li px                 7     -1.533835  1 Li px         
     4      0.721727  1 Li py                 8     -0.702996  1 Li py         
    11      0.329556  1 Li px                 5      0.296386  1 Li pz         
     9     -0.288694  1 Li pz                12      0.151044  1 Li py         

 Vector   11  Occ=0.000000D+00  E= 2.618587D-01
              MO Center= -2.2D-06,  4.4D-06,  6.3D-06, r^2= 1.1D+01
   Bfn.  Coefficient  Atom+Function         Bfn.  Coefficient  Atom+Function  
  ----- ------------  ---------------      ----- ------------  ---------------
     5      1.326155  1 Li pz                 9     -1.291737  1 Li pz         
     4      0.933248  1 Li py                 8     -0.909027  1 Li py         
     3     -0.677337  1 Li px                 7      0.659758  1 Li px         
    13      0.277540  1 Li pz                12      0.195312  1 Li py         

 Vector   12  Occ=0.000000D+00  E= 2.618588D-01
              MO Center=  2.9D-06, -6.7D-06,  6.4D-06, r^2= 1.1D+01
   Bfn.  Coefficient  Atom+Function         Bfn.  Coefficient  Atom+Function  
  ----- ------------  ---------------      ----- ------------  ---------------
     4      1.302529  1 Li py                 8     -1.268724  1 Li py         
     5     -1.114403  1 Li pz                 9      1.085480  1 Li pz         
     3     -0.387233  1 Li px                 7      0.377183  1 Li px         
    12      0.272595  1 Li py                13     -0.233224  1 Li pz         

 Vector   13  Occ=0.000000D+00  E= 3.013659D-01
              MO Center= -3.0D-05, -1.1D-05, -1.8D-05, r^2= 1.4D+01
   Bfn.  Coefficient  Atom+Function         Bfn.  Coefficient  Atom+Function  
  ----- ------------  ---------------      ----- ------------  ---------------
     2      3.667641  1 Li s                  6     -3.340295  1 Li s          
    10      0.718469  1 Li s                 14     -0.300744  1 Li dxx        
    17     -0.300744  1 Li dyy               19     -0.300744  1 Li dzz        

 Vector   14  Occ=0.000000D+00  E= 5.974490D-01
              MO Center= -1.3D-06, -8.4D-07, -5.2D-07, r^2= 2.5D+00
   Bfn.  Coefficient  Atom+Function         Bfn.  Coefficient  Atom+Function  
  ----- ------------  ---------------      ----- ------------  ---------------
    15      1.043886  1 Li dxy               16      0.792703  1 Li dxz        
    14      0.559848  1 Li dxx               19     -0.464143  1 Li dzz        
    18     -0.453749  1 Li dyz        


   alpha - beta orbital overlaps 
   ----------------------------- 


   alpha      1      2      3      4      5      6      7      8      9     10
    beta      1      2      5      4      3      6      9      8      7     12
 overlap   1.000  1.000  0.999  0.957  0.958  1.000  1.000  0.991  0.991  1.000


   alpha     11     12     13     14     15     16     17     18     19
    beta     11     10     13     18     17     16     15     14     19
 overlap   0.983  0.983  1.000  0.997  0.974  0.975  0.905  0.905  1.000

     --------------------------
     Expectation value of S2:  
     --------------------------
      <S2> =      0.0000 (Exact =     0.0000)


 Parallel integral file used       1 records with       0 large values

 ------------------------------------------------------------------------
 dft energy failed                                                                       0
 ------------------------------------------------------------------------
 This type of error is most commonly associated with calculations not reaching convergence criteria
 ------------------------------------------------------------------------
 For more information see the NWChem manual at http://www.nwchem-sw.org/index.php/NWChem_Documentation


 For further details see manual section:                                                                                                                                                                                                                                                                
0:0:dft energy failed:: 0
(rank:0 hostname:shyuep.mit.edu pid:65888):ARMCI DASSERT fail. armci.c:ARMCI_Error():260 cond:0
