
Running Job 1 of 1 mol.qin
qchem mol.qin_21881.0 /tmp/qchem21881/ 1
/global/common/edison/software/qchem/5.1/exe/qcprog.exe mol.qin_21881.0 /tmp/qchem21881/
Check license passed

                  Welcome to Q-Chem
     A Quantum Leap Into The Future Of Chemistry


 Q-Chem 5.1, Q-Chem, Inc., Pleasanton, CA (2018)

 Yihan Shao,  Zhengting Gan,  E. Epifanovsky,  A. T. B. Gilbert,  M. Wormit,  
 J. Kussmann,  A. W. Lange,  A. Behn,  Jia Deng,  Xintian Feng,  D. Ghosh,  
 M. Goldey,  P. R. Horn,  L. D. Jacobson,  I. Kaliman,  T. Kus,  A. Landau,  
 Jie Liu,  E. I. Proynov,  R. M. Richard,  R. P. Steele,  E. J. Sundstrom,  
 H. L. Woodcock III,  P. M. Zimmerman,  D. Zuev,  B. Albrecht,  E. Alguire,  
 S. A. Baeppler,  D. Barton,  Z. Benda,  Y. A. Bernard,  E. J. Berquist,  
 K. B. Bravaya,  H. Burton,  D. Casanova,  Chun-Min Chang,  Yunqing Chen,  
 A. Chien,  K. D. Closser,  M. P. Coons,  S. Coriani,  S. Dasgupta,  
 A. L. Dempwolff,  M. Diedenhofen,  Hainam Do,  R. G. Edgar,  Po-Tung Fang,  
 S. Faraji,  S. Fatehi,  Qingguo Feng,  K. D. Fenk,  J. Fosso-Tande,  
 Qinghui Ge,  A. Ghysels,  G. Gidofalvi,  J. Gomes,  J. Gonthier,  A. Gunina,  
 D. Hait,  M. W. D. Hanson-Heine,  P. H. P. Harbach,  A. W. Hauser,  
 J. E. Herr,  E. G. Hohenstein,  Z. C. Holden,  Kerwin Hui,  B. C. Huynh,  
 T.-C. Jagau,  Hyunjun Ji,  B. Kaduk,  K. Khistyaev,  Jaehoon Kim,  
 P. Klunzinger,  K. Koh,  D. Kosenkov,  L. Koulias,  T. Kowalczyk,  
 C. M. Krauter,  A. Kunitsa,  Ka Un Lao,  A. Laurent,  K. V. Lawler,  
 Joonho Lee,  D. Lefrancois,  S. Lehtola,  D. S. Levine,  Yi-Pei Li,  
 You-Sheng Lin,  Fenglai Liu,  E. Livshits,  A. Luenser,  P. Manohar,  
 E. Mansoor,  S. F. Manzer,  Shan-Ping Mao,  Yuezhi Mao,  N. Mardirossian,  
 A. V. Marenich,  T. Markovich,  L. A. Martinez-Martinez,  S. A. Maurer,  
 N. J. Mayhall,  S. C. McKenzie,  J.-M. Mewes,  A. F. Morrison,  
 J. W. Mullinax,  K. Nanda,  T. S. Nguyen-Beck,  R. Olivares-Amaya,  
 J. A. Parkhill,  T. M. Perrine,  F. Plasser,  P. Pokhilko,  S. Prager,  
 A. Prociuk,  E. Ramos,  D. R. Rehn,  F. Rob,  M. Schneider,  N. Sergueev,  
 S. M. Sharada,  S. Sharma,  D. W. Small,  T. Stauch,  T. Stein,  
 Yu-Chuan Su,  A. J. W. Thom,  A. Tkatchenko,  T. Tsuchimochi,  N. M. Tubman,  
 L. Vogt,  M. L. Vidal,  O. Vydrov,  M. A. Watson,  J. Wenzel,  
 M. de Wergifosse,  T. A. Wesolowski,  A. White,  J. Witte,  A. Yamada,  
 Jun Yang,  K. Yao,  S. Yeganeh,  S. R. Yost,  Zhi-Qiang You,  A. Zech,  
 Igor Ying Zhang,  Xing Zhang,  Yan Zhao,  Ying Zhu,  B. R. Brooks,  
 G. K. L. Chan,  C. J. Cramer,  M. S. Gordon,  W. J. Hehre,  A. Klamt,  
 M. W. Schmidt,  C. D. Sherrill,  D. G. Truhlar,  A. Aspuru-Guzik,  R. Baer,  
 A. T. Bell,  N. A. Besley,  Jeng-Da Chai,  R. A. DiStasio Jr.,  A. Dreuw,  
 B. D. Dunietz,  T. R. Furlani,  Chao-Ping Hsu,  Yousung Jung,  Jing Kong,  
 D. S. Lambrecht,  WanZhen Liang,  C. Ochsenfeld,  V. A. Rassolov,  
 L. V. Slipchenko,  J. E. Subotnik,  T. Van Voorhis,  J. M. Herbert,  
 A. I. Krylov,  P. M. W. Gill,  M. Head-Gordon

 Contributors to earlier versions of Q-Chem not listed above: 
 R. D. Adamson,  B. Austin,  J. Baker,  G. J. O. Beran,  K. Brandhorst,  
 S. T. Brown,  E. F. C. Byrd,  A. K. Chakraborty,  C.-L. Cheng,  
 Siu Hung Chien,  D. M. Chipman,  D. L. Crittenden,  H. Dachsel,  
 R. J. Doerksen,  A. D. Dutoi,  L. Fusti-Molnar,  W. A. Goddard III,  
 A. Golubeva-Zadorozhnaya,  S. R. Gwaltney,  G. Hawkins,  A. Heyden,  
 S. Hirata,  G. Kedziora,  F. J. Keil,  C. Kelley,  Jihan Kim,  R. A. King,  
 R. Z. Khaliullin,  P. P. Korambath,  W. Kurlancheek,  A. M. Lee,  M. S. Lee,  
 S. V. Levchenko,  Ching Yeh Lin,  D. Liotard,  R. C. Lochan,  I. Lotan,  
 P. E. Maslen,  N. Nair,  D. P. O'Neill,  D. Neuhauser,  E. Neuscamman,  
 C. M. Oana,  R. Olson,  B. Peters,  R. Peverati,  P. A. Pieniazek,  
 Y. M. Rhee,  J. Ritchie,  M. A. Rohrdanz,  E. Rosta,  N. J. Russ,  
 H. F. Schaefer III,  N. E. Schultz,  N. Shenvi,  A. C. Simmonett,  A. Sodt,  
 D. Stuck,  K. S. Thanthiriwatte,  V. Vanovschi,  Tao Wang,  A. Warshel,  
 C. F. Williams,  Q. Wu,  X. Xu,  W. Zhang

 Please cite Q-Chem as follows:
 Y. Shao et al., Mol. Phys. 113, 184-215 (2015)
 DOI: 10.1080/00268976.2014.952696

 Q-Chem 5.1.0 for Intel X86 EM64T Linux

 Parts of Q-Chem use Armadillo 8.300.2 (Tropical Shenanigans).
 http://arma.sourceforge.net/

 Q-Chem begins on Wed Nov 14 03:56:03 2018  

Host: edison03
0

     Scratch files written to /tmp/qchem21881//
 Jun2518 |scratch|qcdevops|jenkins|workspace|build_RNUM -1
Processing $rem in /global/common/edison/software/qchem/5.1/config/preferences.
 MEM_TOTAL  48000 
Symmetry turned off for PCM/SM12/SMD calculation

Checking the input file for inconsistencies... 	...done.

--------------------------------------------------------------
User input:
--------------------------------------------------------------
$molecule
-1 3
S      0.5675611574     -1.3475765573      0.1312716934
C      0.7701730589      2.0888113389      0.6398327433
N      0.2560170200     -0.2405454084     -1.0572952662
O     -0.2903064432     -1.1303445669      1.3525797043
F      1.0182902806      3.0260396445     -0.2574598841
F     -0.0761990699      2.5442845377      1.5599466057
F      1.9050417118      1.6655458276      1.2035752319
S     -1.0182603795     -0.3216800365     -1.9909749540
C     -2.2468857956      0.8843459502     -1.2576965280
O     -0.7289341749      0.2781698432     -3.2864409650
O     -1.7386663789     -1.5923193278     -1.9665817703
F     -1.7396022645      2.1158543504     -1.2217577501
F     -3.3521150670      0.9109902149     -2.0064341160
F     -2.5886481186      0.5333078605     -0.0215663877
$end

$rem
job_type = opt
basis = 6-311++g*
max_scf_cycles = 200
gen_scfman = true
scf_algorithm = gdm
method = wb97xd
geom_opt_max_cycles = 200
solvent_method = pcm
$end

$pcm
heavypoints 194
hpoints 194
radii uff
theory cpcm
vdwscale 1.1
$end

$solvent
dielectric 7.0
$end
--------------------------------------------------------------
 ----------------------------------------------------------------
             Standard Nuclear Orientation (Angstroms)
    I     Atom           X                Y                Z
 ----------------------------------------------------------------
    1      S       0.5675611574    -1.3475765573     0.1312716934
    2      C       0.7701730589     2.0888113389     0.6398327433
    3      N       0.2560170200    -0.2405454084    -1.0572952662
    4      O      -0.2903064432    -1.1303445669     1.3525797043
    5      F       1.0182902806     3.0260396445    -0.2574598841
    6      F      -0.0761990699     2.5442845377     1.5599466057
    7      F       1.9050417118     1.6655458276     1.2035752319
    8      S      -1.0182603795    -0.3216800365    -1.9909749540
    9      C      -2.2468857956     0.8843459502    -1.2576965280
   10      O      -0.7289341749     0.2781698432    -3.2864409650
   11      O      -1.7386663789    -1.5923193278    -1.9665817703
   12      F      -1.7396022645     2.1158543504    -1.2217577501
   13      F      -3.3521150670     0.9109902149    -2.0064341160
   14      F      -2.5886481186     0.5333078605    -0.0215663877
 ----------------------------------------------------------------
 Nuclear Repulsion Energy =  1371.3044621516 hartrees
 There are       66 alpha and       64 beta electrons
 Requested basis set is 6-311++G(d)
 There are 98 shells and 324 basis functions

 Total QAlloc Memory Limit  48000 MB
 Mega-Array Size       188 MB
 MEM_STATIC part       192 MB
 Discretize the solute cavity surface with Lebedev spheres
	Using 194 Lebedev grid points for each H atom
	Using 194 Lebedev grid points for other atoms
	Atomic van der Waals radii will be scaled by 1.10
 Remove points where switching function is < 1.0e-08
 Keep 1313 surface tesserae and discard 1403 interior tesserae
 Molecular Surface Area = 233.212 Angst**2
 A cutoff of  1.0D-12 yielded   3711 shell pairs
 There are     43078 function pairs (     46546 Cartesian)
 
 -------------------------------------------------------
 OpenMP Integral Computing Module                       
 Release: version 1.0, May 2013, Q-Chem Inc. Pittsburgh 
 -------------------------------------------------------
 Integral Job Info:
 Integral job number is                      11
 Integral operator is                         1
 short-range coefficients              22203600
 long-range coefficients              100000000
 Omega coefficients                         200
 if combine SR and LR in K                    1
 Integral screening is                        0
 Integral computing path is                   2
 max size of driver memory is            800000
 size of driver memory is                593474
 size of scratch memory is              4293864
 max col of scratch BK array               1296
 max len of scratch array in speh3          155
 max len of scratch index in speh4           18
 max int batch size is                      520
 min int batch size is                       52
 fixed nKL is                                52
 max L of basis functions is                  2
 order of int derivative is                   0
 number of shells is                         98
 number of basis is                         338
 number of cartesian basis is               338
 number of contracted shell pairs          3711
 number of primitive shell pairs           9861
 maxK2 (contraction) of shell pair           36
 max number of K2 of shell pair               1
 max number of CS2 of shell pair            745
 max number of PS2 of shell pair           2544
 mem total for path MDJ                  605404
 -------------------------------------------------------
 Smallest overlap matrix eigenvalue = 5.37E-05

 Scale SEOQF with 1.000000e-01/1.000000e-01/1.000000e-01

 Standard Electronic Orientation quadrupole field applied
 Nucleus-field energy     =     0.0000000011 hartrees
 Guess from superposition of atomic densities
 Warning:  Energy on first SCF cycle will be non-variational
 SAD guess density has 129.000000 electrons

 -----------------------------------------------------------------------
  General SCF calculation program by
  Eric Jon Sundstrom, Paul Horn, Yuezhi Mao, Dmitri Zuev, Alec White,
  David Stuck, Shaama M.S., Shane Yost, Joonho Lee, David Small,
  Daniel Levine, Susi Lehtola, Hugh Burton, Evgeny Epifanovsky
 -----------------------------------------------------------------------
 Exchange:     0.2220 Hartree-Fock + 1.0000 wB97X-D + LR-HF
 Correlation:  1.0000 wB97X-D
 Using SG-2 standard quadrature grid
 Dispersion:   Grimme D
 using 24 threads for integral computing
 -------------------------------------------------------
 OpenMP Integral computing Module                
 Release: version 1.0, May 2013, Q-Chem Inc. Pittsburgh 
 -------------------------------------------------------
 using 24 threads for integral computing
 -------------------------------------------------------
 OpenMP Integral computing Module                
 Release: version 1.0, May 2013, Q-Chem Inc. Pittsburgh 
 -------------------------------------------------------
 -------------------------------------------------------
 OpenMP BLAS3 based DFT computing Module                
 Release: version 1.0, May 2013, Q-Chem Inc. Pittsburgh 
 -------------------------------------------------------
 A unrestricted SCF calculation will be
 performed using Roothaan-Hall, GDM
 SCF converges when RMS gradient is below 1.0e-08
 ---------------------------------------
  Cycle       Energy         DIIS error
 ---------------------------------------
    1   -1754.6049208739      1.77e-02  Roothaan Step
 ---------------------------------------
  Cycle       Energy        RMS Gradient
 ---------------------------------------
    1   -1751.4717152040      2.29e-01   Descent step
    2   -1751.8631991129      6.37e-02   Descent step
    3   -1752.0002229146      1.94e-02   Normal BFGS step
    4   -1752.0139427803      1.57e-02   Normal BFGS step
    5   -1752.0153032738      9.61e-03   Normal BFGS step
    6   -1752.0165728014      3.24e-03   Normal BFGS step
    7   -1752.0166708621      1.98e-03   Normal BFGS step
    8   -1752.0167074485      1.16e-03   Normal BFGS step
    9   -1752.0167182435      4.71e-04   Normal BFGS step
   10   -1752.0167211358      2.36e-04   Normal BFGS step
   11   -1752.0167215760      9.13e-05   Normal BFGS step
   12   -1752.0167217996      3.72e-05   Normal BFGS step
   13   -1752.0167218193      2.35e-05   Normal BFGS step
   14   -1752.0167218242      1.41e-05   Normal BFGS step
   15   -1752.0167218256      7.00e-06   Normal BFGS step
   16   -1752.0167218262      5.21e-06   Normal BFGS step
   17   -1752.0167218263      2.38e-06   Normal BFGS step
   18   -1752.0167218263      5.57e-07   Normal BFGS step
   19   -1752.0167218264      2.68e-07   Normal BFGS step
   20   -1752.0167218264      1.06e-07   Normal BFGS step
   21   -1752.0167218263      7.32e-08   Normal BFGS step
   22   -1752.0167218264      2.78e-08   Normal BFGS step
   23   -1752.0167218263      1.64e-08   Normal BFGS step
   24   -1752.0167218264      8.42e-09  Convergence criterion met
 ---------------------------------------
 SCF time:   CPU 1619.48s  wall 105.00s 
<S^2> =          2.006828235

************** Final PCM Free Energy Summary **************
 G_electrostatic  =      -0.06623883 hartree =     -41.56549453 kcal/mol
 G_cavitation     =       0.00000000 hartree =       0.00000000 kcal/mol
 G_dispersion     =       0.00000000 hartree =       0.00000000 kcal/mol
 G_repulsion      =       0.00000000 hartree =       0.00000000 kcal/mol
 --------------------------------------------------
 Non-electrostatic Free Energy =       0.00000000 hartree =       0.00000000 kcal/mol
 Total                         =      -0.06623883 hartree =     -41.56549453 kcal/mol
 --------------------------------------------------
 SCF Energy (H0 + V/2)                       =   -1752.01672183 
 Solute Internal Energy (H0)                 =   -1751.95048299 
 Total Free Energy (H0 + V/2 + non-elec)     =   -1752.01672183 hartree
                                             = -1099407.08629641 kcal/mol
***********************************************************

 SCF   energy in the final basis set =    -1752.0167218264
 Total energy in the final basis set =    -1752.0167218264
 
 --------------------------------------------------------------
 
                    Orbital Energies (a.u.)
 --------------------------------------------------------------
 
 Alpha MOs
 -- Occupied --
-89.220 -89.097 -24.854 -24.853 -24.852 -24.847 -24.846 -24.846
-19.238 -19.231 -19.229 -14.418 -10.544 -10.531  -8.240  -8.133
 -6.189  -6.188  -6.188  -6.082  -6.079  -6.076  -1.436  -1.434
 -1.350  -1.347  -1.344  -1.343  -1.218  -1.134  -1.101  -0.993
 -0.839  -0.806  -0.786  -0.721  -0.699  -0.698  -0.696  -0.696
 -0.663  -0.624  -0.580  -0.574  -0.572  -0.572  -0.566  -0.550
 -0.546  -0.539  -0.538  -0.531  -0.529  -0.514  -0.509  -0.503
 -0.494  -0.455  -0.420  -0.402  -0.390  -0.378  -0.363  -0.344
 -0.332  -0.273
 -- Virtual --
  0.083   0.092   0.094   0.098   0.110   0.120   0.127   0.129
  0.132   0.137   0.148   0.155   0.162   0.162   0.168   0.180
  0.185   0.192   0.203   0.212   0.224   0.226   0.250   0.254
  0.263   0.270   0.277   0.292   0.301   0.303   0.306   0.313
  0.319   0.326   0.329   0.332   0.343   0.351   0.355   0.359
  0.372   0.380   0.381   0.388   0.392   0.398   0.403   0.407
  0.411   0.420   0.424   0.427   0.435   0.439   0.447   0.452
  0.457   0.468   0.471   0.478   0.483   0.484   0.493   0.501
  0.520   0.528   0.535   0.554   0.572   0.584   0.597   0.605
  0.627   0.655   0.667   0.681   0.753   0.762   0.792   0.806
  0.826   0.830   0.857   0.881   0.906   0.916   0.940   0.989
  1.048   1.072   1.090   1.108   1.127   1.138   1.160   1.179
  1.191   1.215   1.215   1.229   1.239   1.247   1.255   1.273
  1.277   1.283   1.301   1.310   1.327   1.348   1.402   1.434
  1.438   1.446   1.487   1.490   1.499   1.514   1.519   1.524
  1.532   1.547   1.558   1.572   1.583   1.597   1.601   1.615
  1.620   1.662   1.708   1.753   1.757   1.787   1.824   1.845
  1.893   1.914   1.928   1.945   1.954   1.974   1.990   2.013
  2.048   2.066   2.078   2.127   2.201   2.223   2.275   2.297
  2.317   2.634   2.738   2.861   2.868   2.918   2.919   2.927
  2.936   2.952   2.965   3.012   3.019   3.024   3.033   3.046
  3.063   3.070   3.138   3.210   3.255   3.541   3.580   3.706
  3.791   3.796   3.825   3.827   3.829   3.833   3.838   3.840
  3.849   3.849   3.853   3.865   3.867   3.894   3.950   3.954
  3.957   3.967   4.080   4.124   4.175   4.216   4.279   4.285
  4.288   4.291   4.299   4.429   4.474   4.997   5.001   5.025
  5.029   5.100   5.152   5.168   5.177   5.200   5.215   5.232
  5.276   5.436   6.385   6.398   6.402   6.417   6.429   6.448
  6.450   6.454   6.458   6.497   6.502   6.505   6.535   6.549
  6.865   6.874   6.881   6.889   8.134   8.284  17.409  17.503
 17.521  17.539  17.594  17.656  23.599  23.622  35.570  50.022
 50.025  50.064  66.874  66.885  66.911  66.913  66.936  66.960
189.383 189.502
 
 Beta MOs
 -- Occupied --
-89.220 -89.093 -24.851 -24.850 -24.849 -24.847 -24.846 -24.846
-19.231 -19.229 -19.228 -14.416 -10.544 -10.516  -8.240  -8.129
 -6.189  -6.188  -6.187  -6.080  -6.074  -6.068  -1.436  -1.424
 -1.344  -1.343  -1.342  -1.339  -1.217  -1.114  -1.101  -0.986
 -0.837  -0.787  -0.774  -0.715  -0.697  -0.695  -0.688  -0.687
 -0.626  -0.615  -0.575  -0.572  -0.564  -0.563  -0.561  -0.546
 -0.544  -0.533  -0.530  -0.529  -0.527  -0.511  -0.508  -0.484
 -0.470  -0.436  -0.409  -0.397  -0.386  -0.362  -0.342  -0.335
 -- Virtual --
 -0.021  -0.001   0.086   0.094   0.096   0.104   0.114   0.123
  0.129   0.133   0.134   0.140   0.151   0.157   0.163   0.164
  0.171   0.182   0.187   0.197   0.205   0.216   0.226   0.233
  0.259   0.266   0.273   0.281   0.288   0.299   0.304   0.305
  0.308   0.316   0.322   0.329   0.332   0.336   0.346   0.353
  0.359   0.360   0.374   0.383   0.384   0.389   0.394   0.401
  0.405   0.409   0.413   0.421   0.426   0.429   0.439   0.440
  0.449   0.454   0.459   0.469   0.473   0.480   0.485   0.489
  0.496   0.502   0.521   0.529   0.537   0.555   0.573   0.585
  0.600   0.606   0.629   0.656   0.670   0.684   0.759   0.775
  0.803   0.817   0.836   0.843   0.869   0.895   0.910   0.920
  0.949   0.994   1.053   1.078   1.096   1.111   1.132   1.147
  1.163   1.184   1.202   1.223   1.226   1.235   1.249   1.251
  1.264   1.278   1.282   1.290   1.305   1.314   1.330   1.352
  1.406   1.439   1.444   1.451   1.488   1.492   1.501   1.518
  1.524   1.527   1.536   1.551   1.559   1.573   1.596   1.601
  1.605   1.623   1.649   1.682   1.715   1.756   1.765   1.808
  1.825   1.851   1.902   1.929   1.932   1.958   1.966   1.985
  1.994   2.017   2.050   2.069   2.079   2.128   2.207   2.229
  2.276   2.301   2.321   2.640   2.742   2.867   2.912   2.921
  2.932   2.948   2.957   2.961   2.973   3.021   3.037   3.040
  3.047   3.052   3.069   3.078   3.138   3.210   3.256   3.555
  3.583   3.707   3.795   3.797   3.830   3.832   3.833   3.835
  3.838   3.841   3.855   3.855   3.859   3.866   3.868   3.894
  3.951   3.965   3.967   3.968   4.082   4.132   4.185   4.216
  4.280   4.286   4.292   4.295   4.307   4.440   4.474   5.005
  5.009   5.026   5.029   5.131   5.153   5.179   5.184   5.205
  5.218   5.240   5.277   5.437   6.391   6.400   6.406   6.418
  6.436   6.451   6.455   6.459   6.463   6.497   6.502   6.507
  6.536   6.550   6.870   6.876   6.885   6.891   8.138   8.284
 17.421  17.506  17.522  17.541  17.595  17.656  23.617  23.630
 35.572  50.024  50.031  50.065  66.877  66.887  66.911  66.914
 66.938  66.960 189.386 189.502
 --------------------------------------------------------------
 
          Ground-State Mulliken Net Atomic Charges

     Atom                 Charge (a.u.)    Spin (a.u.)
  --------------------------------------------------------
      1 S                     0.368177       0.591996
      2 C                     0.197088       0.861101
      3 N                    -0.426738       0.117107
      4 O                    -0.438756       0.333790
      5 F                    -0.070048       0.037125
      6 F                    -0.065581       0.038095
      7 F                    -0.090830       0.036595
      8 S                     0.274104      -0.039563
      9 C                    -0.053609       0.011025
     10 O                    -0.240486      -0.001252
     11 O                    -0.273015       0.013814
     12 F                    -0.052450       0.000286
     13 F                    -0.076400      -0.000203
     14 F                    -0.051456       0.000085
  --------------------------------------------------------
  Sum of atomic charges =    -1.000000
  Sum of spin   charges =     2.000000

 -----------------------------------------------------------------
                    Cartesian Multipole Moments
 -----------------------------------------------------------------
    Charge (ESU x 10^10)
                -4.8032
    Dipole Moment (Debye)
         X       3.9568      Y       1.4007      Z       5.3876
       Tot       6.8297
    Quadrupole Moments (Debye-Ang)
        XX    -100.9368     XY      -5.6725     YY    -100.2983
        XZ      -6.5582     YZ       0.4771     ZZ    -121.0878
    Octopole Moments (Debye-Ang^2)
       XXX     178.5263    XXY     -28.7543    XYY      66.3080
       YYY    -102.4727    XXZ      76.2508    XYZ       6.4427
       YYZ      69.9841    XZZ      78.7093    YZZ     -30.8858
       ZZZ     253.1406
    Hexadecapole Moments (Debye-Ang^3)
      XXXX   -1346.6693   XXXY      -9.6667   XXYY    -445.4585
      XYYY     -12.8165   YYYY   -1302.4436   XXXZ    -434.8105
      XXYZ     -29.6491   XYYZ    -147.4056   YYYZ     -58.5770
      XXZZ    -485.0599   XYZZ     -13.0684   YYZZ    -471.3295
      XZZZ    -458.7722   YZZZ     -36.1257   ZZZZ   -1643.3942
 -----------------------------------------------------------------
 Calculating analytic gradient of the SCF energy
 Gradient of SCF Energy
            1           2           3           4           5           6
    1  -0.0113305   0.0075124  -0.0187865   0.0078713  -0.0044867   0.0047635
    2  -0.0029306   0.0186816  -0.0099661  -0.0007660  -0.0128467  -0.0033796
    3   0.0124905   0.0044999  -0.0180985  -0.0132156   0.0099533  -0.0091264
            7           8           9          10          11          12
    1  -0.0064145   0.0140769  -0.0199032  -0.0119772   0.0246144  -0.0071725
    2  -0.0009901   0.0089229   0.0077312  -0.0183013   0.0232315  -0.0180293
    3  -0.0045999   0.0021876   0.0021844   0.0242231  -0.0046582   0.0012336
           13          14
    1   0.0146878   0.0065448
    2   0.0007092   0.0079334
    3   0.0116132  -0.0186870
 Max gradient component =       2.461E-02
 RMS gradient           =       1.231E-02
 Computing fast CPCM-SWIG gradient
 Updating gradient with PCM contributions...
 -- total gradient after adding PCM contribution --
---------------------------------------------------
  Atom         X              Y              Z     
---------------------------------------------------
   1       0.000421       0.000306       0.000106
   2      -0.004171      -0.002517      -0.006363
   3      -0.000133      -0.000035      -0.000338
   4      -0.000195       0.000025      -0.000005
   5      -0.000369       0.003001      -0.002191
   6      -0.006219       0.003477       0.004131
   7       0.010188      -0.004864       0.003821
   8      -0.000432      -0.000033      -0.000098
   9       0.000357       0.000356      -0.000249
  10       0.000258       0.000334       0.000227
  11       0.000381       0.000378       0.000642
  12       0.000141      -0.000241      -0.000014
  13      -0.000042      -0.000054       0.000010
  14      -0.000185      -0.000133       0.000320
---------------------------------------------------
 Number of fixed atoms: 0
 Gradient time:  CPU 121.12 s  wall 13.16 s
 Geometry Optimization Parameters
   NAtoms,    NIC,     NZ,  NCons,   NDum,   NFix, NCnnct, MaxDiis
       14     115       0       0       0       0       0       0


** GEOMETRY OPTIMIZATION IN DELOCALIZED INTERNAL COORDINATES **
   Searching for a Minimum

   Optimization Cycle:   1

                       Coordinates (Angstroms)
     ATOM                X               Y               Z
      1  S         0.5675611574   -1.3475765573    0.1312716934
      2  C         0.7701730589    2.0888113389    0.6398327433
      3  N         0.2560170200   -0.2405454084   -1.0572952662
      4  O        -0.2903064432   -1.1303445669    1.3525797043
      5  F         1.0182902806    3.0260396445   -0.2574598841
      6  F        -0.0761990699    2.5442845377    1.5599466057
      7  F         1.9050417118    1.6655458276    1.2035752319
      8  S        -1.0182603795   -0.3216800365   -1.9909749540
      9  C        -2.2468857956    0.8843459502   -1.2576965280
     10  O        -0.7289341749    0.2781698432   -3.2864409650
     11  O        -1.7386663789   -1.5923193278   -1.9665817703
     12  F        -1.7396022645    2.1158543504   -1.2217577501
     13  F        -3.3521150670    0.9109902149   -2.0064341160
     14  F        -2.5886481186    0.5333078605   -0.0215663877
   Point Group: c1    Number of degrees of freedom:    36


   Energy is  -1752.016721826


 Attempting to Generate Delocalized Internal Coordinates

 36 Hessian modes will be used to form the next step
  Hessian Eigenvalues:
     0.009023    0.011670    0.011902    0.014902    0.021320    0.024044
     0.031435    0.042201    0.059850    0.073373    0.081504    0.087641
     0.103171    0.109333    0.117477    0.122330    0.143121    0.147269
     0.156687    0.179290    0.185200    0.205890    0.208328    0.225362
     0.250000    0.420690    0.518480    0.558157    0.578715    0.581116
     0.582864    0.593717    0.595815    0.740183    0.912504    0.930403

 Minimum Search - Taking Simple RFO Step
 Searching for Lamda that Minimizes Along All modes
 Value Taken    Lamda =  -0.00048334
 Step Taken.  Stepsize is  0.059539

                             Maximum     Tolerance    Cnvgd?
         Gradient           0.011397      0.000300      NO
         Displacement       0.028885      0.001200      NO
         Energy change     *********      0.000001      NO


 New Cartesian Coordinates Obtained by Inverse Iteration

 Displacement from previous Coordinates is:  0.070147
 ----------------------------------------------------------------
             Standard Nuclear Orientation (Angstroms)
    I     Atom           X                Y                Z
 ----------------------------------------------------------------
    1      S       0.5581986987    -1.3591385552     0.1295854786
    2      C       0.7737044517     2.0978182494     0.6440763634
    3      N       0.2527025049    -0.2484513033    -1.0573014065
    4      O      -0.2882932129    -1.1328855253     1.3570569770
    5      F       1.0229799488     3.0287712516    -0.2549953573
    6      F      -0.0633764819     2.5496283092     1.5642135258
    7      F       1.8999031754     1.6844123170     1.2071799461
    8      S      -1.0195476885    -0.3249602861    -1.9949650337
    9      C      -2.2465136456     0.8820467678    -1.2579371140
   10      O      -0.7279153107     0.2773705261    -3.2887759333
   11      O      -1.7444307319    -1.5935330560    -1.9802205604
   12      F      -1.7408659817     2.1147484569    -1.2199571380
   13      F      -3.3529146290     0.9099380587    -2.0048464937
   14      F      -2.5861655609     0.5291184602    -0.0221148970
 ----------------------------------------------------------------
 Nuclear Repulsion Energy =  1370.5148987193 hartrees
 There are       66 alpha and       64 beta electrons
 Discretize the solute cavity surface with Lebedev spheres
	Using 194 Lebedev grid points for each H atom
	Using 194 Lebedev grid points for other atoms
	Atomic van der Waals radii will be scaled by 1.10
 Remove points where switching function is < 1.0e-08
 Keep 1323 surface tesserae and discard 1393 interior tesserae
 Molecular Surface Area = 233.616 Angst**2
 Applying Cartesian multipole field
    Component          Value
    ---------          -----
     (2,0,0)        1.00000E-11
     (0,2,0)        2.00000E-11
     (0,0,2)       -3.00000E-11
 Nucleus-field energy     =     0.0000000012 hartrees
 Requested basis set is 6-311++G(d)
 There are 98 shells and 324 basis functions
 A cutoff of  1.0D-12 yielded   3708 shell pairs
 There are     43068 function pairs (     46535 Cartesian)
 Smallest overlap matrix eigenvalue = 5.43E-05
 Guess MOs from SCF MO coefficient file
 Reading MOs from coefficient file
 Reading MOs from coefficient file

 -----------------------------------------------------------------------
  General SCF calculation program by
  Eric Jon Sundstrom, Paul Horn, Yuezhi Mao, Dmitri Zuev, Alec White,
  David Stuck, Shaama M.S., Shane Yost, Joonho Lee, David Small,
  Daniel Levine, Susi Lehtola, Hugh Burton, Evgeny Epifanovsky
 -----------------------------------------------------------------------
 Exchange:     0.2220 Hartree-Fock + 1.0000 wB97X-D + LR-HF
 Correlation:  1.0000 wB97X-D
 Using SG-2 standard quadrature grid
 Dispersion:   Grimme D
 using 24 threads for integral computing
 -------------------------------------------------------
 OpenMP Integral computing Module                
 Release: version 1.0, May 2013, Q-Chem Inc. Pittsburgh 
 -------------------------------------------------------
 using 24 threads for integral computing
 -------------------------------------------------------
 OpenMP Integral computing Module                
 Release: version 1.0, May 2013, Q-Chem Inc. Pittsburgh 
 -------------------------------------------------------
 -------------------------------------------------------
 OpenMP BLAS3 based DFT computing Module                
 Release: version 1.0, May 2013, Q-Chem Inc. Pittsburgh 
 -------------------------------------------------------
 A unrestricted SCF calculation will be
 performed using Roothaan-Hall, GDM
 SCF converges when RMS gradient is below 1.0e-08
 ---------------------------------------
  Cycle       Energy         DIIS error
 ---------------------------------------
    1   -1736.8448334705      1.25e-04  Roothaan Step
 ---------------------------------------
  Cycle       Energy        RMS Gradient
 ---------------------------------------
    1   -1752.0157210822      8.30e-03   Normal BFGS step
    2   -1752.0163573819      7.87e-03   Normal BFGS step
    3   -1752.0169452453      2.13e-03   Normal BFGS step
    4   -1752.0169755670      1.44e-03   Normal BFGS step
    5   -1752.0170087831      3.46e-04   Normal BFGS step
    6   -1752.0170105728      2.23e-04   Normal BFGS step
    7   -1752.0170115065      1.18e-04   Normal BFGS step
    8   -1752.0170116035      8.32e-05   Normal BFGS step
    9   -1752.0170116529      4.58e-05   Normal BFGS step
   10   -1752.0170116651      1.42e-05   Normal BFGS step
   11   -1752.0170116687      1.05e-05   Normal BFGS step
   12   -1752.0170116693      5.40e-06   Normal BFGS step
   13   -1752.0170116696      2.74e-06   Normal BFGS step
   14   -1752.0170116696      1.21e-06   Normal BFGS step
   15   -1752.0170116697      5.65e-07   Normal BFGS step
   16   -1752.0170116697      2.95e-07   Normal BFGS step
   17   -1752.0170116697      1.84e-07   Normal BFGS step
   18   -1752.0170116697      5.81e-08   Normal BFGS step
   19   -1752.0170116697      2.34e-08   Normal BFGS step
   20   -1752.0170116697      1.18e-08   Normal BFGS step
   21   -1752.0170116697      6.95e-09  Convergence criterion met
 ---------------------------------------
 SCF time:   CPU 1457.49s  wall 96.00s 
<S^2> =          2.006802154

************** Final PCM Free Energy Summary **************
 G_electrostatic  =      -0.06623578 hartree =     -41.56358082 kcal/mol
 G_cavitation     =       0.00000000 hartree =       0.00000000 kcal/mol
 G_dispersion     =       0.00000000 hartree =       0.00000000 kcal/mol
 G_repulsion      =       0.00000000 hartree =       0.00000000 kcal/mol
 --------------------------------------------------
 Non-electrostatic Free Energy =       0.00000000 hartree =       0.00000000 kcal/mol
 Total                         =      -0.06623578 hartree =     -41.56358082 kcal/mol
 --------------------------------------------------
 SCF Energy (H0 + V/2)                       =   -1752.01701167 
 Solute Internal Energy (H0)                 =   -1751.95077589 
 Total Free Energy (H0 + V/2 + non-elec)     =   -1752.01701167 hartree
                                             = -1099407.26817584 kcal/mol
***********************************************************

 SCF   energy in the final basis set =    -1752.0170116697
 Total energy in the final basis set =    -1752.0170116697
 
 --------------------------------------------------------------
 
                    Orbital Energies (a.u.)
 --------------------------------------------------------------
 
 Alpha MOs
 -- Occupied --
-89.220 -89.097 -24.853 -24.853 -24.852 -24.847 -24.846 -24.846
-19.238 -19.231 -19.229 -14.418 -10.544 -10.529  -8.240  -8.133
 -6.189  -6.188  -6.188  -6.082  -6.079  -6.076  -1.438  -1.436
 -1.351  -1.350  -1.344  -1.343  -1.218  -1.134  -1.101  -0.993
 -0.839  -0.806  -0.786  -0.720  -0.700  -0.700  -0.696  -0.696
 -0.665  -0.624  -0.580  -0.574  -0.574  -0.572  -0.566  -0.550
 -0.546  -0.539  -0.538  -0.531  -0.529  -0.513  -0.508  -0.503
 -0.494  -0.455  -0.420  -0.402  -0.390  -0.378  -0.362  -0.345
 -0.330  -0.273
 -- Virtual --
  0.083   0.092   0.094   0.099   0.110   0.120   0.127   0.129
  0.132   0.137   0.148   0.155   0.161   0.162   0.168   0.180
  0.185   0.191   0.203   0.212   0.224   0.226   0.254   0.258
  0.263   0.271   0.278   0.298   0.302   0.303   0.307   0.314
  0.319   0.326   0.329   0.333   0.343   0.351   0.356   0.359
  0.372   0.380   0.381   0.388   0.392   0.398   0.403   0.407
  0.411   0.419   0.424   0.427   0.436   0.439   0.448   0.452
  0.457   0.468   0.472   0.478   0.483   0.485   0.493   0.500
  0.520   0.528   0.535   0.554   0.572   0.584   0.597   0.604
  0.627   0.656   0.666   0.681   0.753   0.763   0.792   0.807
  0.826   0.831   0.856   0.881   0.906   0.916   0.939   0.990
  1.047   1.072   1.091   1.108   1.127   1.138   1.160   1.179
  1.191   1.215   1.215   1.229   1.239   1.246   1.255   1.273
  1.276   1.283   1.301   1.310   1.327   1.347   1.401   1.434
  1.437   1.444   1.487   1.491   1.500   1.514   1.519   1.524
  1.532   1.547   1.558   1.572   1.581   1.595   1.600   1.615
  1.621   1.662   1.708   1.751   1.756   1.787   1.823   1.846
  1.895   1.915   1.929   1.954   1.955   1.976   1.990   2.010
  2.048   2.066   2.078   2.126   2.200   2.224   2.275   2.297
  2.316   2.634   2.738   2.862   2.868   2.918   2.919   2.927
  2.935   2.952   2.965   3.012   3.021   3.034   3.041   3.045
  3.066   3.070   3.137   3.210   3.255   3.541   3.579   3.706
  3.790   3.797   3.825   3.826   3.828   3.833   3.838   3.840
  3.849   3.849   3.853   3.866   3.867   3.894   3.950   3.957
  3.960   3.967   4.079   4.123   4.186   4.216   4.279   4.285
  4.291   4.304   4.309   4.438   4.474   5.003   5.008   5.025
  5.029   5.099   5.152   5.167   5.177   5.199   5.215   5.231
  5.276   5.436   6.386   6.399   6.402   6.417   6.432   6.447
  6.451   6.456   6.459   6.497   6.502   6.506   6.535   6.548
  6.872   6.877   6.888   6.894   8.135   8.283  17.408  17.503
 17.520  17.539  17.594  17.655  23.611  23.623  35.569  50.022
 50.025  50.064  66.875  66.886  66.911  66.913  66.937  66.960
189.383 189.501
 
 Beta MOs
 -- Occupied --
-89.220 -89.093 -24.851 -24.850 -24.849 -24.847 -24.846 -24.846
-19.231 -19.229 -19.228 -14.416 -10.544 -10.514  -8.240  -8.129
 -6.189  -6.188  -6.187  -6.080  -6.074  -6.068  -1.436  -1.428
 -1.344  -1.343  -1.343  -1.341  -1.217  -1.114  -1.100  -0.986
 -0.837  -0.788  -0.774  -0.715  -0.697  -0.695  -0.690  -0.689
 -0.628  -0.616  -0.574  -0.572  -0.564  -0.564  -0.561  -0.546
 -0.544  -0.533  -0.530  -0.529  -0.527  -0.510  -0.508  -0.484
 -0.470  -0.436  -0.409  -0.397  -0.386  -0.362  -0.342  -0.335
 -- Virtual --
 -0.021   0.000   0.086   0.094   0.096   0.104   0.114   0.123
  0.129   0.133   0.134   0.140   0.151   0.157   0.163   0.164
  0.171   0.182   0.187   0.196   0.206   0.216   0.226   0.233
  0.260   0.267   0.275   0.282   0.289   0.303   0.305   0.307
  0.310   0.317   0.322   0.329   0.332   0.337   0.346   0.353
  0.359   0.360   0.374   0.383   0.384   0.389   0.394   0.401
  0.405   0.409   0.413   0.421   0.427   0.430   0.439   0.440
  0.449   0.454   0.459   0.469   0.474   0.480   0.485   0.489
  0.496   0.502   0.521   0.529   0.538   0.554   0.573   0.585
  0.600   0.606   0.629   0.657   0.669   0.683   0.760   0.775
  0.803   0.818   0.836   0.844   0.868   0.895   0.910   0.919
  0.949   0.995   1.052   1.077   1.096   1.111   1.132   1.147
  1.162   1.184   1.202   1.223   1.226   1.235   1.249   1.251
  1.264   1.278   1.282   1.289   1.305   1.314   1.330   1.351
  1.405   1.438   1.443   1.449   1.488   1.492   1.501   1.518
  1.524   1.527   1.536   1.551   1.559   1.573   1.594   1.601
  1.604   1.622   1.649   1.683   1.715   1.755   1.763   1.808
  1.824   1.852   1.902   1.930   1.932   1.957   1.977   1.988
  1.995   2.014   2.050   2.069   2.079   2.128   2.206   2.229
  2.276   2.300   2.321   2.640   2.741   2.867   2.913   2.922
  2.932   2.948   2.957   2.960   2.972   3.021   3.041   3.046
  3.049   3.056   3.074   3.079   3.137   3.210   3.256   3.554
  3.582   3.707   3.794   3.797   3.830   3.832   3.832   3.834
  3.838   3.841   3.855   3.856   3.858   3.866   3.868   3.894
  3.950   3.966   3.969   3.972   4.081   4.131   4.196   4.217
  4.280   4.286   4.292   4.312   4.317   4.449   4.474   5.011
  5.015   5.026   5.030   5.131   5.153   5.178   5.184   5.204
  5.218   5.239   5.277   5.437   6.391   6.400   6.407   6.418
  6.441   6.450   6.456   6.460   6.463   6.497   6.502   6.507
  6.536   6.549   6.875   6.878   6.894   6.899   8.138   8.284
 17.420  17.506  17.521  17.541  17.595  17.655  23.619  23.642
 35.571  50.024  50.031  50.064  66.877  66.888  66.911  66.914
 66.938  66.960 189.386 189.502
 --------------------------------------------------------------
 
          Ground-State Mulliken Net Atomic Charges

     Atom                 Charge (a.u.)    Spin (a.u.)
  --------------------------------------------------------
      1 S                     0.367894       0.592253
      2 C                     0.193883       0.862941
      3 N                    -0.424057       0.115975
      4 O                    -0.437590       0.334471
      5 F                    -0.071533       0.036839
      6 F                    -0.063766       0.037697
      7 F                    -0.087045       0.036392
      8 S                     0.268478      -0.040859
      9 C                    -0.051159       0.011398
     10 O                    -0.241415      -0.001357
     11 O                    -0.272479       0.014004
     12 F                    -0.052908       0.000371
     13 F                    -0.076357      -0.000211
     14 F                    -0.051946       0.000084
  --------------------------------------------------------
  Sum of atomic charges =    -1.000000
  Sum of spin   charges =     2.000000

 -----------------------------------------------------------------
                    Cartesian Multipole Moments
 -----------------------------------------------------------------
    Charge (ESU x 10^10)
                -4.8032
    Dipole Moment (Debye)
         X       3.9752      Y       1.4031      Z       5.4359
       Tot       6.8790
    Quadrupole Moments (Debye-Ang)
        XX    -100.9197     XY      -5.6609     YY    -100.2905
        XZ      -6.6237     YZ       0.4803     ZZ    -121.2037
    Octopole Moments (Debye-Ang^2)
       XXX     179.1632    XXY     -28.4763    XYY      66.4119
       YYY    -102.0286    XXZ      76.6105    XYZ       6.5859
       YYZ      70.2536    XZZ      79.0793    YZZ     -30.4749
       ZZZ     253.7937
    Hexadecapole Moments (Debye-Ang^3)
      XXXX   -1346.4030   XXXY     -11.6585   XXYY    -446.6656
      XYYY     -15.1191   YYYY   -1309.0282   XXXZ    -436.3384
      XXYZ     -30.4433   XYYZ    -148.0495   YYYZ     -60.2984
      XXZZ    -486.1653   XYZZ     -14.1564   YYZZ    -473.5108
      XZZZ    -460.5563   YZZZ     -38.3703   ZZZZ   -1649.3408
 -----------------------------------------------------------------
 Calculating analytic gradient of the SCF energy
 Gradient of SCF Energy
            1           2           3           4           5           6
    1  -0.0114095   0.0096394  -0.0182434   0.0078858  -0.0040890   0.0102108
    2  -0.0026654   0.0201837  -0.0097005  -0.0011069  -0.0156651  -0.0060821
    3   0.0125050   0.0076166  -0.0178386  -0.0131454   0.0128210  -0.0123033
            7           8           9          10          11          12
    1  -0.0143199   0.0141155  -0.0199945  -0.0122654   0.0243610  -0.0073207
    2   0.0030776   0.0087909   0.0075554  -0.0185831   0.0229553  -0.0175825
    3  -0.0074135   0.0018839   0.0025338   0.0240966  -0.0047567   0.0012623
           13          14
    1   0.0147600   0.0066699
    2   0.0007502   0.0080726
    3   0.0116510  -0.0189127
 Max gradient component =       2.436E-02
 RMS gradient           =       1.288E-02
 Computing fast CPCM-SWIG gradient
 Updating gradient with PCM contributions...
 -- total gradient after adding PCM contribution --
---------------------------------------------------
  Atom         X              Y              Z     
---------------------------------------------------
   1       0.000092       0.000356       0.000201
   2      -0.002184      -0.000733      -0.003414
   3       0.000302       0.000253      -0.000070
   4      -0.000048      -0.000147       0.000076
   5       0.000104      -0.000118       0.000804
   6      -0.000444       0.000593       0.000981
   7       0.002064      -0.000478       0.001089
   8      -0.000083      -0.000294      -0.000007
   9       0.000349       0.000094      -0.000007
  10      -0.000107       0.000020       0.000060
  11       0.000064       0.000187       0.000021
  12      -0.000049       0.000241       0.000134
  13       0.000043      -0.000013       0.000096
  14      -0.000104       0.000040       0.000036
---------------------------------------------------
 Number of fixed atoms: 0
 Gradient time:  CPU 118.98 s  wall 12.81 s
 Geometry Optimization Parameters
   NAtoms,    NIC,     NZ,  NCons,   NDum,   NFix, NCnnct, MaxDiis
       14     115       0       0       0       0       0       0

 Cartesian Hessian Update
 Hessian Updated using BFGS Update


** GEOMETRY OPTIMIZATION IN DELOCALIZED INTERNAL COORDINATES **
   Searching for a Minimum

   Optimization Cycle:   2

                       Coordinates (Angstroms)
     ATOM                X               Y               Z
      1  S         0.5581986987   -1.3591385552    0.1295854786
      2  C         0.7737044517    2.0978182494    0.6440763634
      3  N         0.2527025049   -0.2484513033   -1.0573014065
      4  O        -0.2882932129   -1.1328855253    1.3570569770
      5  F         1.0229799488    3.0287712516   -0.2549953573
      6  F        -0.0633764819    2.5496283092    1.5642135258
      7  F         1.8999031754    1.6844123170    1.2071799461
      8  S        -1.0195476885   -0.3249602861   -1.9949650337
      9  C        -2.2465136456    0.8820467678   -1.2579371140
     10  O        -0.7279153107    0.2773705261   -3.2887759333
     11  O        -1.7444307319   -1.5935330560   -1.9802205604
     12  F        -1.7408659817    2.1147484569   -1.2199571380
     13  F        -3.3529146290    0.9099380587   -2.0048464937
     14  F        -2.5861655609    0.5291184602   -0.0221148970
   Point Group: c1    Number of degrees of freedom:    36


   Energy is  -1752.017011670

 Hessian Updated using BFGS Update

 36 Hessian modes will be used to form the next step
  Hessian Eigenvalues:
     0.008894    0.011422    0.011826    0.014866    0.020193    0.023963
     0.030148    0.041906    0.059872    0.073606    0.080520    0.087573
     0.103155    0.110867    0.118218    0.122832    0.141855    0.147145
     0.156399    0.181968    0.188693    0.205658    0.207938    0.226387
     0.250652    0.420684    0.508273    0.518526    0.559635    0.582829
     0.588300    0.595798    0.603839    0.740187    0.912311    0.930423

 Minimum Search - Taking Simple RFO Step
 Searching for Lamda that Minimizes Along All modes
 Value Taken    Lamda =  -0.00007263
 Step Taken.  Stepsize is  0.053603

                             Maximum     Tolerance    Cnvgd?
         Gradient           0.001242      0.000300      NO
         Displacement       0.022594      0.001200      NO
         Energy change     -0.000290      0.000001      NO


 New Cartesian Coordinates Obtained by Inverse Iteration

 Displacement from previous Coordinates is:  0.059267
 ----------------------------------------------------------------
             Standard Nuclear Orientation (Angstroms)
    I     Atom           X                Y                Z
 ----------------------------------------------------------------
    1      S       0.5493750284    -1.3712016316     0.1260804489
    2      C       0.7789118904     2.1065823506     0.6501646479
    3      N       0.2490067300    -0.2560645470    -1.0577817321
    4      O      -0.2853890791    -1.1329180139     1.3591805973
    5      F       1.0275817726     3.0319994507    -0.2553083760
    6      F      -0.0581350953     2.5601510370     1.5665500529
    7      F       1.9011754630     1.6946589011     1.2133756342
    8      S      -1.0213650006    -0.3267881935    -1.9983837886
    9      C      -2.2475155239     0.8792272056    -1.2580737461
   10      O      -0.7254524518     0.2791661395    -3.2895880191
   11      O      -1.7486413843    -1.5942403471    -1.9901979351
   12      F      -1.7424735229     2.1124415175    -1.2192133515
   13      F      -3.3549870760     0.9077765037    -2.0035393746
   14      F      -2.5846262139     0.5240932983    -0.0222667009
 ----------------------------------------------------------------
 Nuclear Repulsion Energy =  1369.3700032720 hartrees
 There are       66 alpha and       64 beta electrons
 Discretize the solute cavity surface with Lebedev spheres
	Using 194 Lebedev grid points for each H atom
	Using 194 Lebedev grid points for other atoms
	Atomic van der Waals radii will be scaled by 1.10
 Remove points where switching function is < 1.0e-08
 Keep 1323 surface tesserae and discard 1393 interior tesserae
 Molecular Surface Area = 234.108 Angst**2
 Applying Cartesian multipole field
    Component          Value
    ---------          -----
     (2,0,0)        1.00000E-11
     (0,2,0)        2.00000E-11
     (0,0,2)       -3.00000E-11
 Nucleus-field energy     =     0.0000000012 hartrees
 Requested basis set is 6-311++G(d)
 There are 98 shells and 324 basis functions
 A cutoff of  1.0D-12 yielded   3708 shell pairs
 There are     43068 function pairs (     46535 Cartesian)
 Smallest overlap matrix eigenvalue = 5.46E-05
 Guess MOs from SCF MO coefficient file
 Reading MOs from coefficient file
 Reading MOs from coefficient file

 -----------------------------------------------------------------------
  General SCF calculation program by
  Eric Jon Sundstrom, Paul Horn, Yuezhi Mao, Dmitri Zuev, Alec White,
  David Stuck, Shaama M.S., Shane Yost, Joonho Lee, David Small,
  Daniel Levine, Susi Lehtola, Hugh Burton, Evgeny Epifanovsky
 -----------------------------------------------------------------------
 Exchange:     0.2220 Hartree-Fock + 1.0000 wB97X-D + LR-HF
 Correlation:  1.0000 wB97X-D
 Using SG-2 standard quadrature grid
 Dispersion:   Grimme D
 using 24 threads for integral computing
 -------------------------------------------------------
 OpenMP Integral computing Module                
 Release: version 1.0, May 2013, Q-Chem Inc. Pittsburgh 
 -------------------------------------------------------
 using 24 threads for integral computing
 -------------------------------------------------------
 OpenMP Integral computing Module                
 Release: version 1.0, May 2013, Q-Chem Inc. Pittsburgh 
 -------------------------------------------------------
 -------------------------------------------------------
 OpenMP BLAS3 based DFT computing Module                
 Release: version 1.0, May 2013, Q-Chem Inc. Pittsburgh 
 -------------------------------------------------------
 A unrestricted SCF calculation will be
 performed using Roothaan-Hall, GDM
 SCF converges when RMS gradient is below 1.0e-08
 ---------------------------------------
  Cycle       Energy         DIIS error
 ---------------------------------------
    1   -1736.8527221492      1.18e-04  Roothaan Step
 ---------------------------------------
  Cycle       Energy        RMS Gradient
 ---------------------------------------
    1   -1752.0157697961      8.29e-03   Normal BFGS step
    2   -1752.0164065930      7.97e-03   Normal BFGS step
    3   -1752.0169985227      2.18e-03   Normal BFGS step
    4   -1752.0170271421      1.55e-03   Normal BFGS step
    5   -1752.0170605901      3.71e-04   Normal BFGS step
    6   -1752.0170623812      2.40e-04   Normal BFGS step
    7   -1752.0170633438      1.29e-04   Normal BFGS step
    8   -1752.0170634502      8.92e-05   Normal BFGS step
    9   -1752.0170635052      4.64e-05   Normal BFGS step
   10   -1752.0170635184      1.36e-05   Normal BFGS step
   11   -1752.0170635222      1.08e-05   Normal BFGS step
   12   -1752.0170635229      5.82e-06   Normal BFGS step
   13   -1752.0170635232      2.84e-06   Normal BFGS step
   14   -1752.0170635233      1.18e-06   Normal BFGS step
   15   -1752.0170635233      5.23e-07   Normal BFGS step
   16   -1752.0170635233      2.94e-07   Normal BFGS step
   17   -1752.0170635233      1.80e-07   Normal BFGS step
   18   -1752.0170635233      5.52e-08   Normal BFGS step
   19   -1752.0170635233      2.61e-08   Normal BFGS step
   20   -1752.0170635233      1.24e-08   Normal BFGS step
   21   -1752.0170635233      6.25e-09  Convergence criterion met
 ---------------------------------------
 SCF time:   CPU 1473.71s  wall 96.00s 
<S^2> =          2.006787985

************** Final PCM Free Energy Summary **************
 G_electrostatic  =      -0.06627357 hartree =     -41.58728980 kcal/mol
 G_cavitation     =       0.00000000 hartree =       0.00000000 kcal/mol
 G_dispersion     =       0.00000000 hartree =       0.00000000 kcal/mol
 G_repulsion      =       0.00000000 hartree =       0.00000000 kcal/mol
 --------------------------------------------------
 Non-electrostatic Free Energy =       0.00000000 hartree =       0.00000000 kcal/mol
 Total                         =      -0.06627357 hartree =     -41.58728980 kcal/mol
 --------------------------------------------------
 SCF Energy (H0 + V/2)                       =   -1752.01706352 
 Solute Internal Energy (H0)                 =   -1751.95078996 
 Total Free Energy (H0 + V/2 + non-elec)     =   -1752.01706352 hartree
                                             = -1099407.30071448 kcal/mol
***********************************************************

 SCF   energy in the final basis set =    -1752.0170635233
 Total energy in the final basis set =    -1752.0170635233
 
 --------------------------------------------------------------
 
                    Orbital Energies (a.u.)
 --------------------------------------------------------------
 
 Alpha MOs
 -- Occupied --
-89.220 -89.096 -24.853 -24.853 -24.853 -24.847 -24.846 -24.846
-19.238 -19.231 -19.229 -14.417 -10.544 -10.529  -8.240  -8.133
 -6.189  -6.188  -6.188  -6.082  -6.079  -6.076  -1.439  -1.436
 -1.352  -1.351  -1.344  -1.343  -1.218  -1.134  -1.101  -0.993
 -0.839  -0.806  -0.786  -0.720  -0.701  -0.701  -0.696  -0.696
 -0.666  -0.624  -0.579  -0.575  -0.574  -0.572  -0.565  -0.550
 -0.546  -0.540  -0.539  -0.531  -0.529  -0.514  -0.508  -0.503
 -0.494  -0.455  -0.420  -0.402  -0.390  -0.377  -0.361  -0.344
 -0.330  -0.273
 -- Virtual --
  0.083   0.092   0.094   0.099   0.110   0.120   0.127   0.129
  0.132   0.137   0.148   0.154   0.161   0.162   0.168   0.180
  0.185   0.191   0.203   0.212   0.224   0.227   0.255   0.259
  0.263   0.271   0.278   0.298   0.302   0.303   0.307   0.313
  0.318   0.326   0.329   0.333   0.343   0.351   0.356   0.358
  0.372   0.380   0.381   0.387   0.392   0.398   0.403   0.407
  0.411   0.419   0.424   0.427   0.436   0.439   0.447   0.452
  0.457   0.468   0.472   0.478   0.483   0.485   0.493   0.500
  0.519   0.527   0.535   0.554   0.571   0.584   0.597   0.604
  0.626   0.656   0.665   0.681   0.754   0.763   0.792   0.807
  0.826   0.832   0.854   0.880   0.906   0.916   0.939   0.990
  1.047   1.071   1.091   1.108   1.127   1.139   1.160   1.179
  1.191   1.215   1.215   1.229   1.239   1.246   1.255   1.273
  1.276   1.283   1.300   1.310   1.327   1.346   1.401   1.433
  1.437   1.443   1.486   1.491   1.499   1.513   1.519   1.524
  1.531   1.547   1.558   1.572   1.580   1.595   1.600   1.615
  1.622   1.662   1.708   1.750   1.756   1.787   1.823   1.846
  1.895   1.914   1.930   1.953   1.955   1.976   1.990   2.008
  2.047   2.065   2.078   2.125   2.198   2.225   2.275   2.296
  2.316   2.634   2.738   2.861   2.868   2.918   2.919   2.927
  2.935   2.952   2.965   3.012   3.021   3.036   3.043   3.045
  3.067   3.070   3.136   3.209   3.255   3.541   3.579   3.706
  3.790   3.797   3.825   3.826   3.827   3.833   3.838   3.840
  3.848   3.849   3.852   3.865   3.867   3.894   3.950   3.959
  3.962   3.967   4.078   4.123   4.187   4.216   4.279   4.285
  4.291   4.309   4.312   4.440   4.473   5.004   5.009   5.025
  5.029   5.099   5.152   5.167   5.177   5.199   5.215   5.231
  5.275   5.436   6.385   6.399   6.402   6.417   6.433   6.447
  6.450   6.455   6.459   6.497   6.502   6.505   6.535   6.548
  6.874   6.877   6.890   6.896   8.135   8.283  17.408  17.503
 17.520  17.540  17.594  17.655  23.614  23.624  35.569  50.022
 50.025  50.064  66.875  66.885  66.911  66.912  66.936  66.960
189.384 189.501
 
 Beta MOs
 -- Occupied --
-89.220 -89.093 -24.850 -24.850 -24.850 -24.847 -24.846 -24.846
-19.231 -19.229 -19.228 -14.416 -10.544 -10.514  -8.240  -8.129
 -6.189  -6.188  -6.187  -6.080  -6.074  -6.068  -1.436  -1.429
 -1.344  -1.343  -1.343  -1.342  -1.217  -1.114  -1.100  -0.986
 -0.837  -0.788  -0.774  -0.715  -0.697  -0.695  -0.690  -0.690
 -0.629  -0.616  -0.574  -0.572  -0.565  -0.564  -0.561  -0.546
 -0.544  -0.533  -0.531  -0.529  -0.527  -0.511  -0.508  -0.484
 -0.470  -0.436  -0.409  -0.397  -0.386  -0.362  -0.341  -0.335
 -- Virtual --
 -0.021   0.001   0.086   0.094   0.096   0.104   0.114   0.123
  0.129   0.133   0.134   0.140   0.151   0.157   0.163   0.164
  0.171   0.182   0.187   0.196   0.205   0.216   0.226   0.233
  0.260   0.267   0.275   0.282   0.289   0.303   0.305   0.307
  0.311   0.317   0.322   0.329   0.332   0.337   0.346   0.353
  0.359   0.360   0.374   0.382   0.384   0.389   0.394   0.401
  0.405   0.409   0.413   0.420   0.427   0.430   0.439   0.440
  0.449   0.454   0.458   0.469   0.474   0.480   0.485   0.489
  0.496   0.502   0.521   0.529   0.537   0.554   0.573   0.585
  0.600   0.605   0.628   0.657   0.669   0.683   0.760   0.775
  0.803   0.819   0.836   0.845   0.867   0.894   0.910   0.919
  0.948   0.995   1.052   1.077   1.096   1.111   1.132   1.147
  1.162   1.184   1.201   1.222   1.226   1.235   1.249   1.251
  1.264   1.278   1.282   1.288   1.305   1.314   1.330   1.350
  1.405   1.437   1.442   1.448   1.488   1.493   1.501   1.517
  1.523   1.526   1.535   1.551   1.559   1.573   1.594   1.601
  1.604   1.622   1.649   1.684   1.715   1.755   1.762   1.808
  1.824   1.852   1.902   1.929   1.932   1.957   1.978   1.989
  1.994   2.011   2.050   2.069   2.079   2.127   2.204   2.230
  2.276   2.300   2.321   2.640   2.741   2.867   2.912   2.921
  2.932   2.948   2.957   2.960   2.972   3.021   3.041   3.047
  3.051   3.057   3.076   3.080   3.137   3.210   3.256   3.555
  3.582   3.707   3.793   3.797   3.830   3.831   3.832   3.834
  3.838   3.841   3.854   3.856   3.858   3.866   3.868   3.894
  3.950   3.966   3.971   3.973   4.081   4.130   4.197   4.216
  4.280   4.285   4.292   4.316   4.319   4.451   4.473   5.011
  5.016   5.026   5.030   5.131   5.153   5.178   5.184   5.204
  5.217   5.239   5.276   5.437   6.391   6.400   6.407   6.418
  6.441   6.449   6.455   6.460   6.463   6.497   6.502   6.507
  6.536   6.548   6.876   6.878   6.896   6.901   8.138   8.284
 17.420  17.506  17.521  17.542  17.595  17.655  23.619  23.645
 35.571  50.025  50.031  50.064  66.877  66.887  66.911  66.913
 66.938  66.960 189.387 189.501
 --------------------------------------------------------------
 
          Ground-State Mulliken Net Atomic Charges

     Atom                 Charge (a.u.)    Spin (a.u.)
  --------------------------------------------------------
      1 S                     0.368244       0.592554
      2 C                     0.192519       0.864419
      3 N                    -0.422983       0.114824
      4 O                    -0.437294       0.335030
      5 F                    -0.072457       0.036592
      6 F                    -0.062860       0.037454
      7 F                    -0.084319       0.036441
      8 S                     0.264448      -0.041957
      9 C                    -0.049559       0.011682
     10 O                    -0.241298      -0.001551
     11 O                    -0.273185       0.014221
     12 F                    -0.053076       0.000398
     13 F                    -0.076203      -0.000215
     14 F                    -0.051978       0.000108
  --------------------------------------------------------
  Sum of atomic charges =    -1.000000
  Sum of spin   charges =     2.000000

 -----------------------------------------------------------------
                    Cartesian Multipole Moments
 -----------------------------------------------------------------
    Charge (ESU x 10^10)
                -4.8032
    Dipole Moment (Debye)
         X       3.9814      Y       1.4069      Z       5.4728
       Tot       6.9125
    Quadrupole Moments (Debye-Ang)
        XX    -100.8911     XY      -5.6327     YY    -100.2626
        XZ      -6.6491     YZ       0.4994     ZZ    -121.2727
    Octopole Moments (Debye-Ang^2)
       XXX     179.6065    XXY     -28.2315    XYY      66.5605
       YYY    -101.6953    XXZ      76.8580    XYZ       6.7438
       YYZ      70.5229    XZZ      79.2861    YZZ     -30.1973
       ZZZ     254.2156
    Hexadecapole Moments (Debye-Ang^3)
      XXXX   -1347.5124   XXXY     -13.4484   XXYY    -447.9501
      XYYY     -16.8675   YYYY   -1315.4857   XXXZ    -437.6722
      XXYZ     -31.1583   XYYZ    -148.5065   YYYZ     -61.9082
      XXZZ    -487.1657   XYZZ     -14.9968   YYZZ    -475.4269
      XZZZ    -461.8765   YZZZ     -40.2138   ZZZZ   -1653.5844
 -----------------------------------------------------------------
 Calculating analytic gradient of the SCF energy
 Gradient of SCF Energy
            1           2           3           4           5           6
    1  -0.0112196   0.0109451  -0.0181479   0.0077972  -0.0040721   0.0113061
    2  -0.0026079   0.0203902  -0.0096876  -0.0012848  -0.0157505  -0.0069519
    3   0.0125653   0.0095775  -0.0179076  -0.0132693   0.0127379  -0.0131971
            7           8           9          10          11          12
    1  -0.0167181   0.0140392  -0.0200840  -0.0123687   0.0243287  -0.0073166
    2   0.0038683   0.0091128   0.0073864  -0.0186938   0.0227784  -0.0173629
    3  -0.0084149   0.0021101   0.0027161   0.0239278  -0.0046907   0.0011792
           13          14
    1   0.0147405   0.0067702
    2   0.0007620   0.0080414
    3   0.0115350  -0.0188693
 Max gradient component =       2.433E-02
 RMS gradient           =       1.307E-02
 Computing fast CPCM-SWIG gradient
 Updating gradient with PCM contributions...
 -- total gradient after adding PCM contribution --
---------------------------------------------------
  Atom         X              Y              Z     
---------------------------------------------------
   1       0.000092       0.000127       0.000293
   2      -0.000675      -0.000091      -0.001191
   3       0.000235       0.000290       0.000026
   4      -0.000010      -0.000091      -0.000086
   5       0.000062      -0.000454       0.000658
   6       0.000635      -0.000302      -0.000004
   7      -0.000388       0.000288       0.000087
   8      -0.000254      -0.000164      -0.000113
   9       0.000236      -0.000070       0.000231
  10       0.000006      -0.000037      -0.000027
  11       0.000045       0.000051      -0.000013
  12      -0.000017       0.000479       0.000088
  13       0.000044      -0.000018      -0.000016
  14      -0.000012      -0.000009       0.000066
---------------------------------------------------
 Number of fixed atoms: 0
 Gradient time:  CPU 120.85 s  wall 13.00 s
 Geometry Optimization Parameters
   NAtoms,    NIC,     NZ,  NCons,   NDum,   NFix, NCnnct, MaxDiis
       14     115       0       0       0       0       0       0

 Cartesian Hessian Update
 Hessian Updated using BFGS Update


** GEOMETRY OPTIMIZATION IN DELOCALIZED INTERNAL COORDINATES **
   Searching for a Minimum

   Optimization Cycle:   3

                       Coordinates (Angstroms)
     ATOM                X               Y               Z
      1  S         0.5493750284   -1.3712016316    0.1260804489
      2  C         0.7789118904    2.1065823506    0.6501646479
      3  N         0.2490067300   -0.2560645470   -1.0577817321
      4  O        -0.2853890791   -1.1329180139    1.3591805973
      5  F         1.0275817726    3.0319994507   -0.2553083760
      6  F        -0.0581350953    2.5601510370    1.5665500529
      7  F         1.9011754630    1.6946589011    1.2133756342
      8  S        -1.0213650006   -0.3267881935   -1.9983837886
      9  C        -2.2475155239    0.8792272056   -1.2580737461
     10  O        -0.7254524518    0.2791661395   -3.2895880191
     11  O        -1.7486413843   -1.5942403471   -1.9901979351
     12  F        -1.7424735229    2.1124415175   -1.2192133515
     13  F        -3.3549870760    0.9077765037   -2.0035393746
     14  F        -2.5846262139    0.5240932983   -0.0222667009
   Point Group: c1    Number of degrees of freedom:    36


   Energy is  -1752.017063523

 Hessian Updated using BFGS Update

 36 Hessian modes will be used to form the next step
  Hessian Eigenvalues:
     0.006643    0.009708    0.011916    0.014409    0.016214    0.023944
     0.028298    0.042095    0.059837    0.073283    0.083364    0.086757
     0.103137    0.109087    0.115549    0.123239    0.141209    0.147326
     0.155359    0.178446    0.187016    0.205266    0.207758    0.222940
     0.251452    0.420349    0.518521    0.552186    0.575051    0.582886
     0.588782    0.595969    0.702231    0.741307    0.912174    0.930484

 Minimum Search - Taking Simple RFO Step
 Searching for Lamda that Minimizes Along All modes
 Value Taken    Lamda =  -0.00005760
 Step Taken.  Stepsize is  0.081028

                             Maximum     Tolerance    Cnvgd?
         Gradient           0.001044      0.000300      NO
         Displacement       0.031167      0.001200      NO
         Energy change     -0.000052      0.000001      NO


 New Cartesian Coordinates Obtained by Inverse Iteration

 Displacement from previous Coordinates is:  0.091906
 ----------------------------------------------------------------
             Standard Nuclear Orientation (Angstroms)
    I     Atom           X                Y                Z
 ----------------------------------------------------------------
    1      S       0.5364436539    -1.3892031894     0.1202503908
    2      C       0.7866699423     2.1179844126     0.6603397771
    3      N       0.2430616190    -0.2676807442    -1.0588012171
    4      O      -0.2740338888    -1.1311746439     1.3655356641
    5      F       1.0345471896     3.0363913172    -0.2538569460
    6      F      -0.0520807632     2.5777815450     1.5706768552
    7      F       1.9067385835     1.7078796396     1.2238345034
    8      S      -1.0245993455    -0.3297167573    -2.0033238016
    9      C      -2.2501868782     0.8748601879    -1.2601414763
   10      O      -0.7236009187     0.2823746666    -3.2904769216
   11      O      -1.7559773221    -1.5950295909    -2.0046058074
   12      F      -1.7450889642     2.1080356629    -1.2194084548
   13      F      -3.3586523608     0.9052226693    -2.0041985073
   14      F      -2.5857750102     0.5171584956    -0.0248257015
 ----------------------------------------------------------------
 Nuclear Repulsion Energy =  1367.3412711483 hartrees
 There are       66 alpha and       64 beta electrons
 Discretize the solute cavity surface with Lebedev spheres
	Using 194 Lebedev grid points for each H atom
	Using 194 Lebedev grid points for other atoms
	Atomic van der Waals radii will be scaled by 1.10
 Remove points where switching function is < 1.0e-08
 Keep 1328 surface tesserae and discard 1388 interior tesserae
 Molecular Surface Area = 234.942 Angst**2
 Applying Cartesian multipole field
    Component          Value
    ---------          -----
     (2,0,0)        1.00000E-11
     (0,2,0)        2.00000E-11
     (0,0,2)       -3.00000E-11
 Nucleus-field energy     =     0.0000000012 hartrees
 Requested basis set is 6-311++G(d)
 There are 98 shells and 324 basis functions
 A cutoff of  1.0D-12 yielded   3701 shell pairs
 There are     42956 function pairs (     46419 Cartesian)
 Smallest overlap matrix eigenvalue = 5.52E-05
 Guess MOs from SCF MO coefficient file
 Reading MOs from coefficient file
 Reading MOs from coefficient file

 -----------------------------------------------------------------------
  General SCF calculation program by
  Eric Jon Sundstrom, Paul Horn, Yuezhi Mao, Dmitri Zuev, Alec White,
  David Stuck, Shaama M.S., Shane Yost, Joonho Lee, David Small,
  Daniel Levine, Susi Lehtola, Hugh Burton, Evgeny Epifanovsky
 -----------------------------------------------------------------------
 Exchange:     0.2220 Hartree-Fock + 1.0000 wB97X-D + LR-HF
 Correlation:  1.0000 wB97X-D
 Using SG-2 standard quadrature grid
 Dispersion:   Grimme D
 using 24 threads for integral computing
 -------------------------------------------------------
 OpenMP Integral computing Module                
 Release: version 1.0, May 2013, Q-Chem Inc. Pittsburgh 
 -------------------------------------------------------
 using 24 threads for integral computing
 -------------------------------------------------------
 OpenMP Integral computing Module                
 Release: version 1.0, May 2013, Q-Chem Inc. Pittsburgh 
 -------------------------------------------------------
 -------------------------------------------------------
 OpenMP BLAS3 based DFT computing Module                
 Release: version 1.0, May 2013, Q-Chem Inc. Pittsburgh 
 -------------------------------------------------------
 A unrestricted SCF calculation will be
 performed using Roothaan-Hall, GDM
 SCF converges when RMS gradient is below 1.0e-08
 ---------------------------------------
  Cycle       Energy         DIIS error
 ---------------------------------------
    1   -1736.8555466221      1.34e-04  Roothaan Step
 ---------------------------------------
  Cycle       Energy        RMS Gradient
 ---------------------------------------
    1   -1752.0157711738      8.24e-03   Normal BFGS step
    2   -1752.0164365256      8.09e-03   Normal BFGS step
    3   -1752.0170326102      2.46e-03   Normal BFGS step
    4   -1752.0170645241      1.79e-03   Normal BFGS step
    5   -1752.0170986479      4.92e-04   Normal BFGS step
    6   -1752.0171009339      3.24e-04   Normal BFGS step
    7   -1752.0171020749      1.79e-04   Normal BFGS step
    8   -1752.0171022802      1.21e-04   Normal BFGS step
    9   -1752.0171023682      5.44e-05   Normal BFGS step
   10   -1752.0171023869      1.78e-05   Normal BFGS step
   11   -1752.0171023926      1.34e-05   Normal BFGS step
   12   -1752.0171023937      8.15e-06   Normal BFGS step
   13   -1752.0171023943      3.19e-06   Normal BFGS step
   14   -1752.0171023944      1.48e-06   Normal BFGS step
   15   -1752.0171023944      7.29e-07   Normal BFGS step
   16   -1752.0171023944      2.85e-07   Normal BFGS step
   17   -1752.0171023944      1.70e-07   Normal BFGS step
   18   -1752.0171023944      4.95e-08   Normal BFGS step
   19   -1752.0171023944      2.64e-08   Normal BFGS step
   20   -1752.0171023944      1.13e-08   Normal BFGS step
   21   -1752.0171023944      4.24e-09  Convergence criterion met
 ---------------------------------------
 SCF time:   CPU 1444.66s  wall 93.00s 
<S^2> =          2.006776159

************** Final PCM Free Energy Summary **************
 G_electrostatic  =      -0.06628176 hartree =     -41.59243003 kcal/mol
 G_cavitation     =       0.00000000 hartree =       0.00000000 kcal/mol
 G_dispersion     =       0.00000000 hartree =       0.00000000 kcal/mol
 G_repulsion      =       0.00000000 hartree =       0.00000000 kcal/mol
 --------------------------------------------------
 Non-electrostatic Free Energy =       0.00000000 hartree =       0.00000000 kcal/mol
 Total                         =      -0.06628176 hartree =     -41.59243003 kcal/mol
 --------------------------------------------------
 SCF Energy (H0 + V/2)                       =   -1752.01710239 
 Solute Internal Energy (H0)                 =   -1751.95082064 
 Total Free Energy (H0 + V/2 + non-elec)     =   -1752.01710239 hartree
                                             = -1099407.32510645 kcal/mol
***********************************************************

 SCF   energy in the final basis set =    -1752.0171023944
 Total energy in the final basis set =    -1752.0171023944
 
 --------------------------------------------------------------
 
                    Orbital Energies (a.u.)
 --------------------------------------------------------------
 
 Alpha MOs
 -- Occupied --
-89.220 -89.096 -24.854 -24.853 -24.853 -24.847 -24.846 -24.846
-19.238 -19.231 -19.229 -14.417 -10.544 -10.529  -8.240  -8.132
 -6.189  -6.188  -6.188  -6.082  -6.079  -6.076  -1.440  -1.436
 -1.352  -1.352  -1.344  -1.343  -1.218  -1.134  -1.101  -0.993
 -0.839  -0.806  -0.785  -0.720  -0.702  -0.701  -0.697  -0.696
 -0.666  -0.623  -0.579  -0.575  -0.574  -0.572  -0.565  -0.550
 -0.545  -0.540  -0.539  -0.530  -0.529  -0.514  -0.508  -0.503
 -0.494  -0.454  -0.420  -0.401  -0.390  -0.377  -0.361  -0.345
 -0.330  -0.273
 -- Virtual --
  0.083   0.092   0.095   0.099   0.110   0.120   0.127   0.129
  0.131   0.138   0.149   0.154   0.161   0.162   0.168   0.181
  0.185   0.191   0.203   0.212   0.224   0.227   0.255   0.260
  0.263   0.271   0.278   0.298   0.302   0.304   0.306   0.313
  0.318   0.327   0.329   0.334   0.343   0.351   0.356   0.359
  0.372   0.380   0.381   0.387   0.392   0.398   0.403   0.407
  0.411   0.418   0.424   0.427   0.436   0.439   0.447   0.452
  0.456   0.467   0.472   0.478   0.483   0.485   0.492   0.499
  0.519   0.527   0.534   0.553   0.570   0.584   0.596   0.603
  0.625   0.657   0.665   0.681   0.754   0.763   0.792   0.808
  0.827   0.833   0.852   0.879   0.906   0.915   0.938   0.991
  1.047   1.071   1.091   1.107   1.127   1.139   1.159   1.179
  1.190   1.214   1.215   1.230   1.239   1.245   1.254   1.272
  1.276   1.283   1.300   1.310   1.327   1.344   1.401   1.432
  1.436   1.442   1.486   1.491   1.499   1.512   1.519   1.523
  1.531   1.546   1.558   1.572   1.580   1.595   1.600   1.614
  1.622   1.663   1.709   1.747   1.756   1.787   1.822   1.847
  1.895   1.913   1.930   1.953   1.954   1.975   1.989   2.005
  2.047   2.065   2.077   2.124   2.195   2.226   2.275   2.296
  2.316   2.635   2.738   2.858   2.868   2.918   2.919   2.927
  2.935   2.952   2.964   3.012   3.022   3.037   3.043   3.046
  3.067   3.070   3.136   3.210   3.255   3.541   3.579   3.706
  3.789   3.797   3.824   3.825   3.826   3.834   3.838   3.840
  3.847   3.849   3.852   3.865   3.867   3.894   3.950   3.960
  3.963   3.967   4.077   4.122   4.186   4.216   4.279   4.285
  4.291   4.310   4.313   4.440   4.473   5.003   5.009   5.025
  5.029   5.099   5.152   5.167   5.177   5.198   5.214   5.231
  5.275   5.436   6.384   6.399   6.402   6.417   6.432   6.446
  6.450   6.454   6.458   6.497   6.502   6.505   6.534   6.546
  6.875   6.877   6.890   6.897   8.135   8.283  17.408  17.502
 17.520  17.540  17.593  17.655  23.615  23.624  35.569  50.021
 50.025  50.064  66.875  66.884  66.911  66.912  66.936  66.960
189.384 189.501
 
 Beta MOs
 -- Occupied --
-89.220 -89.093 -24.851 -24.850 -24.850 -24.847 -24.846 -24.846
-19.231 -19.229 -19.228 -14.415 -10.544 -10.514  -8.240  -8.129
 -6.188  -6.188  -6.187  -6.080  -6.074  -6.068  -1.436  -1.430
 -1.344  -1.344  -1.343  -1.343  -1.216  -1.114  -1.100  -0.986
 -0.837  -0.789  -0.774  -0.715  -0.697  -0.695  -0.691  -0.691
 -0.629  -0.616  -0.574  -0.572  -0.565  -0.565  -0.561  -0.546
 -0.544  -0.534  -0.531  -0.529  -0.527  -0.511  -0.508  -0.484
 -0.470  -0.436  -0.408  -0.396  -0.386  -0.362  -0.341  -0.335
 -- Virtual --
 -0.020   0.001   0.086   0.094   0.096   0.104   0.114   0.122
  0.129   0.133   0.134   0.140   0.152   0.156   0.163   0.164
  0.170   0.182   0.187   0.196   0.205   0.216   0.226   0.233
  0.260   0.267   0.276   0.282   0.289   0.303   0.305   0.307
  0.311   0.317   0.322   0.329   0.331   0.337   0.346   0.353
  0.359   0.360   0.374   0.382   0.384   0.389   0.393   0.401
  0.405   0.408   0.413   0.419   0.427   0.429   0.439   0.440
  0.449   0.453   0.458   0.469   0.474   0.480   0.485   0.489
  0.495   0.501   0.520   0.528   0.537   0.554   0.571   0.585
  0.599   0.605   0.628   0.658   0.668   0.683   0.760   0.775
  0.802   0.820   0.837   0.846   0.865   0.892   0.911   0.918
  0.947   0.996   1.053   1.076   1.096   1.110   1.133   1.147
  1.162   1.184   1.201   1.222   1.226   1.235   1.249   1.251
  1.264   1.279   1.281   1.287   1.305   1.313   1.330   1.347
  1.405   1.436   1.442   1.447   1.488   1.493   1.501   1.516
  1.523   1.526   1.535   1.550   1.559   1.573   1.593   1.601
  1.604   1.622   1.648   1.685   1.716   1.754   1.760   1.808
  1.823   1.853   1.902   1.928   1.932   1.956   1.977   1.988
  1.994   2.008   2.049   2.068   2.078   2.126   2.201   2.230
  2.276   2.299   2.321   2.640   2.741   2.867   2.911   2.921
  2.932   2.948   2.956   2.960   2.971   3.021   3.041   3.047
  3.052   3.057   3.077   3.080   3.137   3.210   3.256   3.555
  3.582   3.707   3.793   3.797   3.829   3.831   3.831   3.834
  3.838   3.841   3.853   3.855   3.857   3.865   3.868   3.894
  3.950   3.967   3.972   3.974   4.079   4.129   4.196   4.216
  4.280   4.285   4.292   4.318   4.320   4.451   4.473   5.011
  5.017   5.026   5.029   5.131   5.153   5.178   5.184   5.202
  5.217   5.238   5.276   5.437   6.390   6.400   6.406   6.418
  6.440   6.449   6.454   6.459   6.462   6.497   6.502   6.507
  6.535   6.547   6.877   6.877   6.897   6.902   8.138   8.284
 17.420  17.505  17.520  17.542  17.594  17.655  23.619  23.646
 35.571  50.025  50.030  50.064  66.877  66.886  66.911  66.913
 66.937  66.960 189.387 189.501
 --------------------------------------------------------------
 
          Ground-State Mulliken Net Atomic Charges

     Atom                 Charge (a.u.)    Spin (a.u.)
  --------------------------------------------------------
      1 S                     0.368629       0.593086
      2 C                     0.192508       0.865848
      3 N                    -0.420597       0.113172
      4 O                    -0.436244       0.336019
      5 F                    -0.073621       0.036412
      6 F                    -0.062438       0.037297
      7 F                    -0.081954       0.036750
      8 S                     0.257872      -0.043989
      9 C                    -0.046457       0.012197
     10 O                    -0.241659      -0.001808
     11 O                    -0.273972       0.014648
     12 F                    -0.053296       0.000447
     13 F                    -0.076176      -0.000218
     14 F                    -0.052595       0.000138
  --------------------------------------------------------
  Sum of atomic charges =    -1.000000
  Sum of spin   charges =     2.000000

 -----------------------------------------------------------------
                    Cartesian Multipole Moments
 -----------------------------------------------------------------
    Charge (ESU x 10^10)
                -4.8032
    Dipole Moment (Debye)
         X       3.9804      Y       1.4012      Z       5.5086
       Tot       6.9391
    Quadrupole Moments (Debye-Ang)
        XX    -100.8867     XY      -5.5771     YY    -100.2247
        XZ      -6.7401     YZ       0.5139     ZZ    -121.4021
    Octopole Moments (Debye-Ang^2)
       XXX     180.2620    XXY     -27.9306    XYY      66.7432
       YYY    -101.2666    XXZ      77.2376    XYZ       6.9768
       YYZ      70.8489    XZZ      79.5960    YZZ     -29.8344
       ZZZ     254.7243
    Hexadecapole Moments (Debye-Ang^3)
      XXXX   -1351.0154   XXXY     -15.9703   XXYY    -450.1206
      XYYY     -19.2402   YYYY   -1324.8956   XXXZ    -440.6305
      XXYZ     -32.3310   XYYZ    -149.5451   YYYZ     -64.6079
      XXZZ    -489.2071   XYZZ     -16.1214   YYZZ    -478.4171
      XZZZ    -464.8913   YZZZ     -42.9769   ZZZZ   -1660.8694
 -----------------------------------------------------------------
 Calculating analytic gradient of the SCF energy
 Gradient of SCF Energy
            1           2           3           4           5           6
    1  -0.0109887   0.0119121  -0.0180808   0.0076173  -0.0040935   0.0114352
    2  -0.0022529   0.0200642  -0.0098335  -0.0017008  -0.0152439  -0.0072572
    3   0.0124077   0.0111835  -0.0179415  -0.0132334   0.0123603  -0.0136927
            7           8           9          10          11          12
    1  -0.0177711   0.0143670  -0.0201574  -0.0126449   0.0242073  -0.0074005
    2   0.0040779   0.0095652   0.0072205  -0.0187420   0.0225819  -0.0173343
    3  -0.0091556   0.0024418   0.0028321   0.0237622  -0.0045416   0.0010497
           13          14
    1   0.0146877   0.0069100
    2   0.0007959   0.0080590
    3   0.0115066  -0.0189790
 Max gradient component =       2.421E-02
 RMS gradient           =       1.315E-02
 Computing fast CPCM-SWIG gradient
 Updating gradient with PCM contributions...
 -- total gradient after adding PCM contribution --
---------------------------------------------------
  Atom         X              Y              Z     
---------------------------------------------------
   1      -0.000013       0.000122       0.000197
   2       0.000545      -0.000027       0.000846
   3       0.000231       0.000118       0.000106
   4       0.000048      -0.000143      -0.000064
   5      -0.000028      -0.000216       0.000201
   6       0.000669      -0.000501      -0.000639
   7      -0.001431       0.000441      -0.000697
   8      -0.000045      -0.000089      -0.000102
   9       0.000149      -0.000242       0.000383
  10      -0.000063      -0.000011      -0.000056
  11      -0.000089       0.000002      -0.000053
  12      -0.000045       0.000495       0.000028
  13      -0.000002       0.000010      -0.000019
[...]
  0.942   0.999   1.052   1.076   1.096   1.110   1.133   1.150
  1.162   1.183   1.200   1.221   1.226   1.236   1.246   1.252
  1.263   1.277   1.280   1.285   1.304   1.313   1.329   1.342
  1.406   1.437   1.443   1.446   1.485   1.494   1.503   1.516
  1.523   1.525   1.535   1.550   1.559   1.573   1.591   1.597
  1.603   1.621   1.646   1.685   1.716   1.752   1.758   1.811
  1.821   1.851   1.901   1.928   1.933   1.953   1.975   1.986
  1.993   2.006   2.048   2.063   2.079   2.120   2.198   2.234
  2.276   2.299   2.320   2.639   2.741   2.867   2.907   2.920
  2.932   2.948   2.954   2.960   2.971   3.021   3.043   3.046
  3.051   3.059   3.070   3.080   3.138   3.210   3.255   3.556
  3.581   3.707   3.792   3.797   3.829   3.831   3.831   3.834
  3.838   3.840   3.853   3.854   3.856   3.865   3.868   3.894
  3.950   3.967   3.972   3.974   4.078   4.127   4.194   4.216
  4.280   4.285   4.293   4.316   4.319   4.449   4.473   5.009
  5.015   5.026   5.029   5.135   5.153   5.176   5.185   5.200
  5.217   5.238   5.275   5.437   6.388   6.398   6.405   6.417
  6.439   6.449   6.454   6.458   6.461   6.497   6.501   6.505
  6.533   6.544   6.876   6.877   6.894   6.900   8.139   8.284
 17.420  17.503  17.520  17.543  17.594  17.655  23.619  23.642
 35.569  50.025  50.031  50.064  66.876  66.885  66.911  66.911
 66.938  66.960 189.388 189.502
 --------------------------------------------------------------
 
          Ground-State Mulliken Net Atomic Charges

     Atom                 Charge (a.u.)    Spin (a.u.)
  --------------------------------------------------------
      1 S                     0.365636       0.594945
      2 C                     0.196987       0.866840
      3 N                    -0.422807       0.109855
      4 O                    -0.428525       0.339387
      5 F                    -0.074800       0.036656
      6 F                    -0.063933       0.037507
      7 F                    -0.082670       0.037036
      8 S                     0.246796      -0.051188
      9 C                    -0.033805       0.014424
     10 O                    -0.242302      -0.002130
     11 O                    -0.275581       0.016130
     12 F                    -0.053274       0.000432
     13 F                    -0.076824      -0.000202
     14 F                    -0.054897       0.000309
  --------------------------------------------------------
  Sum of atomic charges =    -1.000000
  Sum of spin   charges =     2.000000

 -----------------------------------------------------------------
                    Cartesian Multipole Moments
 -----------------------------------------------------------------
    Charge (ESU x 10^10)
                -4.8032
    Dipole Moment (Debye)
         X       3.8967      Y       1.2632      Z       5.5262
       Tot       6.8788
    Quadrupole Moments (Debye-Ang)
        XX    -100.8765     XY      -5.4411     YY     -99.9304
        XZ      -7.0318     YZ       0.1820     ZZ    -121.9031
    Octopole Moments (Debye-Ang^2)
       XXX     181.4065    XXY     -27.9571    XYY      66.9177
       YYY    -101.2959    XXZ      77.6070    XYZ       7.3526
       YYZ      71.7124    XZZ      80.3126    YZZ     -29.9050
       ZZZ     255.4819
    Hexadecapole Moments (Debye-Ang^3)
      XXXX   -1377.1724   XXXY     -25.5958   XXYY    -453.3750
      XYYY     -28.4945   YYYY   -1318.0198   XXXZ    -453.3535
      XXYZ     -35.2744   XYYZ    -154.6393   YYYZ     -74.3518
      XXZZ    -498.6337   XYZZ     -19.7608   YYZZ    -482.1737
      XZZZ    -478.8651   YZZZ     -51.3577   ZZZZ   -1689.6937
 -----------------------------------------------------------------
 Calculating analytic gradient of the SCF energy
 Gradient of SCF Energy
            1           2           3           4           5           6
    1  -0.0102250   0.0114379  -0.0177854   0.0072202  -0.0038826   0.0107187
    2  -0.0014831   0.0202267  -0.0099797  -0.0027910  -0.0147807  -0.0070259
    3   0.0117620   0.0099786  -0.0176934  -0.0128084   0.0123699  -0.0133041
            7           8           9          10          11          12
    1  -0.0165595   0.0141604  -0.0202680  -0.0127616   0.0237659  -0.0075078
    2   0.0035236   0.0106515   0.0072358  -0.0189610   0.0224913  -0.0179228
    3  -0.0082898   0.0027337   0.0025493   0.0234389  -0.0046121   0.0003161
           13          14
    1   0.0144183   0.0072686
    2   0.0006375   0.0081781
    3   0.0117519  -0.0181926
 Max gradient component =       2.377E-02
 RMS gradient           =       1.296E-02
 Computing fast CPCM-SWIG gradient
 Updating gradient with PCM contributions...
 -- total gradient after adding PCM contribution --
---------------------------------------------------
  Atom         X              Y              Z     
---------------------------------------------------
   1      -0.000007      -0.000035       0.000043
   2      -0.000010       0.000013       0.000135
   3       0.000042       0.000072      -0.000057
   4       0.000047       0.000006      -0.000043
   5       0.000014       0.000047      -0.000001
   6       0.000044      -0.000015      -0.000027
   7      -0.000071      -0.000036      -0.000104
   8      -0.000022      -0.000024      -0.000004
   9      -0.000027      -0.000004       0.000009
  10      -0.000020       0.000015      -0.000004
  11      -0.000012       0.000008      -0.000004
  12       0.000019      -0.000008       0.000004
  13      -0.000014      -0.000008       0.000032
  14       0.000015      -0.000029       0.000021
---------------------------------------------------
 Number of fixed atoms: 0
 Gradient time:  CPU 119.00 s  wall 12.69 s
 Geometry Optimization Parameters
   NAtoms,    NIC,     NZ,  NCons,   NDum,   NFix, NCnnct, MaxDiis
       14     115       0       0       0       0       0       0

 Cartesian Hessian Update
 Hessian Updated using BFGS Update


** GEOMETRY OPTIMIZATION IN DELOCALIZED INTERNAL COORDINATES **
   Searching for a Minimum

   Optimization Cycle:  12

                       Coordinates (Angstroms)
     ATOM                X               Y               Z
      1  S         0.4987861275   -1.3905800791    0.1234427448
      2  C         0.8240733887    2.1244575519    0.6879182965
      3  N         0.2237168448   -0.2724552361   -1.0632198256
      4  O        -0.2412404766   -1.0540798017    1.3936849354
      5  F         1.0545582817    3.0329022521   -0.2407646530
      6  F        -0.0028681208    2.5928060509    1.6056281686
      7  F         1.9557291767    1.7239900567    1.2392244335
      8  S        -1.0351292269   -0.3342856583   -2.0184923746
      9  C        -2.2772807032    0.8531315333   -1.2764242843
     10  O        -0.7249495108    0.2924469933   -3.2963059567
     11  O        -1.7567854336   -1.6049447602   -2.0396031383
     12  F        -1.7720525260    2.0835246495   -1.1973083481
     13  F        -3.3708765805    0.9006099760   -2.0410174101
     14  F        -2.6382157044    0.4673601427   -0.0557642310
   Point Group: c1    Number of degrees of freedom:    36


   Energy is  -1752.017148455

 Hessian Updated using BFGS Update

 36 Hessian modes will be used to form the next step
  Hessian Eigenvalues:
     0.000948    0.003511    0.008322    0.010515    0.013810    0.021402
     0.025799    0.040129    0.058684    0.073942    0.079196    0.085427
     0.095731    0.100438    0.108057    0.135808    0.144501    0.151034
     0.161850    0.170755    0.178371    0.206234    0.209612    0.214300
     0.267971    0.412512    0.518709    0.549515    0.571446    0.583688
     0.589375    0.599463    0.656048    0.741319    0.912422    0.930582

 Minimum Search - Taking Simple RFO Step
 Searching for Lamda that Minimizes Along All modes
 Value Taken    Lamda =   0.00000000
 Step Taken.  Stepsize is  0.015193

                             Maximum     Tolerance    Cnvgd?
         Gradient           0.000081      0.000300     YES
         Displacement       0.005824      0.001200      NO
         Energy change     -0.000001      0.000001     YES


                       Distance Matrix (Angstroms)
             S (  1)   C (  2)   N (  3)   O (  4)   F (  5)   F (  6)
   C (  2)  3.574903
   N (  3)  1.653492  3.028548
   O (  4)  1.508107  3.425799  2.619829
   F (  5)  4.473111  1.319412  3.506012  4.588457
   F (  6)  4.279707  1.321126  3.922220  3.660808  2.172787
   F (  7)  3.614996  1.320968  3.505269  3.545167  2.171573  2.173752
   S (  8)  2.838405  4.102037  1.581475  3.576495  4.343393  4.771549
   C (  9)  3.834112  3.885011  2.750889  3.861657  4.114018  4.062714
   O ( 10)  4.003098  4.650782  2.491135  4.903379  4.473598  5.462784
   O ( 11)  3.132463  5.292320  2.579000  3.793125  5.713939  5.829670
   F ( 12)  4.355513  3.208680  3.090585  4.347550  3.131457  3.353481
   F ( 13)  4.990865  5.151941  3.905544  5.041093  5.231831  5.244524
   F ( 14)  3.650320  3.909793  3.122972  3.187659  4.500312  3.771313
             F (  7)   S (  8)   C (  9)   O ( 10)   O ( 11)   F ( 12)
   S (  8)  4.877956
   C (  9)  5.000526  1.871781
   O ( 10)  5.459523  1.456644  2.608452
   O ( 11)  5.967854  1.461440  2.625928  2.498816
   F ( 12)  4.467920  2.657669  1.332435  2.951301  3.783451
   F ( 13)  6.309570  2.642194  1.335219  2.991077  2.980452  2.160410
   F ( 14)  4.935630  2.657974  1.330077  3.767266  3.001164  2.159942
             F ( 13)
   F ( 14)  2.160030
 
 Final energy is   -1752.01714845529     


 ******************************
 **  OPTIMIZATION CONVERGED  **
 ******************************

                       Coordinates (Angstroms)
     ATOM                X               Y               Z
      1  S         0.4987861275   -1.3905800791    0.1234427448
      2  C         0.8240733887    2.1244575519    0.6879182965
      3  N         0.2237168448   -0.2724552361   -1.0632198256
      4  O        -0.2412404766   -1.0540798017    1.3936849354
      5  F         1.0545582817    3.0329022521   -0.2407646530
      6  F        -0.0028681208    2.5928060509    1.6056281686
      7  F         1.9557291767    1.7239900567    1.2392244335
      8  S        -1.0351292269   -0.3342856583   -2.0184923746
      9  C        -2.2772807032    0.8531315333   -1.2764242843
     10  O        -0.7249495108    0.2924469933   -3.2963059567
     11  O        -1.7567854336   -1.6049447602   -2.0396031383
     12  F        -1.7720525260    2.0835246495   -1.1973083481
     13  F        -3.3708765805    0.9006099760   -2.0410174101
     14  F        -2.6382157044    0.4673601427   -0.0557642310

Z-matrix Print:
$molecule
-1 3
S 
O  1 1.456644
O  1 1.461440 2 117.811797
N  1 1.581475 2 110.093915 3 135.856797 0
S  4 1.653492 1 122.648404 2 -152.241248 0
O  5 1.508107 4 111.836689 1 -84.584051 0
C  1 1.871781 2 102.482671 3 -112.497600 0
F  7 1.330077 1 111.095671 2 -177.209267 0
F  7 1.332435 1 110.959413 2 -56.496611 0
F  7 1.335219 1 109.820027 2 63.034183 0
C  4 3.028548 1 122.547353 2 85.628222 0
F  11 1.319412 4 99.937438 1 -64.913636 0
F  11 1.320968 4 99.857873 1 -178.118826 0
F  11 1.321126 4 123.927213 1 58.536909 0
$end

 
 --------------------------------------------------------------
 
                    Orbital Energies (a.u.)
 --------------------------------------------------------------
 
 Alpha MOs
 -- Occupied --
-89.220 -89.096 -24.854 -24.854 -24.853 -24.847 -24.846 -24.846
-19.238 -19.231 -19.229 -14.417 -10.543 -10.529  -8.240  -8.132
 -6.189  -6.188  -6.188  -6.082  -6.079  -6.076  -1.439  -1.436
 -1.352  -1.352  -1.344  -1.343  -1.217  -1.134  -1.101  -0.993
 -0.839  -0.806  -0.785  -0.720  -0.701  -0.701  -0.696  -0.696
 -0.666  -0.623  -0.579  -0.575  -0.574  -0.572  -0.565  -0.550
 -0.545  -0.540  -0.539  -0.531  -0.529  -0.514  -0.508  -0.503
 -0.495  -0.454  -0.420  -0.401  -0.390  -0.375  -0.360  -0.346
 -0.330  -0.274
 -- Virtual --
  0.083   0.092   0.094   0.099   0.110   0.119   0.126   0.129
  0.131   0.138   0.149   0.153   0.162   0.162   0.168   0.180
  0.184   0.189   0.203   0.212   0.224   0.227   0.255   0.259
  0.262   0.270   0.278   0.298   0.302   0.303   0.307   0.313
  0.317   0.326   0.329   0.333   0.342   0.351   0.355   0.359
  0.372   0.379   0.380   0.387   0.391   0.398   0.405   0.407
  0.411   0.417   0.424   0.427   0.436   0.438   0.446   0.452
  0.456   0.465   0.472   0.478   0.481   0.486   0.491   0.499
  0.516   0.526   0.535   0.554   0.567   0.582   0.591   0.605
  0.622   0.656   0.663   0.680   0.758   0.761   0.792   0.810
  0.828   0.836   0.850   0.875   0.907   0.915   0.933   0.994
  1.046   1.070   1.090   1.106   1.128   1.141   1.159   1.179
  1.190   1.214   1.215   1.231   1.240   1.242   1.253   1.270
  1.275   1.283   1.298   1.309   1.327   1.339   1.401   1.433
  1.437   1.440   1.484   1.492   1.501   1.512   1.520   1.521
  1.530   1.545   1.558   1.572   1.580   1.594   1.596   1.613
  1.622   1.659   1.710   1.742   1.755   1.790   1.820   1.845
  1.895   1.912   1.931   1.950   1.952   1.972   1.989   2.003
  2.046   2.061   2.077   2.119   2.192   2.229   2.275   2.296
  2.315   2.633   2.739   2.852   2.868   2.917   2.919   2.927
  2.934   2.952   2.964   3.012   3.022   3.035   3.044   3.049
  3.060   3.071   3.137   3.210   3.254   3.543   3.578   3.707
  3.789   3.797   3.824   3.825   3.826   3.834   3.838   3.840
  3.847   3.848   3.850   3.865   3.867   3.894   3.950   3.960
  3.962   3.967   4.076   4.120   4.184   4.216   4.279   4.285
  4.292   4.308   4.311   4.438   4.473   5.002   5.007   5.026
  5.029   5.103   5.153   5.166   5.176   5.196   5.214   5.230
  5.274   5.436   6.381   6.397   6.401   6.416   6.431   6.446
  6.449   6.454   6.457   6.497   6.501   6.504   6.532   6.544
  6.875   6.876   6.888   6.896   8.136   8.283  17.408  17.500
 17.519  17.541  17.593  17.655  23.614  23.621  35.567  50.022
 50.025  50.063  66.874  66.883  66.910  66.911  66.936  66.959
189.385 189.502
 
 Beta MOs
 -- Occupied --
-89.220 -89.093 -24.851 -24.851 -24.850 -24.847 -24.846 -24.846
-19.231 -19.229 -19.229 -14.415 -10.543 -10.514  -8.240  -8.129
 -6.188  -6.188  -6.187  -6.080  -6.074  -6.068  -1.436  -1.429
 -1.344  -1.343  -1.343  -1.343  -1.216  -1.114  -1.100  -0.986
 -0.836  -0.789  -0.773  -0.715  -0.697  -0.695  -0.690  -0.690
 -0.629  -0.615  -0.574  -0.572  -0.565  -0.565  -0.561  -0.546
 -0.544  -0.533  -0.531  -0.529  -0.527  -0.511  -0.508  -0.484
 -0.469  -0.436  -0.408  -0.396  -0.386  -0.361  -0.341  -0.335
 -- Virtual --
 -0.020   0.000   0.086   0.094   0.096   0.104   0.114   0.122
  0.128   0.133   0.134   0.140   0.152   0.156   0.163   0.164
  0.170   0.182   0.186   0.194   0.205   0.215   0.227   0.233
  0.260   0.266   0.276   0.282   0.290   0.303   0.304   0.307
  0.312   0.317   0.321   0.330   0.331   0.336   0.345   0.353
  0.358   0.361   0.374   0.381   0.382   0.389   0.393   0.401
  0.407   0.408   0.413   0.418   0.427   0.429   0.439   0.440
  0.448   0.454   0.458   0.467   0.474   0.480   0.484   0.490
  0.494   0.500   0.518   0.527   0.537   0.555   0.568   0.583
  0.594   0.606   0.625   0.658   0.666   0.682   0.764   0.773
  0.800   0.824   0.837   0.849   0.864   0.888   0.911   0.916
  0.942   0.999   1.052   1.076   1.096   1.110   1.133   1.150
  1.162   1.183   1.200   1.221   1.226   1.236   1.246   1.252
  1.263   1.277   1.280   1.285   1.304   1.313   1.329   1.342
  1.406   1.437   1.443   1.446   1.485   1.494   1.503   1.516
  1.523   1.525   1.535   1.550   1.559   1.573   1.591   1.597
  1.603   1.621   1.646   1.685   1.716   1.752   1.758   1.811
  1.821   1.851   1.901   1.928   1.933   1.953   1.975   1.986
  1.993   2.006   2.048   2.063   2.079   2.120   2.198   2.234
  2.276   2.299   2.320   2.639   2.741   2.867   2.907   2.920
  2.932   2.948   2.954   2.960   2.971   3.021   3.043   3.046
  3.051   3.059   3.070   3.080   3.138   3.210   3.255   3.556
  3.581   3.707   3.792   3.797   3.829   3.831   3.831   3.834
  3.838   3.840   3.853   3.854   3.856   3.865   3.868   3.894
  3.950   3.967   3.972   3.974   4.078   4.127   4.194   4.216
  4.280   4.285   4.293   4.316   4.319   4.449   4.473   5.009
  5.015   5.026   5.029   5.135   5.153   5.176   5.185   5.200
  5.217   5.238   5.275   5.437   6.388   6.398   6.405   6.417
  6.439   6.449   6.454   6.458   6.461   6.497   6.501   6.505
  6.533   6.544   6.876   6.877   6.894   6.900   8.139   8.284
 17.420  17.503  17.520  17.543  17.594  17.655  23.619  23.642
 35.569  50.025  50.031  50.064  66.876  66.885  66.911  66.911
 66.938  66.960 189.388 189.502
 --------------------------------------------------------------
 
          Ground-State Mulliken Net Atomic Charges

     Atom                 Charge (a.u.)    Spin (a.u.)
  --------------------------------------------------------
      1 S                     0.365636       0.594945
      2 C                     0.196987       0.866840
      3 N                    -0.422807       0.109855
      4 O                    -0.428525       0.339387
      5 F                    -0.074800       0.036656
      6 F                    -0.063933       0.037507
      7 F                    -0.082670       0.037036
      8 S                     0.246796      -0.051188
      9 C                    -0.033805       0.014424
     10 O                    -0.242302      -0.002130
     11 O                    -0.275581       0.016130
     12 F                    -0.053274       0.000432
     13 F                    -0.076824      -0.000202
     14 F                    -0.054897       0.000309
  --------------------------------------------------------
  Sum of atomic charges =    -1.000000
  Sum of spin   charges =     2.000000

 -----------------------------------------------------------------
                    Cartesian Multipole Moments
 -----------------------------------------------------------------
    Charge (ESU x 10^10)
                -4.8032
    Dipole Moment (Debye)
         X       3.8967      Y       1.2632      Z       5.5262
       Tot       6.8788
    Quadrupole Moments (Debye-Ang)
        XX    -100.8765     XY      -5.4411     YY     -99.9304
        XZ      -7.0318     YZ       0.1820     ZZ    -121.9031
    Octopole Moments (Debye-Ang^2)
       XXX     181.4065    XXY     -27.9571    XYY      66.9177
       YYY    -101.2959    XXZ      77.6070    XYZ       7.3526
       YYZ      71.7124    XZZ      80.3126    YZZ     -29.9050
       ZZZ     255.4819
    Hexadecapole Moments (Debye-Ang^3)
      XXXX   -1377.1724   XXXY     -25.5958   XXYY    -453.3750
      XYYY     -28.4945   YYYY   -1318.0198   XXXZ    -453.3535
      XXYZ     -35.2744   XYYZ    -154.6393   YYYZ     -74.3518
      XXZZ    -498.6337   XYZZ     -19.7608   YYZZ    -482.1737
      XZZZ    -478.8651   YZZZ     -51.3577   ZZZZ   -1689.6937
 -----------------------------------------------------------------
Archival summary:
1\1\nid02700\OPT\ProcedureUnspecified\BasisUnspecified\26312(1-,3)\sblau\WedNov1404:17:382018WedNov1404:17:382018\0\\#,OPT,ProcedureUnspecified,BasisUnspecified,\\-1,3\S\O,1,1.45664\O,1,1.46144,2,117.812\N,1,1.58147,2,110.094,3,135.857,0\S,4,1.65349,1,122.648,2,-152.241,0\O,5,1.50811,4,111.837,1,-84.5841,0\C,1,1.87178,2,102.483,3,-112.498,0\F,7,1.33008,1,111.096,2,-177.209,0\F,7,1.33243,1,110.959,2,-56.4966,0\F,7,1.33522,1,109.82,2,63.0342,0\C,4,3.02855,1,122.547,2,85.6282,0\F,11,1.31941,4,99.9374,1,-64.9136,0\F,11,1.32097,4,99.8579,1,-178.119,0\F,11,1.32113,4,123.927,1,58.5369,0\\\@

 Total job time:  1295.11s(wall), 19043.48s(cpu) 
 Wed Nov 14 04:17:38 2018

        *************************************************************
        *                                                           *
        *  Thank you very much for using Q-Chem.  Have a nice day.  *
        *                                                           *
        *************************************************************


