
Running Job 1 of 1 mol.qin
qchem mol.qin_18644.0 /tmp/qchem18644/ 1
/global/common/edison/software/qchem/5.1/exe/qcprog.exe mol.qin_18644.0 /tmp/qchem18644/
Check license passed

                  Welcome to Q-Chem
     A Quantum Leap Into The Future Of Chemistry


 Q-Chem 5.1, Q-Chem, Inc., Pleasanton, CA (2018)

 Yihan Shao,  Zhengting Gan,  E. Epifanovsky,  A. T. B. Gilbert,  M. Wormit,  
 J. Kussmann,  A. W. Lange,  A. Behn,  Jia Deng,  Xintian Feng,  D. Ghosh,  
 M. Goldey,  P. R. Horn,  L. D. Jacobson,  I. Kaliman,  T. Kus,  A. Landau,  
 Jie Liu,  E. I. Proynov,  R. M. Richard,  R. P. Steele,  E. J. Sundstrom,  
 H. L. Woodcock III,  P. M. Zimmerman,  D. Zuev,  B. Albrecht,  E. Alguire,  
 S. A. Baeppler,  D. Barton,  Z. Benda,  Y. A. Bernard,  E. J. Berquist,  
 K. B. Bravaya,  H. Burton,  D. Casanova,  Chun-Min Chang,  Yunqing Chen,  
 A. Chien,  K. D. Closser,  M. P. Coons,  S. Coriani,  S. Dasgupta,  
 A. L. Dempwolff,  M. Diedenhofen,  Hainam Do,  R. G. Edgar,  Po-Tung Fang,  
 S. Faraji,  S. Fatehi,  Qingguo Feng,  K. D. Fenk,  J. Fosso-Tande,  
 Qinghui Ge,  A. Ghysels,  G. Gidofalvi,  J. Gomes,  J. Gonthier,  A. Gunina,  
 D. Hait,  M. W. D. Hanson-Heine,  P. H. P. Harbach,  A. W. Hauser,  
 J. E. Herr,  E. G. Hohenstein,  Z. C. Holden,  Kerwin Hui,  B. C. Huynh,  
 T.-C. Jagau,  Hyunjun Ji,  B. Kaduk,  K. Khistyaev,  Jaehoon Kim,  
 P. Klunzinger,  K. Koh,  D. Kosenkov,  L. Koulias,  T. Kowalczyk,  
 C. M. Krauter,  A. Kunitsa,  Ka Un Lao,  A. Laurent,  K. V. Lawler,  
 Joonho Lee,  D. Lefrancois,  S. Lehtola,  D. S. Levine,  Yi-Pei Li,  
 You-Sheng Lin,  Fenglai Liu,  E. Livshits,  A. Luenser,  P. Manohar,  
 E. Mansoor,  S. F. Manzer,  Shan-Ping Mao,  Yuezhi Mao,  N. Mardirossian,  
 A. V. Marenich,  T. Markovich,  L. A. Martinez-Martinez,  S. A. Maurer,  
 N. J. Mayhall,  S. C. McKenzie,  J.-M. Mewes,  A. F. Morrison,  
 J. W. Mullinax,  K. Nanda,  T. S. Nguyen-Beck,  R. Olivares-Amaya,  
 J. A. Parkhill,  T. M. Perrine,  F. Plasser,  P. Pokhilko,  S. Prager,  
 A. Prociuk,  E. Ramos,  D. R. Rehn,  F. Rob,  M. Schneider,  N. Sergueev,  
 S. M. Sharada,  S. Sharma,  D. W. Small,  T. Stauch,  T. Stein,  
 Yu-Chuan Su,  A. J. W. Thom,  A. Tkatchenko,  T. Tsuchimochi,  N. M. Tubman,  
 L. Vogt,  M. L. Vidal,  O. Vydrov,  M. A. Watson,  J. Wenzel,  
 M. de Wergifosse,  T. A. Wesolowski,  A. White,  J. Witte,  A. Yamada,  
 Jun Yang,  K. Yao,  S. Yeganeh,  S. R. Yost,  Zhi-Qiang You,  A. Zech,  
 Igor Ying Zhang,  Xing Zhang,  Yan Zhao,  Ying Zhu,  B. R. Brooks,  
 G. K. L. Chan,  C. J. Cramer,  M. S. Gordon,  W. J. Hehre,  A. Klamt,  
 M. W. Schmidt,  C. D. Sherrill,  D. G. Truhlar,  A. Aspuru-Guzik,  R. Baer,  
 A. T. Bell,  N. A. Besley,  Jeng-Da Chai,  R. A. DiStasio Jr.,  A. Dreuw,  
 B. D. Dunietz,  T. R. Furlani,  Chao-Ping Hsu,  Yousung Jung,  Jing Kong,  
 D. S. Lambrecht,  WanZhen Liang,  C. Ochsenfeld,  V. A. Rassolov,  
 L. V. Slipchenko,  J. E. Subotnik,  T. Van Voorhis,  J. M. Herbert,  
 A. I. Krylov,  P. M. W. Gill,  M. Head-Gordon

 Contributors to earlier versions of Q-Chem not listed above: 
 R. D. Adamson,  B. Austin,  J. Baker,  G. J. O. Beran,  K. Brandhorst,  
 S. T. Brown,  E. F. C. Byrd,  A. K. Chakraborty,  C.-L. Cheng,  
 Siu Hung Chien,  D. M. Chipman,  D. L. Crittenden,  H. Dachsel,  
 R. J. Doerksen,  A. D. Dutoi,  L. Fusti-Molnar,  W. A. Goddard III,  
 A. Golubeva-Zadorozhnaya,  S. R. Gwaltney,  G. Hawkins,  A. Heyden,  
 S. Hirata,  G. Kedziora,  F. J. Keil,  C. Kelley,  Jihan Kim,  R. A. King,  
 R. Z. Khaliullin,  P. P. Korambath,  W. Kurlancheek,  A. M. Lee,  M. S. Lee,  
 S. V. Levchenko,  Ching Yeh Lin,  D. Liotard,  R. C. Lochan,  I. Lotan,  
 P. E. Maslen,  N. Nair,  D. P. O'Neill,  D. Neuhauser,  E. Neuscamman,  
 C. M. Oana,  R. Olson,  B. Peters,  R. Peverati,  P. A. Pieniazek,  
 Y. M. Rhee,  J. Ritchie,  M. A. Rohrdanz,  E. Rosta,  N. J. Russ,  
 H. F. Schaefer III,  N. E. Schultz,  N. Shenvi,  A. C. Simmonett,  A. Sodt,  
 D. Stuck,  K. S. Thanthiriwatte,  V. Vanovschi,  Tao Wang,  A. Warshel,  
 C. F. Williams,  Q. Wu,  X. Xu,  W. Zhang

 Please cite Q-Chem as follows:
 Y. Shao et al., Mol. Phys. 113, 184-215 (2015)
 DOI: 10.1080/00268976.2014.952696

 Q-Chem 5.1.0 for Intel X86 EM64T Linux

 Parts of Q-Chem use Armadillo 8.300.2 (Tropical Shenanigans).
 http://arma.sourceforge.net/

 Q-Chem begins on Wed Nov 14 02:14:00 2018  

Host: edison03
0

     Scratch files written to /tmp/qchem18644//
 Jun2518 |scratch|qcdevops|jenkins|workspace|build_RNUM -1
Processing $rem in /global/common/edison/software/qchem/5.1/config/preferences.
 MEM_TOTAL  48000 
Symmetry turned off for PCM/SM12/SMD calculation

Checking the input file for inconsistencies... 	...done.

--------------------------------------------------------------
User input:
--------------------------------------------------------------
$molecule
-1 3
S      0.5718473046     -1.2644252997      0.0746945490
C      1.0607738455      2.1068131575      0.8489967313
N      0.1762946802     -0.2251152782     -1.1455899004
O     -0.3040221146     -1.0926264707      1.2908591833
F      1.2154530562      2.9771775653     -0.1305899241
F      0.0018088109      2.4234151839      1.5848062601
F      2.1656394674      2.0332972656      1.5996152421
S     -1.1134128495     -0.3808288691     -2.0492665572
C     -2.3360376594      0.8440561656     -1.3365616382
O     -0.8678053473      0.1564432600     -3.3824506644
O     -1.8132453419     -1.6617549140     -1.9554377873
F     -1.8321830461      2.0781362542     -1.3460560217
F     -3.4541253726      0.8449835465     -2.0672974076
F     -2.6546547870      0.5298789427     -0.0850013677
$end

$rem
job_type = opt
basis = 6-311++g*
max_scf_cycles = 200
gen_scfman = true
scf_algorithm = gdm
method = wb97xd
geom_opt_max_cycles = 200
solvent_method = pcm
$end

$pcm
heavypoints 194
hpoints 194
radii uff
theory cpcm
vdwscale 1.1
$end

$solvent
dielectric 7.0
$end
--------------------------------------------------------------
 ----------------------------------------------------------------
             Standard Nuclear Orientation (Angstroms)
    I     Atom           X                Y                Z
 ----------------------------------------------------------------
    1      S       0.5718473046    -1.2644252997     0.0746945490
    2      C       1.0607738455     2.1068131575     0.8489967313
    3      N       0.1762946802    -0.2251152782    -1.1455899004
    4      O      -0.3040221146    -1.0926264707     1.2908591833
    5      F       1.2154530562     2.9771775653    -0.1305899241
    6      F       0.0018088109     2.4234151839     1.5848062601
    7      F       2.1656394674     2.0332972656     1.5996152421
    8      S      -1.1134128495    -0.3808288691    -2.0492665572
    9      C      -2.3360376594     0.8440561656    -1.3365616382
   10      O      -0.8678053473     0.1564432600    -3.3824506644
   11      O      -1.8132453419    -1.6617549140    -1.9554377873
   12      F      -1.8321830461     2.0781362542    -1.3460560217
   13      F      -3.4541253726     0.8449835465    -2.0672974076
   14      F      -2.6546547870     0.5298789427    -0.0850013677
 ----------------------------------------------------------------
 Nuclear Repulsion Energy =  1347.5644001728 hartrees
 There are       66 alpha and       64 beta electrons
 Requested basis set is 6-311++G(d)
 There are 98 shells and 324 basis functions

 Total QAlloc Memory Limit  48000 MB
 Mega-Array Size       188 MB
 MEM_STATIC part       192 MB
 Discretize the solute cavity surface with Lebedev spheres
	Using 194 Lebedev grid points for each H atom
	Using 194 Lebedev grid points for other atoms
	Atomic van der Waals radii will be scaled by 1.10
 Remove points where switching function is < 1.0e-08
 Keep 1385 surface tesserae and discard 1331 interior tesserae
 Molecular Surface Area = 242.006 Angst**2
 A cutoff of  1.0D-12 yielded   3637 shell pairs
 There are     42122 function pairs (     45481 Cartesian)
 
 -------------------------------------------------------
 OpenMP Integral Computing Module                       
 Release: version 1.0, May 2013, Q-Chem Inc. Pittsburgh 
 -------------------------------------------------------
 Integral Job Info:
 Integral job number is                      11
 Integral operator is                         1
 short-range coefficients              22203600
 long-range coefficients              100000000
 Omega coefficients                         200
 if combine SR and LR in K                    1
 Integral screening is                        0
 Integral computing path is                   2
 max size of driver memory is            800000
 size of driver memory is                593474
 size of scratch memory is              4293864
 max col of scratch BK array               1296
 max len of scratch array in speh3          155
 max len of scratch index in speh4           18
 max int batch size is                      520
 min int batch size is                       52
 fixed nKL is                                52
 max L of basis functions is                  2
 order of int derivative is                   0
 number of shells is                         98
 number of basis is                         338
 number of cartesian basis is               338
 number of contracted shell pairs          3637
 number of primitive shell pairs           9651
 maxK2 (contraction) of shell pair           36
 max number of K2 of shell pair               1
 max number of CS2 of shell pair            732
 max number of PS2 of shell pair           2460
 mem total for path MDJ                  602076
 -------------------------------------------------------
 Smallest overlap matrix eigenvalue = 5.86E-05

 Scale SEOQF with 1.000000e-01/1.000000e-01/1.000000e-01

 Standard Electronic Orientation quadrupole field applied
 Nucleus-field energy     =    -0.0000000004 hartrees
 Guess from superposition of atomic densities
 Warning:  Energy on first SCF cycle will be non-variational
 SAD guess density has 129.000000 electrons

 -----------------------------------------------------------------------
  General SCF calculation program by
  Eric Jon Sundstrom, Paul Horn, Yuezhi Mao, Dmitri Zuev, Alec White,
  David Stuck, Shaama M.S., Shane Yost, Joonho Lee, David Small,
  Daniel Levine, Susi Lehtola, Hugh Burton, Evgeny Epifanovsky
 -----------------------------------------------------------------------
 Exchange:     0.2220 Hartree-Fock + 1.0000 wB97X-D + LR-HF
 Correlation:  1.0000 wB97X-D
 Using SG-2 standard quadrature grid
 Dispersion:   Grimme D
 using 24 threads for integral computing
 -------------------------------------------------------
 OpenMP Integral computing Module                
 Release: version 1.0, May 2013, Q-Chem Inc. Pittsburgh 
 -------------------------------------------------------
 using 24 threads for integral computing
 -------------------------------------------------------
 OpenMP Integral computing Module                
 Release: version 1.0, May 2013, Q-Chem Inc. Pittsburgh 
 -------------------------------------------------------
 -------------------------------------------------------
 OpenMP BLAS3 based DFT computing Module                
 Release: version 1.0, May 2013, Q-Chem Inc. Pittsburgh 
 -------------------------------------------------------
 A unrestricted SCF calculation will be
 performed using Roothaan-Hall, GDM
 SCF converges when RMS gradient is below 1.0e-08
 ---------------------------------------
  Cycle       Energy         DIIS error
 ---------------------------------------
    1   -1754.5913743786      1.77e-02  Roothaan Step
 ---------------------------------------
  Cycle       Energy        RMS Gradient
 ---------------------------------------
    1   -1751.4701625488      2.41e-01   Descent step
    2   -1751.8620567562      6.28e-02   Descent step
    3   -1752.0001892408      2.66e-02   Normal BFGS step
    4   -1752.0138540349      1.90e-02   Normal BFGS step
    5   -1752.0152540238      9.12e-03   Normal BFGS step
    6   -1752.0164957454      2.90e-03   Normal BFGS step
    7   -1752.0166007966      1.91e-03   Normal BFGS step
    8   -1752.0166390642      1.22e-03   Normal BFGS step
    9   -1752.0166514575      4.45e-04   Normal BFGS step
   10   -1752.0166545670      1.84e-04   Normal BFGS step
   11   -1752.0166550254      1.13e-04   Normal BFGS step
   12   -1752.0166552596      3.93e-05   Normal BFGS step
   13   -1752.0166552795      2.21e-05   Normal BFGS step
   14   -1752.0166552849      1.39e-05   Normal BFGS step
   15   -1752.0166552863      7.12e-06   Normal BFGS step
   16   -1752.0166552870      4.85e-06   Normal BFGS step
   17   -1752.0166552871      1.93e-06   Normal BFGS step
   18   -1752.0166552872      4.24e-07   Normal BFGS step
   19   -1752.0166552872      2.71e-07   Normal BFGS step
   20   -1752.0166552872      1.32e-07   Normal BFGS step
   21   -1752.0166552872      7.31e-08   Normal BFGS step
   22   -1752.0166552872      2.75e-08   Normal BFGS step
   23   -1752.0166552872      1.85e-08   Normal BFGS step
   24   -1752.0166552872      8.12e-09  Convergence criterion met
 ---------------------------------------
 SCF time:   CPU 1639.34s  wall 106.00s 
<S^2> =          2.006834288

************** Final PCM Free Energy Summary **************
 G_electrostatic  =      -0.06717991 hartree =     -42.15603139 kcal/mol
 G_cavitation     =       0.00000000 hartree =       0.00000000 kcal/mol
 G_dispersion     =       0.00000000 hartree =       0.00000000 kcal/mol
 G_repulsion      =       0.00000000 hartree =       0.00000000 kcal/mol
 --------------------------------------------------
 Non-electrostatic Free Energy =       0.00000000 hartree =       0.00000000 kcal/mol
 Total                         =      -0.06717991 hartree =     -42.15603139 kcal/mol
 --------------------------------------------------
 SCF Energy (H0 + V/2)                       =   -1752.01665529 
 Solute Internal Energy (H0)                 =   -1751.94947537 
 Total Free Energy (H0 + V/2 + non-elec)     =   -1752.01665529 hartree
                                             = -1099407.04454244 kcal/mol
***********************************************************

 SCF   energy in the final basis set =    -1752.0166552872
 Total energy in the final basis set =    -1752.0166552872
 
 --------------------------------------------------------------
 
                    Orbital Energies (a.u.)
 --------------------------------------------------------------
 
 Alpha MOs
 -- Occupied --
-89.220 -89.096 -24.859 -24.857 -24.856 -24.846 -24.846 -24.846
-19.237 -19.231 -19.229 -14.417 -10.543 -10.537  -8.240  -8.132
 -6.189  -6.188  -6.188  -6.081  -6.079  -6.076  -1.438  -1.435
 -1.354  -1.351  -1.343  -1.342  -1.217  -1.133  -1.100  -0.993
 -0.839  -0.809  -0.786  -0.719  -0.702  -0.702  -0.696  -0.695
 -0.666  -0.623  -0.579  -0.577  -0.576  -0.572  -0.564  -0.549
 -0.545  -0.542  -0.542  -0.530  -0.528  -0.517  -0.508  -0.503
 -0.493  -0.454  -0.419  -0.401  -0.389  -0.377  -0.360  -0.343
 -0.340  -0.273
 -- Virtual --
  0.083   0.092   0.095   0.097   0.111   0.119   0.127   0.129
  0.130   0.137   0.148   0.154   0.158   0.161   0.168   0.181
  0.183   0.193   0.203   0.209   0.223   0.228   0.248   0.250
  0.264   0.269   0.280   0.282   0.301   0.303   0.304   0.312
  0.316   0.322   0.326   0.329   0.339   0.350   0.355   0.359
  0.370   0.372   0.377   0.385   0.390   0.393   0.401   0.403
  0.409   0.419   0.421   0.429   0.430   0.436   0.437   0.441
  0.453   0.464   0.473   0.476   0.484   0.489   0.493   0.495
  0.514   0.520   0.533   0.548   0.556   0.577   0.585   0.608
  0.617   0.650   0.660   0.678   0.759   0.762   0.786   0.796
  0.811   0.826   0.862   0.876   0.911   0.917   0.923   0.997
  1.025   1.065   1.087   1.102   1.125   1.140   1.156   1.178
  1.185   1.213   1.216   1.225   1.232   1.236   1.256   1.260
  1.276   1.280   1.298   1.310   1.324   1.347   1.385   1.403
  1.436   1.452   1.485   1.486   1.499   1.508   1.517   1.525
  1.528   1.537   1.554   1.567   1.575   1.589   1.599   1.610
  1.622   1.651   1.699   1.746   1.755   1.784   1.809   1.835
  1.897   1.902   1.923   1.929   1.946   1.956   1.989   1.992
  2.039   2.050   2.068   2.126   2.178   2.226   2.269   2.294
  2.313   2.637   2.733   2.825   2.867   2.917   2.921   2.926
  2.936   2.952   2.964   3.009   3.017   3.020   3.025   3.049
  3.060   3.071   3.134   3.207   3.253   3.541   3.576   3.705
  3.787   3.797   3.822   3.822   3.824   3.834   3.838   3.841
  3.842   3.843   3.845   3.864   3.867   3.893   3.949   3.954
  3.957   3.967   4.073   4.108   4.168   4.216   4.276   4.282
  4.285   4.291   4.298   4.414   4.473   4.986   4.997   5.023
  5.029   5.101   5.151   5.165   5.176   5.201   5.215   5.231
  5.274   5.434   6.365   6.388   6.399   6.413   6.419   6.432
  6.439   6.448   6.470   6.494   6.497   6.502   6.524   6.546
  6.862   6.872   6.878   6.882   8.131   8.280  17.409  17.498
 17.519  17.539  17.591  17.652  23.591  23.618  35.566  50.023
 50.025  50.059  66.867  66.873  66.906  66.911  66.925  66.957
189.378 189.497
 
 Beta MOs
 -- Occupied --
-89.220 -89.092 -24.856 -24.854 -24.853 -24.846 -24.846 -24.846
-19.231 -19.228 -19.227 -14.415 -10.543 -10.522  -8.240  -8.129
 -6.189  -6.188  -6.187  -6.079  -6.074  -6.067  -1.435  -1.428
 -1.346  -1.343  -1.343  -1.342  -1.216  -1.113  -1.099  -0.985
 -0.837  -0.791  -0.774  -0.714  -0.696  -0.695  -0.692  -0.691
 -0.629  -0.616  -0.574  -0.572  -0.567  -0.566  -0.560  -0.546
 -0.543  -0.534  -0.533  -0.529  -0.528  -0.514  -0.508  -0.483
 -0.470  -0.436  -0.408  -0.396  -0.385  -0.361  -0.340  -0.335
 -- Virtual --
 -0.018  -0.014   0.086   0.093   0.096   0.102   0.115   0.122
  0.129   0.132   0.133   0.139   0.151   0.157   0.160   0.162
  0.171   0.182   0.185   0.198   0.206   0.213   0.226   0.233
  0.259   0.266   0.268   0.281   0.288   0.288   0.303   0.306
  0.307   0.317   0.319   0.326   0.329   0.332   0.341   0.351
  0.357   0.360   0.372   0.374   0.379   0.387   0.391   0.396
  0.403   0.404   0.412   0.420   0.424   0.431   0.432   0.437
  0.440   0.441   0.455   0.465   0.474   0.478   0.487   0.491
  0.495   0.499   0.515   0.521   0.535   0.549   0.557   0.578
  0.586   0.611   0.618   0.652   0.661   0.680   0.764   0.777
  0.788   0.812   0.824   0.838   0.874   0.887   0.913   0.924
  0.934   1.002   1.033   1.069   1.092   1.105   1.130   1.147
  1.158   1.182   1.195   1.223   1.225   1.231   1.242   1.246
  1.263   1.266   1.280   1.283   1.300   1.314   1.326   1.351
  1.390   1.410   1.440   1.457   1.486   1.487   1.502   1.514
  1.521   1.530   1.530   1.544   1.554   1.568   1.584   1.594
  1.609   1.614   1.651   1.666   1.702   1.754   1.759   1.805
  1.813   1.839   1.907   1.916   1.928   1.937   1.956   1.971
  1.992   1.996   2.041   2.052   2.070   2.128   2.184   2.231
  2.270   2.298   2.317   2.642   2.736   2.868   2.883   2.918
  2.930   2.948   2.953   2.961   2.971   3.021   3.024   3.038
  3.048   3.052   3.066   3.078   3.134   3.207   3.254   3.554
  3.580   3.705   3.790   3.797   3.827   3.828   3.829   3.834
  3.838   3.842   3.848   3.850   3.852   3.864   3.868   3.894
  3.949   3.966   3.967   3.968   4.076   4.115   4.178   4.216
  4.278   4.285   4.289   4.293   4.305   4.425   4.473   4.994
  5.005   5.024   5.029   5.130   5.151   5.177   5.184   5.206
  5.216   5.240   5.275   5.435   6.371   6.394   6.399   6.415
  6.425   6.438   6.445   6.451   6.474   6.496   6.497   6.502
  6.525   6.546   6.868   6.876   6.881   6.884   8.134   8.280
 17.421  17.500  17.520  17.541  17.592  17.653  23.613  23.622
 35.568  50.023  50.033  50.060  66.869  66.875  66.906  66.912
 66.927  66.957 189.381 189.497
 --------------------------------------------------------------
 
          Ground-State Mulliken Net Atomic Charges

     Atom                 Charge (a.u.)    Spin (a.u.)
  --------------------------------------------------------
      1 S                     0.350107       0.595288
      2 C                     0.172638       0.861302
      3 N                    -0.438361       0.101781
      4 O                    -0.445695       0.329569
      5 F                    -0.064586       0.040137
      6 F                    -0.062519       0.039408
      7 F                    -0.076113       0.039083
      8 S                     0.334540      -0.025380
      9 C                    -0.062416       0.005700
     10 O                    -0.249344      -0.000001
     11 O                    -0.268703       0.013857
     12 F                    -0.061151      -0.000576
     13 F                    -0.077152      -0.000048
     14 F                    -0.051247      -0.000120
  --------------------------------------------------------
  Sum of atomic charges =    -1.000000
  Sum of spin   charges =     2.000000

 -----------------------------------------------------------------
                    Cartesian Multipole Moments
 -----------------------------------------------------------------
    Charge (ESU x 10^10)
                -4.8032
    Dipole Moment (Debye)
         X       4.5374      Y       1.7912      Z       5.7979
       Tot       7.5770
    Quadrupole Moments (Debye-Ang)
        XX    -101.7814     XY      -6.1788     YY    -100.1045
        XZ      -7.9061     YZ      -0.1522     ZZ    -122.2466
    Octopole Moments (Debye-Ang^2)
       XXX     181.8727    XXY     -28.5158    XYY      67.1639
       YYY     -97.1264    XXZ      77.8968    XYZ       6.1236
       YYZ      71.5252    XZZ      81.9583    YZZ     -29.0445
       ZZZ     262.2898
    Hexadecapole Moments (Debye-Ang^3)
      XXXX   -1508.2598   XXXY     -66.5852   XXYY    -476.6780
      XYYY     -67.7798   YYYY   -1287.5649   XXXZ    -513.1468
      XXYZ     -49.9479   XYYZ    -175.1521   YYYZ    -104.8602
      XXZZ    -538.4434   XYZZ     -33.6897   YYZZ    -487.0186
      XZZZ    -545.0450   YZZZ     -91.3744   ZZZZ   -1782.5996
 -----------------------------------------------------------------
 Calculating analytic gradient of the SCF energy
 Gradient of SCF Energy
            1           2           3           4           5           6
    1  -0.0109293   0.0014901  -0.0157455   0.0071538  -0.0040071   0.0054004
    2  -0.0037902   0.0146626  -0.0127720   0.0010372  -0.0105237  -0.0025762
    3   0.0123198   0.0010496  -0.0157553  -0.0128019   0.0101433  -0.0082130
            7           8           9          10          11          12
    1  -0.0013805   0.0108477  -0.0174093  -0.0108656   0.0216981  -0.0074983
    2  -0.0004082   0.0120227   0.0074723  -0.0176105   0.0213828  -0.0175471
    3  -0.0021919   0.0004217   0.0041446   0.0240085  -0.0070173   0.0016679
           13          14
    1   0.0147436   0.0065019
    2   0.0013703   0.0072799
    3   0.0111600  -0.0189360
 Max gradient component =       2.401E-02
 RMS gradient           =       1.145E-02
 Computing fast CPCM-SWIG gradient
 Updating gradient with PCM contributions...
 -- total gradient after adding PCM contribution --
---------------------------------------------------
  Atom         X              Y              Z     
---------------------------------------------------
   1       0.000387      -0.000114       0.000476
   2      -0.001693      -0.004641      -0.006685
   3       0.000189       0.000272       0.000078
   4      -0.000107      -0.000067       0.000221
   5      -0.001081       0.003196      -0.002686
   6      -0.008196       0.003030       0.003235
   7       0.011509      -0.001191       0.006703
   8       0.000148       0.000497       0.000715
   9       0.000019      -0.000299       0.000076
  10      -0.000097       0.000232      -0.001576
  11      -0.000986      -0.001395      -0.000552
  12       0.000067       0.000466       0.000080
  13      -0.000235       0.000042      -0.000182
  14       0.000077      -0.000029       0.000097
---------------------------------------------------
 Number of fixed atoms: 0
 Gradient time:  CPU 124.74 s  wall 13.25 s
 Geometry Optimization Parameters
   NAtoms,    NIC,     NZ,  NCons,   NDum,   NFix, NCnnct, MaxDiis
       14     144       0       0       0       0       0       0


** GEOMETRY OPTIMIZATION IN DELOCALIZED INTERNAL COORDINATES **
   Searching for a Minimum

   Optimization Cycle:   1

                       Coordinates (Angstroms)
     ATOM                X               Y               Z
      1  S         0.5718473046   -1.2644252997    0.0746945490
      2  C         1.0607738455    2.1068131575    0.8489967313
      3  N         0.1762946802   -0.2251152782   -1.1455899004
      4  O        -0.3040221146   -1.0926264707    1.2908591833
      5  F         1.2154530562    2.9771775653   -0.1305899241
      6  F         0.0018088109    2.4234151839    1.5848062601
      7  F         2.1656394674    2.0332972656    1.5996152421
      8  S        -1.1134128495   -0.3808288691   -2.0492665572
      9  C        -2.3360376594    0.8440561656   -1.3365616382
     10  O        -0.8678053473    0.1564432600   -3.3824506644
     11  O        -1.8132453419   -1.6617549140   -1.9554377873
     12  F        -1.8321830461    2.0781362542   -1.3460560217
     13  F        -3.4541253726    0.8449835465   -2.0672974076
     14  F        -2.6546547870    0.5298789427   -0.0850013677
   Point Group: c1    Number of degrees of freedom:    36


   Energy is  -1752.016655287


 Attempting to Generate Delocalized Internal Coordinates

 36 Hessian modes will be used to form the next step
  Hessian Eigenvalues:
     0.011120    0.013969    0.016101    0.018660    0.022032    0.028600
     0.029840    0.054885    0.063052    0.064863    0.068915    0.080180
     0.086954    0.089386    0.100816    0.107843    0.120452    0.129225
     0.143496    0.146768    0.147770    0.163674    0.184670    0.203840
     0.211865    0.379725    0.508210    0.550214    0.556714    0.577133
     0.578144    0.581793    0.597080    0.662676    0.905063    0.923668

 Minimum Search - Taking Simple RFO Step
 Searching for Lamda that Minimizes Along All modes
 Value Taken    Lamda =  -0.00058120
 Step Taken.  Stepsize is  0.050555

                             Maximum     Tolerance    Cnvgd?
         Gradient           0.014864      0.000300      NO
         Displacement       0.032895      0.001200      NO
         Energy change     *********      0.000001      NO


 New Cartesian Coordinates Obtained by Inverse Iteration

 Displacement from previous Coordinates is:  0.054022
 ----------------------------------------------------------------
             Standard Nuclear Orientation (Angstroms)
    I     Atom           X                Y                Z
 ----------------------------------------------------------------
    1      S       0.5728519396    -1.2633496684     0.0724275494
    2      C       1.0558796468     2.1045965721     0.8445902139
    3      N       0.1789506021    -0.2223209343    -1.1455428624
    4      O      -0.3061629142    -1.0922466147     1.2861111490
    5      F       1.2173688626     2.9703721417    -0.1332634917
    6      F       0.0062853819     2.4157434995     1.5816672514
    7      F       2.1472652700     2.0331880370     1.5934706412
    8      S      -1.1113236347    -0.3782381878    -2.0459988017
    9      C      -2.3348860434     0.8455755934    -1.3345849876
   10      O      -0.8655641707     0.1587655343    -3.3783223716
   11      O      -1.8077093510    -1.6594906325    -1.9463242607
   12      F      -1.8299806622     2.0786194735    -1.3450067448
   13      F      -3.4525586854     0.8460373372    -2.0654617678
   14      F      -2.6540855948     0.5321983585    -0.0830408194
 ----------------------------------------------------------------
 Nuclear Repulsion Energy =  1349.7168237952 hartrees
 There are       66 alpha and       64 beta electrons
 Discretize the solute cavity surface with Lebedev spheres
	Using 194 Lebedev grid points for each H atom
	Using 194 Lebedev grid points for other atoms
	Atomic van der Waals radii will be scaled by 1.10
 Remove points where switching function is < 1.0e-08
 Keep 1381 surface tesserae and discard 1335 interior tesserae
 Molecular Surface Area = 241.393 Angst**2
 Applying Cartesian multipole field
    Component          Value
    ---------          -----
     (2,0,0)        1.00000E-11
     (0,2,0)        2.00000E-11
     (0,0,2)       -3.00000E-11
 Nucleus-field energy     =    -0.0000000004 hartrees
 Requested basis set is 6-311++G(d)
 There are 98 shells and 324 basis functions
 A cutoff of  1.0D-12 yielded   3643 shell pairs
 There are     42225 function pairs (     45599 Cartesian)
 Smallest overlap matrix eigenvalue = 5.82E-05
 Guess MOs from SCF MO coefficient file
 Reading MOs from coefficient file
 Reading MOs from coefficient file

 -----------------------------------------------------------------------
  General SCF calculation program by
  Eric Jon Sundstrom, Paul Horn, Yuezhi Mao, Dmitri Zuev, Alec White,
  David Stuck, Shaama M.S., Shane Yost, Joonho Lee, David Small,
  Daniel Levine, Susi Lehtola, Hugh Burton, Evgeny Epifanovsky
 -----------------------------------------------------------------------
 Exchange:     0.2220 Hartree-Fock + 1.0000 wB97X-D + LR-HF
 Correlation:  1.0000 wB97X-D
 Using SG-2 standard quadrature grid
 Dispersion:   Grimme D
 using 24 threads for integral computing
 -------------------------------------------------------
 OpenMP Integral computing Module                
 Release: version 1.0, May 2013, Q-Chem Inc. Pittsburgh 
 -------------------------------------------------------
 using 24 threads for integral computing
 -------------------------------------------------------
 OpenMP Integral computing Module                
 Release: version 1.0, May 2013, Q-Chem Inc. Pittsburgh 
 -------------------------------------------------------
 -------------------------------------------------------
 OpenMP BLAS3 based DFT computing Module                
 Release: version 1.0, May 2013, Q-Chem Inc. Pittsburgh 
 -------------------------------------------------------
 A unrestricted SCF calculation will be
 performed using Roothaan-Hall, GDM
 SCF converges when RMS gradient is below 1.0e-08
 ---------------------------------------
  Cycle       Energy         DIIS error
 ---------------------------------------
    1   -1736.9257737525      1.26e-04  Roothaan Step
 ---------------------------------------
  Cycle       Energy        RMS Gradient
 ---------------------------------------
    1   -1752.0155541429      1.08e-02   Normal BFGS step
    2   -1752.0162470719      8.26e-03   Normal BFGS step
    3   -1752.0169158398      2.32e-03   Normal BFGS step
    4   -1752.0169492963      1.89e-03   Normal BFGS step
    5   -1752.0169875914      2.48e-04   Normal BFGS step
    6   -1752.0169893384      1.57e-04   Normal BFGS step
    7   -1752.0169903296      7.93e-05   Normal BFGS step
    8   -1752.0169904012      5.58e-05   Normal BFGS step
    9   -1752.0169904352      3.16e-05   Normal BFGS step
   10   -1752.0169904431      1.51e-05   Normal BFGS step
   11   -1752.0169904458      8.87e-06   Normal BFGS step
   12   -1752.0169904461      4.30e-06   Normal BFGS step
   13   -1752.0169904463      2.34e-06   Normal BFGS step
   14   -1752.0169904464      7.97e-07   Normal BFGS step
   15   -1752.0169904464      4.42e-07   Normal BFGS step
   16   -1752.0169904464      2.80e-07   Normal BFGS step
   17   -1752.0169904464      1.77e-07   Normal BFGS step
   18   -1752.0169904464      9.30e-08   Normal BFGS step
   19   -1752.0169904464      1.76e-08   Normal BFGS step
   20   -1752.0169904464      1.15e-08   Normal BFGS step
   21   -1752.0169904464      3.80e-09  Convergence criterion met
 ---------------------------------------
 SCF time:   CPU 1465.38s  wall 95.00s 
<S^2> =          2.006796881

************** Final PCM Free Energy Summary **************
 G_electrostatic  =      -0.06725818 hartree =     -42.20514314 kcal/mol
 G_cavitation     =       0.00000000 hartree =       0.00000000 kcal/mol
 G_dispersion     =       0.00000000 hartree =       0.00000000 kcal/mol
 G_repulsion      =       0.00000000 hartree =       0.00000000 kcal/mol
 --------------------------------------------------
 Non-electrostatic Free Energy =       0.00000000 hartree =       0.00000000 kcal/mol
 Total                         =      -0.06725818 hartree =     -42.20514314 kcal/mol
 --------------------------------------------------
 SCF Energy (H0 + V/2)                       =   -1752.01699045 
 Solute Internal Energy (H0)                 =   -1751.94973227 
 Total Free Energy (H0 + V/2 + non-elec)     =   -1752.01699045 hartree
                                             = -1099407.25485800 kcal/mol
***********************************************************

 SCF   energy in the final basis set =    -1752.0169904464
 Total energy in the final basis set =    -1752.0169904464
 
 --------------------------------------------------------------
 
                    Orbital Energies (a.u.)
 --------------------------------------------------------------
 
 Alpha MOs
 -- Occupied --
-89.220 -89.096 -24.857 -24.856 -24.856 -24.846 -24.846 -24.846
-19.236 -19.231 -19.228 -14.416 -10.543 -10.534  -8.240  -8.132
 -6.189  -6.188  -6.188  -6.081  -6.078  -6.075  -1.442  -1.435
 -1.356  -1.354  -1.343  -1.342  -1.217  -1.133  -1.100  -0.993
 -0.839  -0.809  -0.786  -0.719  -0.704  -0.704  -0.696  -0.695
 -0.669  -0.623  -0.579  -0.578  -0.577  -0.572  -0.564  -0.549
 -0.545  -0.543  -0.542  -0.530  -0.528  -0.517  -0.508  -0.503
 -0.493  -0.454  -0.419  -0.401  -0.389  -0.377  -0.359  -0.342
 -0.338  -0.272
 -- Virtual --
  0.083   0.092   0.095   0.097   0.111   0.120   0.127   0.129
  0.130   0.137   0.148   0.154   0.158   0.161   0.168   0.181
  0.184   0.194   0.203   0.209   0.223   0.229   0.252   0.255
  0.265   0.270   0.282   0.289   0.301   0.304   0.305   0.314
  0.317   0.323   0.327   0.330   0.339   0.350   0.355   0.359
  0.371   0.373   0.377   0.386   0.390   0.393   0.401   0.404
  0.410   0.419   0.422   0.429   0.430   0.437   0.438   0.441
  0.454   0.464   0.473   0.477   0.484   0.489   0.493   0.495
  0.515   0.521   0.534   0.549   0.557   0.577   0.586   0.609
  0.617   0.651   0.660   0.679   0.760   0.763   0.786   0.797
  0.813   0.826   0.863   0.876   0.912   0.918   0.924   0.996
  1.026   1.066   1.087   1.103   1.126   1.140   1.157   1.178
  1.186   1.214   1.217   1.226   1.234   1.236   1.257   1.261
  1.277   1.280   1.298   1.311   1.324   1.348   1.385   1.404
  1.435   1.452   1.486   1.487   1.498   1.508   1.516   1.525
  1.528   1.538   1.554   1.567   1.574   1.589   1.599   1.610
  1.623   1.651   1.699   1.747   1.756   1.784   1.809   1.835
  1.898   1.906   1.926   1.932   1.952   1.959   1.989   1.993
  2.039   2.050   2.068   2.126   2.178   2.226   2.270   2.295
  2.314   2.638   2.734   2.829   2.868   2.917   2.921   2.926
  2.937   2.952   2.964   3.014   3.021   3.027   3.037   3.051
  3.065   3.072   3.135   3.207   3.254   3.542   3.578   3.705
  3.786   3.797   3.822   3.822   3.822   3.834   3.838   3.841
  3.842   3.844   3.845   3.864   3.868   3.894   3.949   3.960
  3.960   3.968   4.074   4.110   4.180   4.217   4.278   4.286
  4.291   4.303   4.309   4.425   4.473   4.993   5.005   5.024
  5.029   5.102   5.151   5.165   5.176   5.201   5.215   5.232
  5.275   5.435   6.367   6.390   6.399   6.414   6.422   6.433
  6.442   6.448   6.472   6.495   6.497   6.502   6.524   6.546
  6.873   6.877   6.886   6.888   8.132   8.282  17.410  17.498
 17.520  17.539  17.592  17.654  23.608  23.620  35.567  50.023
 50.025  50.060  66.868  66.875  66.906  66.911  66.926  66.957
189.379 189.499
 
 Beta MOs
 -- Occupied --
-89.220 -89.092 -24.854 -24.853 -24.853 -24.846 -24.846 -24.846
-19.231 -19.228 -19.227 -14.415 -10.543 -10.519  -8.240  -8.128
 -6.188  -6.188  -6.187  -6.079  -6.073  -6.067  -1.435  -1.432
 -1.347  -1.345  -1.343  -1.342  -1.216  -1.113  -1.100  -0.985
 -0.837  -0.791  -0.774  -0.714  -0.696  -0.695  -0.694  -0.693
 -0.631  -0.616  -0.574  -0.572  -0.568  -0.567  -0.560  -0.546
 -0.543  -0.534  -0.533  -0.529  -0.528  -0.514  -0.508  -0.482
 -0.470  -0.436  -0.408  -0.396  -0.385  -0.361  -0.340  -0.335
 -- Virtual --
 -0.017  -0.012   0.087   0.093   0.096   0.102   0.115   0.122
  0.129   0.133   0.133   0.140   0.151   0.157   0.160   0.163
  0.171   0.182   0.185   0.199   0.207   0.213   0.226   0.233
  0.261   0.267   0.269   0.283   0.289   0.297   0.303   0.306
  0.308   0.317   0.321   0.327   0.330   0.334   0.342   0.351
  0.358   0.361   0.372   0.375   0.379   0.387   0.392   0.396
  0.403   0.405   0.412   0.420   0.425   0.431   0.433   0.437
  0.441   0.442   0.455   0.465   0.475   0.478   0.487   0.491
  0.495   0.499   0.516   0.522   0.535   0.550   0.558   0.578
  0.587   0.612   0.619   0.653   0.662   0.680   0.766   0.779
  0.789   0.812   0.824   0.838   0.874   0.888   0.914   0.925
  0.935   1.001   1.033   1.070   1.092   1.106   1.131   1.147
  1.159   1.182   1.196   1.224   1.226   1.232   1.244   1.246
  1.264   1.267   1.281   1.283   1.301   1.315   1.326   1.352
  1.389   1.411   1.439   1.458   1.486   1.488   1.502   1.514
  1.520   1.530   1.531   1.545   1.554   1.568   1.583   1.594
  1.608   1.615   1.652   1.668   1.703   1.755   1.760   1.805
  1.814   1.839   1.907   1.917   1.928   1.939   1.969   1.974
  1.993   1.997   2.041   2.052   2.070   2.128   2.184   2.231
  2.270   2.299   2.318   2.643   2.737   2.868   2.887   2.918
  2.931   2.948   2.953   2.961   2.971   3.021   3.034   3.047
  3.053   3.055   3.073   3.080   3.136   3.208   3.254   3.555
  3.582   3.706   3.789   3.797   3.827   3.827   3.828   3.834
  3.838   3.842   3.849   3.850   3.852   3.864   3.868   3.894
  3.950   3.968   3.971   3.972   4.077   4.117   4.190   4.217
  4.279   4.286   4.292   4.311   4.317   4.436   4.473   5.000
  5.012   5.025   5.029   5.131   5.152   5.177   5.184   5.206
  5.217   5.241   5.276   5.436   6.373   6.396   6.400   6.415
  6.430   6.439   6.446   6.451   6.475   6.496   6.498   6.502
  6.525   6.547   6.876   6.877   6.891   6.894   8.135   8.282
 17.422  17.501  17.520  17.541  17.593  17.655  23.617  23.636
 35.569  50.023  50.034  50.060  66.871  66.877  66.906  66.912
 66.927  66.957 189.382 189.500
 --------------------------------------------------------------
 
          Ground-State Mulliken Net Atomic Charges

     Atom                 Charge (a.u.)    Spin (a.u.)
  --------------------------------------------------------
      1 S                     0.350715       0.595981
      2 C                     0.166513       0.863211
      3 N                    -0.439381       0.102433
      4 O                    -0.446504       0.329003
      5 F                    -0.065914       0.039666
      6 F                    -0.060014       0.038723
      7 F                    -0.070957       0.038042
      8 S                     0.335417      -0.025419
      9 C                    -0.063931       0.005541
     10 O                    -0.247466      -0.000069
     11 O                    -0.269667       0.013615
     12 F                    -0.060765      -0.000586
     13 F                    -0.077125      -0.000050
     14 F                    -0.050920      -0.000092
  --------------------------------------------------------
  Sum of atomic charges =    -1.000000
  Sum of spin   charges =     2.000000

 -----------------------------------------------------------------
                    Cartesian Multipole Moments
 -----------------------------------------------------------------
    Charge (ESU x 10^10)
                -4.8032
    Dipole Moment (Debye)
         X       4.5295      Y       1.7957      Z       5.7976
       Tot       7.5732
    Quadrupole Moments (Debye-Ang)
        XX    -101.6403     XY      -6.1598     YY    -100.0561
        XZ      -7.7666     YZ      -0.0484     ZZ    -122.0303
    Octopole Moments (Debye-Ang^2)
       XXX     181.9269    XXY     -28.4467    XYY      67.0697
       YYY     -97.0485    XXZ      77.8627    XYZ       6.1216
       YYZ      71.5905    XZZ      81.7658    YZZ     -29.1293
       ZZZ     261.9597
    Hexadecapole Moments (Debye-Ang^3)
      XXXX   -1502.4273   XXXY     -64.6028   XXYY    -474.8875
      XYYY     -66.4500   YYYY   -1283.7363   XXXZ    -509.8372
      XXYZ     -48.8728   XYYZ    -173.9036   YYYZ    -102.7776
      XXZZ    -535.8422   XYZZ     -32.7349   YYZZ    -484.9603
      XZZZ    -541.5878   YZZZ     -89.1666   ZZZZ   -1774.6604
 -----------------------------------------------------------------
 Calculating analytic gradient of the SCF energy
 Gradient of SCF Energy
            1           2           3           4           5           6
    1  -0.0112503   0.0027866  -0.0165225   0.0072844  -0.0032832   0.0126084
    2  -0.0037738   0.0184195  -0.0131202   0.0011770  -0.0136226  -0.0048034
    3   0.0121523   0.0049646  -0.0161701  -0.0131857   0.0135332  -0.0105988
            7           8           9          10          11          12
    1  -0.0106271   0.0110729  -0.0176373  -0.0108057   0.0224910  -0.0075308
    2   0.0011141   0.0118025   0.0076892  -0.0177455   0.0223411  -0.0180980
    3  -0.0071464   0.0006413   0.0039117   0.0250189  -0.0070162   0.0016557
           13          14
    1   0.0149264   0.0064872
    2   0.0013329   0.0072871
    3   0.0113356  -0.0190961
 Max gradient component =       2.502E-02
 RMS gradient           =       1.234E-02
 Computing fast CPCM-SWIG gradient
 Updating gradient with PCM contributions...
 -- total gradient after adding PCM contribution --
---------------------------------------------------
  Atom         X              Y              Z     
---------------------------------------------------
   1       0.000121      -0.000046       0.000203
   2      -0.000605      -0.000606      -0.003042
   3      -0.000457      -0.000042      -0.000162
   4      -0.000029       0.000066      -0.000220
   5      -0.000154      -0.000132       0.000807
   6      -0.000689       0.000579       0.000987
   7       0.001949       0.000450       0.001746
   8      -0.000113       0.000209       0.000163
   9      -0.000217       0.000012      -0.000022
  10       0.000233       0.000160      -0.000470
  11      -0.000173      -0.000508       0.000025
  12       0.000091      -0.000095       0.000014
  13      -0.000055       0.000002      -0.000022
  14       0.000099      -0.000050      -0.000006
---------------------------------------------------
 Number of fixed atoms: 0
 Gradient time:  CPU 118.48 s  wall 12.71 s
 Geometry Optimization Parameters
   NAtoms,    NIC,     NZ,  NCons,   NDum,   NFix, NCnnct, MaxDiis
       14     144       0       0       0       0       0       0

 Cartesian Hessian Update
 Hessian Updated using BFGS Update


** GEOMETRY OPTIMIZATION IN DELOCALIZED INTERNAL COORDINATES **
   Searching for a Minimum

   Optimization Cycle:   2

                       Coordinates (Angstroms)
     ATOM                X               Y               Z
      1  S         0.5728519396   -1.2633496684    0.0724275494
      2  C         1.0558796468    2.1045965721    0.8445902139
      3  N         0.1789506021   -0.2223209343   -1.1455428624
      4  O        -0.3061629142   -1.0922466147    1.2861111490
      5  F         1.2173688626    2.9703721417   -0.1332634917
      6  F         0.0062853819    2.4157434995    1.5816672514
      7  F         2.1472652700    2.0331880370    1.5934706412
      8  S        -1.1113236347   -0.3782381878   -2.0459988017
      9  C        -2.3348860434    0.8455755934   -1.3345849876
     10  O        -0.8655641707    0.1587655343   -3.3783223716
     11  O        -1.8077093510   -1.6594906325   -1.9463242607
     12  F        -1.8299806622    2.0786194735   -1.3450067448
     13  F        -3.4525586854    0.8460373372   -2.0654617678
     14  F        -2.6540855948    0.5321983585   -0.0830408194
   Point Group: c1    Number of degrees of freedom:    36


   Energy is  -1752.016990446

 Hessian Updated using BFGS Update

 36 Hessian modes will be used to form the next step
  Hessian Eigenvalues:
     0.011084    0.013819    0.016043    0.018627    0.022056    0.028607
     0.029846    0.053918    0.063049    0.064576    0.068692    0.081445
     0.086881    0.089404    0.100826    0.107813    0.121079    0.129144
     0.144600    0.146774    0.148064    0.163551    0.185354    0.204147
     0.211839    0.378905    0.477521    0.511967    0.555461    0.558949
     0.581791    0.596396    0.597424    0.662726    0.903333    0.922383

 Minimum Search - Taking Simple RFO Step
 Searching for Lamda that Minimizes Along All modes
 Value Taken    Lamda =  -0.00004012
 Step Taken.  Stepsize is  0.027471

                             Maximum     Tolerance    Cnvgd?
         Gradient           0.001921      0.000300      NO
         Displacement       0.011398      0.001200      NO
         Energy change     -0.000335      0.000001      NO


 New Cartesian Coordinates Obtained by Inverse Iteration

 Displacement from previous Coordinates is:  0.028749
 ----------------------------------------------------------------
             Standard Nuclear Orientation (Angstroms)
    I     Atom           X                Y                Z
 ----------------------------------------------------------------
    1      S       0.5739336833    -1.2631617396     0.0730653057
    2      C       1.0522998585     2.1024329084     0.8427287653
    3      N       0.1816437068    -0.2209740599    -1.1440438704
    4      O      -0.3050399271    -1.0932348845     1.2870063522
    5      F       1.2150320869     2.9669090930    -0.1367765389
    6      F       0.0030493919     2.4120744951     1.5780215692
    7      F       2.1418084787     2.0299617403     1.5884218791
    8      S      -1.1089866447    -0.3764576459    -2.0437715308
    9      C      -2.3333150804     0.8468873354    -1.3333070549
   10      O      -0.8652834310     0.1610320154    -3.3758554349
   11      O      -1.8058233113    -1.6569737194    -1.9438007921
   12      F      -1.8287994791     2.0798584080    -1.3442734029
   13      F      -3.4504627836     0.8467721936    -2.0648486200
   14      F      -2.6537259024     0.5343243698    -0.0818459294
 ----------------------------------------------------------------
 Nuclear Repulsion Energy =  1350.5504624055 hartrees
 There are       66 alpha and       64 beta electrons
 Discretize the solute cavity surface with Lebedev spheres
	Using 194 Lebedev grid points for each H atom
	Using 194 Lebedev grid points for other atoms
	Atomic van der Waals radii will be scaled by 1.10
 Remove points where switching function is < 1.0e-08
 Keep 1381 surface tesserae and discard 1335 interior tesserae
 Molecular Surface Area = 241.088 Angst**2
 Applying Cartesian multipole field
    Component          Value
    ---------          -----
     (2,0,0)        1.00000E-11
     (0,2,0)        2.00000E-11
     (0,0,2)       -3.00000E-11
 Nucleus-field energy     =    -0.0000000003 hartrees
 Requested basis set is 6-311++G(d)
 There are 98 shells and 324 basis functions
 A cutoff of  1.0D-12 yielded   3642 shell pairs
 There are     42209 function pairs (     45583 Cartesian)
 Smallest overlap matrix eigenvalue = 5.81E-05
 Guess MOs from SCF MO coefficient file
 Reading MOs from coefficient file
 Reading MOs from coefficient file

 -----------------------------------------------------------------------
  General SCF calculation program by
  Eric Jon Sundstrom, Paul Horn, Yuezhi Mao, Dmitri Zuev, Alec White,
  David Stuck, Shaama M.S., Shane Yost, Joonho Lee, David Small,
  Daniel Levine, Susi Lehtola, Hugh Burton, Evgeny Epifanovsky
 -----------------------------------------------------------------------
 Exchange:     0.2220 Hartree-Fock + 1.0000 wB97X-D + LR-HF
 Correlation:  1.0000 wB97X-D
 Using SG-2 standard quadrature grid
 Dispersion:   Grimme D
 using 24 threads for integral computing
 -------------------------------------------------------
 OpenMP Integral computing Module                
 Release: version 1.0, May 2013, Q-Chem Inc. Pittsburgh 
 -------------------------------------------------------
 using 24 threads for integral computing
 -------------------------------------------------------
 OpenMP Integral computing Module                
 Release: version 1.0, May 2013, Q-Chem Inc. Pittsburgh 
 -------------------------------------------------------
 -------------------------------------------------------
 OpenMP BLAS3 based DFT computing Module                
 Release: version 1.0, May 2013, Q-Chem Inc. Pittsburgh 
 -------------------------------------------------------
 A unrestricted SCF calculation will be
 performed using Roothaan-Hall, GDM
 SCF converges when RMS gradient is below 1.0e-08
 ---------------------------------------
  Cycle       Energy         DIIS error
 ---------------------------------------
    1   -1736.9094981370      1.14e-04  Roothaan Step
 ---------------------------------------
  Cycle       Energy        RMS Gradient
 ---------------------------------------
    1   -1752.0155835520      1.08e-02   Normal BFGS step
    2   -1752.0162682485      8.57e-03   Normal BFGS step
    3   -1752.0169436158      2.32e-03   Normal BFGS step
    4   -1752.0169751014      1.91e-03   Normal BFGS step
    5   -1752.0170140616      2.38e-04   Normal BFGS step
    6   -1752.0170157210      1.55e-04   Normal BFGS step
    7   -1752.0170167024      7.81e-05   Normal BFGS step
    8   -1752.0170167679      5.53e-05   Normal BFGS step
    9   -1752.0170168000      3.15e-05   Normal BFGS step
   10   -1752.0170168070      1.49e-05   Normal BFGS step
   11   -1752.0170168096      8.99e-06   Normal BFGS step
   12   -1752.0170168099      4.39e-06   Normal BFGS step
   13   -1752.0170168101      2.40e-06   Normal BFGS step
   14   -1752.0170168101      7.98e-07   Normal BFGS step
   15   -1752.0170168101      4.19e-07   Normal BFGS step
   16   -1752.0170168101      2.77e-07   Normal BFGS step
   17   -1752.0170168101      1.78e-07   Normal BFGS step
   18   -1752.0170168101      9.47e-08   Normal BFGS step
   19   -1752.0170168101      1.85e-08   Normal BFGS step
   20   -1752.0170168101      1.16e-08   Normal BFGS step
   21   -1752.0170168101      3.58e-09  Convergence criterion met
 ---------------------------------------
 SCF time:   CPU 1471.28s  wall 95.00s 
<S^2> =          2.006790485

************** Final PCM Free Energy Summary **************
 G_electrostatic  =      -0.06727889 hartree =     -42.21813927 kcal/mol
 G_cavitation     =       0.00000000 hartree =       0.00000000 kcal/mol
 G_dispersion     =       0.00000000 hartree =       0.00000000 kcal/mol
 G_repulsion      =       0.00000000 hartree =       0.00000000 kcal/mol
 --------------------------------------------------
 Non-electrostatic Free Energy =       0.00000000 hartree =       0.00000000 kcal/mol
 Total                         =      -0.06727889 hartree =     -42.21813927 kcal/mol
 --------------------------------------------------
 SCF Energy (H0 + V/2)                       =   -1752.01701681 
 Solute Internal Energy (H0)                 =   -1751.94973792 
 Total Free Energy (H0 + V/2 + non-elec)     =   -1752.01701681 hartree
                                             = -1099407.27140150 kcal/mol
***********************************************************

 SCF   energy in the final basis set =    -1752.0170168101
 Total energy in the final basis set =    -1752.0170168101
 
 --------------------------------------------------------------
 
                    Orbital Energies (a.u.)
 --------------------------------------------------------------
 
 Alpha MOs
 -- Occupied --
-89.220 -89.096 -24.857 -24.856 -24.856 -24.846 -24.846 -24.846
-19.236 -19.231 -19.228 -14.416 -10.543 -10.533  -8.240  -8.132
 -6.188  -6.188  -6.188  -6.081  -6.078  -6.075  -1.443  -1.435
 -1.356  -1.355  -1.343  -1.342  -1.217  -1.133  -1.100  -0.993
 -0.839  -0.809  -0.786  -0.719  -0.704  -0.704  -0.696  -0.695
 -0.669  -0.623  -0.579  -0.578  -0.577  -0.572  -0.564  -0.549
 -0.545  -0.543  -0.542  -0.530  -0.528  -0.517  -0.508  -0.503
 -0.493  -0.454  -0.419  -0.401  -0.389  -0.377  -0.359  -0.342
 -0.337  -0.272
 -- Virtual --
  0.083   0.092   0.095   0.098   0.111   0.120   0.127   0.129
  0.130   0.137   0.148   0.154   0.158   0.162   0.169   0.181
  0.184   0.194   0.204   0.210   0.224   0.229   0.254   0.255
  0.265   0.271   0.283   0.290   0.301   0.304   0.305   0.314
  0.317   0.324   0.327   0.330   0.339   0.350   0.355   0.359
  0.371   0.373   0.378   0.386   0.390   0.393   0.401   0.404
  0.410   0.419   0.422   0.429   0.431   0.437   0.438   0.441
  0.454   0.464   0.473   0.477   0.484   0.489   0.494   0.495
  0.515   0.521   0.534   0.550   0.557   0.577   0.586   0.609
  0.618   0.651   0.660   0.679   0.761   0.764   0.786   0.797
  0.813   0.826   0.864   0.876   0.912   0.917   0.924   0.996
  1.027   1.066   1.087   1.103   1.126   1.140   1.157   1.178
  1.186   1.214   1.218   1.226   1.235   1.237   1.257   1.262
  1.277   1.280   1.298   1.311   1.325   1.348   1.385   1.405
  1.435   1.452   1.486   1.487   1.499   1.508   1.516   1.525
  1.528   1.538   1.554   1.567   1.574   1.589   1.599   1.611
  1.624   1.652   1.699   1.748   1.756   1.784   1.809   1.835
  1.898   1.906   1.927   1.933   1.953   1.959   1.990   1.994
  2.040   2.050   2.068   2.126   2.178   2.226   2.270   2.295
  2.314   2.638   2.734   2.829   2.868   2.917   2.921   2.926
  2.937   2.952   2.964   3.014   3.021   3.030   3.038   3.052
  3.066   3.073   3.136   3.208   3.254   3.542   3.579   3.706
  3.786   3.797   3.822   3.822   3.822   3.834   3.838   3.841
  3.842   3.844   3.845   3.864   3.868   3.894   3.949   3.961
  3.962   3.968   4.074   4.110   4.181   4.217   4.279   4.286
  4.292   4.307   4.311   4.427   4.474   4.994   5.006   5.024
  5.029   5.102   5.151   5.166   5.176   5.201   5.215   5.232
  5.275   5.436   6.368   6.391   6.400   6.414   6.423   6.433
  6.442   6.448   6.472   6.495   6.497   6.502   6.525   6.547
  6.875   6.877   6.888   6.890   8.132   8.282  17.410  17.498
 17.520  17.539  17.592  17.655  23.611  23.620  35.567  50.023
 50.025  50.060  66.868  66.875  66.906  66.912  66.926  66.957
189.380 189.500
 
 Beta MOs
 -- Occupied --
-89.220 -89.092 -24.854 -24.854 -24.853 -24.846 -24.846 -24.846
-19.231 -19.228 -19.227 -14.415 -10.543 -10.518  -8.240  -8.128
 -6.188  -6.188  -6.187  -6.079  -6.073  -6.067  -1.435  -1.433
 -1.347  -1.346  -1.343  -1.342  -1.216  -1.113  -1.100  -0.986
 -0.836  -0.791  -0.774  -0.714  -0.696  -0.695  -0.694  -0.694
 -0.631  -0.615  -0.574  -0.572  -0.568  -0.567  -0.560  -0.546
 -0.543  -0.534  -0.533  -0.529  -0.528  -0.514  -0.507  -0.483
 -0.470  -0.436  -0.408  -0.396  -0.385  -0.361  -0.340  -0.335
 -- Virtual --
 -0.016  -0.011   0.087   0.094   0.096   0.102   0.115   0.122
  0.129   0.133   0.133   0.140   0.151   0.157   0.160   0.163
  0.171   0.182   0.185   0.199   0.207   0.214   0.226   0.234
  0.261   0.268   0.269   0.283   0.289   0.299   0.304   0.306
  0.308   0.317   0.321   0.328   0.330   0.334   0.342   0.351
  0.358   0.361   0.373   0.375   0.380   0.388   0.392   0.396
  0.403   0.405   0.412   0.420   0.425   0.431   0.433   0.437
  0.441   0.442   0.455   0.465   0.475   0.478   0.487   0.492
  0.495   0.499   0.516   0.522   0.536   0.551   0.558   0.578
  0.587   0.612   0.619   0.653   0.662   0.680   0.766   0.779
  0.789   0.813   0.824   0.838   0.875   0.888   0.914   0.924
  0.935   1.001   1.034   1.070   1.092   1.106   1.131   1.147
  1.159   1.182   1.196   1.224   1.226   1.232   1.245   1.246
  1.265   1.267   1.282   1.284   1.301   1.315   1.326   1.352
  1.389   1.412   1.439   1.458   1.486   1.488   1.502   1.514
  1.520   1.530   1.531   1.545   1.554   1.568   1.583   1.594
  1.609   1.615   1.652   1.669   1.703   1.755   1.760   1.805
  1.814   1.839   1.907   1.917   1.929   1.940   1.971   1.974
  1.993   1.998   2.042   2.052   2.070   2.128   2.183   2.231
  2.271   2.299   2.318   2.643   2.737   2.868   2.888   2.918
  2.931   2.948   2.953   2.961   2.971   3.021   3.036   3.047
  3.054   3.056   3.075   3.081   3.137   3.209   3.255   3.555
  3.582   3.707   3.789   3.797   3.827   3.827   3.828   3.834
  3.838   3.842   3.850   3.850   3.852   3.864   3.868   3.894
  3.950   3.968   3.973   3.973   4.077   4.117   4.191   4.217
  4.280   4.286   4.292   4.315   4.319   4.438   4.474   5.002
  5.014   5.025   5.030   5.131   5.152   5.177   5.184   5.207
  5.217   5.241   5.276   5.437   6.374   6.397   6.400   6.415
  6.431   6.439   6.446   6.451   6.475   6.497   6.498   6.502
  6.526   6.547   6.877   6.877   6.894   6.896   8.136   8.283
 17.422  17.501  17.521  17.541  17.594  17.655  23.618  23.639
 35.569  50.024  50.034  50.061  66.871  66.877  66.906  66.912
 66.928  66.957 189.382 189.500
 --------------------------------------------------------------
 
          Ground-State Mulliken Net Atomic Charges

     Atom                 Charge (a.u.)    Spin (a.u.)
  --------------------------------------------------------
      1 S                     0.350912       0.596170
      2 C                     0.164396       0.863774
      3 N                    -0.438255       0.102560
      4 O                    -0.446345       0.328941
      5 F                    -0.067210       0.039416
      6 F                    -0.058814       0.038523
      7 F                    -0.068396       0.037804
      8 S                     0.333873      -0.025475
      9 C                    -0.063760       0.005511
     10 O                    -0.247387      -0.000043
     11 O                    -0.269772       0.013555
     12 F                    -0.060780      -0.000613
     13 F                    -0.077344      -0.000049
     14 F                    -0.051118      -0.000073
  --------------------------------------------------------
  Sum of atomic charges =    -1.000000
  Sum of spin   charges =     2.000000

 -----------------------------------------------------------------
                    Cartesian Multipole Moments
 -----------------------------------------------------------------
    Charge (ESU x 10^10)
                -4.8032
    Dipole Moment (Debye)
         X       4.5359      Y       1.7888      Z       5.8086
       Tot       7.5838
    Quadrupole Moments (Debye-Ang)
        XX    -101.6208     XY      -6.1317     YY    -100.0557
        XZ      -7.7270     YZ       0.0379     ZZ    -121.9475
    Octopole Moments (Debye-Ang^2)
       XXX     181.9444    XXY     -28.4596    XYY      67.0139
       YYY     -97.1630    XXZ      77.9129    XYZ       6.1569
       YYZ      71.6522    XZZ      81.7674    YZZ     -29.1386
       ZZZ     261.7576
    Hexadecapole Moments (Debye-Ang^3)
      XXXX   -1499.5359   XXXY     -63.0790   XXYY    -473.9583
      XYYY     -65.1485   YYYY   -1281.9549   XXXZ    -508.2417
      XXYZ     -48.1455   XYYZ    -173.1806   YYYZ    -100.9865
      XXZZ    -534.7004   XYZZ     -32.0467   YYZZ    -483.8764
      XZZZ    -539.9448   YZZZ     -87.3685   ZZZZ   -1770.6861
 -----------------------------------------------------------------
 Calculating analytic gradient of the SCF energy
 Gradient of SCF Energy
            1           2           3           4           5           6
    1  -0.0114714   0.0034765  -0.0165405   0.0072999  -0.0030444   0.0136158
    2  -0.0036586   0.0190574  -0.0130962   0.0011186  -0.0138286  -0.0053708
    3   0.0119511   0.0072404  -0.0161025  -0.0131228   0.0135114  -0.0113370
            7           8           9          10          11          12
    1  -0.0125859   0.0113846  -0.0177292  -0.0109940   0.0227039  -0.0075806
    2   0.0012123   0.0114348   0.0077735  -0.0178106   0.0228241  -0.0183157
    3  -0.0087102   0.0004313   0.0038056   0.0254727  -0.0070257   0.0016418
           13          14
    1   0.0150094   0.0064559
    2   0.0013617   0.0072981
    3   0.0114280  -0.0191842
 Max gradient component =       2.547E-02
 RMS gradient           =       1.258E-02
 Computing fast CPCM-SWIG gradient
 Updating gradient with PCM contributions...
 -- total gradient after adding PCM contribution --
---------------------------------------------------
  Atom         X              Y              Z     
---------------------------------------------------
   1      -0.000103       0.000158      -0.000031
   2       0.000049       0.000231      -0.000688
   3      -0.000355      -0.000116      -0.000079
   4      -0.000001       0.000000      -0.000131
   5       0.000110      -0.000449       0.000794
   6       0.000296      -0.000064       0.000210
   7       0.000007       0.000510       0.000125
   8       0.000290      -0.000099       0.000018
   9      -0.000252       0.000054      -0.000115
  10      -0.000083       0.000051      -0.000042
  11      -0.000070       0.000021      -0.000018
  12       0.000034      -0.000312      -0.000021
  13       0.000022       0.000039       0.000061
  14       0.000055      -0.000023      -0.000084
---------------------------------------------------
 Number of fixed atoms: 0
 Gradient time:  CPU 117.26 s  wall 12.53 s
 Geometry Optimization Parameters
   NAtoms,    NIC,     NZ,  NCons,   NDum,   NFix, NCnnct, MaxDiis
       14     144       0       0       0       0       0       0

 Cartesian Hessian Update
 Hessian Updated using BFGS Update


** GEOMETRY OPTIMIZATION IN DELOCALIZED INTERNAL COORDINATES **
   Searching for a Minimum

   Optimization Cycle:   3

                       Coordinates (Angstroms)
     ATOM                X               Y               Z
      1  S         0.5739336833   -1.2631617396    0.0730653057
      2  C         1.0522998585    2.1024329084    0.8427287653
      3  N         0.1816437068   -0.2209740599   -1.1440438704
      4  O        -0.3050399271   -1.0932348845    1.2870063522
      5  F         1.2150320869    2.9669090930   -0.1367765389
      6  F         0.0030493919    2.4120744951    1.5780215692
      7  F         2.1418084787    2.0299617403    1.5884218791
      8  S        -1.1089866447   -0.3764576459   -2.0437715308
      9  C        -2.3333150804    0.8468873354   -1.3333070549
     10  O        -0.8652834310    0.1610320154   -3.3758554349
     11  O        -1.8058233113   -1.6569737194   -1.9438007921
     12  F        -1.8287994791    2.0798584080   -1.3442734029
     13  F        -3.4504627836    0.8467721936   -2.0648486200
     14  F        -2.6537259024    0.5343243698   -0.0818459294
   Point Group: c1    Number of degrees of freedom:    36


   Energy is  -1752.017016810

 Hessian Updated using BFGS Update

 36 Hessian modes will be used to form the next step
  Hessian Eigenvalues:
     0.009730    0.011493    0.015590    0.018586    0.022055    0.028640
     0.029852    0.050774    0.062602    0.064409    0.068287    0.080830
     0.086705    0.089221    0.099115    0.107376    0.122716    0.132386
     0.138455    0.146562    0.147188    0.152157    0.182306    0.204175
     0.211827    0.380976    0.508603    0.511987    0.554831    0.558403
     0.581859    0.596962    0.662058    0.668007    0.905926    0.924145

 Minimum Search - Taking Simple RFO Step
 Searching for Lamda that Minimizes Along All modes
 Value Taken    Lamda =  -0.00001980
 Step Taken.  Stepsize is  0.035910

                             Maximum     Tolerance    Cnvgd?
         Gradient           0.000563      0.000300      NO
         Displacement       0.016044      0.001200      NO
         Energy change     -0.000026      0.000001      NO


 New Cartesian Coordinates Obtained by Inverse Iteration

 Displacement from previous Coordinates is:  0.037559
 ----------------------------------------------------------------
             Standard Nuclear Orientation (Angstroms)
    I     Atom           X                Y                Z
 ----------------------------------------------------------------
    1      S       0.5753970833    -1.2635973721     0.0741250861
    2      C       1.0476321138     2.0991051435     0.8392188396
    3      N       0.1845425701    -0.2199211074    -1.1421855221
    4      O      -0.3044100045    -1.0943743458     1.2876402513
    5      F       1.2105570686     2.9629580512    -0.1423379379
    6      F      -0.0022093373     2.4086294984     1.5725495552
    7      F       2.1361541701     2.0250139085     1.5833792692
    8      S      -1.1066330230    -0.3740979803    -2.0413331045
    9      C      -2.3312901731     0.8491765768    -1.3309875946
   10      O      -0.8622043172     0.1635850181    -3.3730002310
   11      O      -1.8029579623    -1.6547068608    -1.9417905208
   12      F      -1.8278612405     2.0825655944    -1.3426398886
   13      F      -3.4483953567     0.8476876480    -2.0626520080
   14      F      -2.6519909448     0.5374267371    -0.0792654966
 ----------------------------------------------------------------
 Nuclear Repulsion Energy =  1351.3474385951 hartrees
 There are       66 alpha and       64 beta electrons
 Discretize the solute cavity surface with Lebedev spheres
	Using 194 Lebedev grid points for each H atom
	Using 194 Lebedev grid points for other atoms
	Atomic van der Waals radii will be scaled by 1.10
 Remove points where switching function is < 1.0e-08
 Keep 1379 surface tesserae and discard 1337 interior tesserae
 Molecular Surface Area = 240.744 Angst**2
 Applying Cartesian multipole field
    Component          Value
    ---------          -----
     (2,0,0)        1.00000E-11
     (0,2,0)        2.00000E-11
     (0,0,2)       -3.00000E-11
 Nucleus-field energy     =    -0.0000000003 hartrees
 Requested basis set is 6-311++G(d)
 There are 98 shells and 324 basis functions
 A cutoff of  1.0D-12 yielded   3644 shell pairs
 There are     42217 function pairs (     45591 Cartesian)
 Smallest overlap matrix eigenvalue = 5.79E-05
 Guess MOs from SCF MO coefficient file
 Reading MOs from coefficient file
 Reading MOs from coefficient file

 -----------------------------------------------------------------------
  General SCF calculation program by
  Eric Jon Sundstrom, Paul Horn, Yuezhi Mao, Dmitri Zuev, Alec White,
  David Stuck, Shaama M.S., Shane Yost, Joonho Lee, David Small,
  Daniel Levine, Susi Lehtola, Hugh Burton, Evgeny Epifanovsky
 -----------------------------------------------------------------------
 Exchange:     0.2220 Hartree-Fock + 1.0000 wB97X-D + LR-HF
 Correlation:  1.0000 wB97X-D
 Using SG-2 standard quadrature grid
 Dispersion:   Grimme D
 using 24 threads for integral computing
 -------------------------------------------------------
 OpenMP Integral computing Module                
 Release: version 1.0, May 2013, Q-Chem Inc. Pittsburgh 
 -------------------------------------------------------
 using 24 threads for integral computing
 -------------------------------------------------------
 OpenMP Integral computing Module                
 Release: version 1.0, May 2013, Q-Chem Inc. Pittsburgh 
 -------------------------------------------------------
 -------------------------------------------------------
 OpenMP BLAS3 based DFT computing Module                
 Release: version 1.0, May 2013, Q-Chem Inc. Pittsburgh 
 -------------------------------------------------------
 A unrestricted SCF calculation will be
 performed using Roothaan-Hall, GDM
 SCF converges when RMS gradient is below 1.0e-08
 ---------------------------------------
  Cycle       Energy         DIIS error
 ---------------------------------------
    1   -1736.9030727754      1.14e-04  Roothaan Step
 ---------------------------------------
  Cycle       Energy        RMS Gradient
 ---------------------------------------
    1   -1752.0155969286      1.08e-02   Normal BFGS step
    2   -1752.0162906138      8.60e-03   Normal BFGS step
    3   -1752.0169591738      2.29e-03   Normal BFGS step
    4   -1752.0169898573      1.93e-03   Normal BFGS step
    5   -1752.0170285307      2.44e-04   Normal BFGS step
    6   -1752.0170301988      1.58e-04   Normal BFGS step
    7   -1752.0170311980      7.86e-05   Normal BFGS step
    8   -1752.0170312633      5.64e-05   Normal BFGS step
    9   -1752.0170312964      3.18e-05   Normal BFGS step
   10   -1752.0170313036      1.50e-05   Normal BFGS step
   11   -1752.0170313062      8.98e-06   Normal BFGS step
   12   -1752.0170313065      4.32e-06   Normal BFGS step
   13   -1752.0170313067      2.40e-06   Normal BFGS step
   14   -1752.0170313067      7.95e-07   Normal BFGS step
   15   -1752.0170313067      4.01e-07   Normal BFGS step
   16   -1752.0170313067      2.64e-07   Normal BFGS step
   17   -1752.0170313067      1.73e-07   Normal BFGS step
   18   -1752.0170313067      9.38e-08   Normal BFGS step
   19   -1752.0170313067      2.07e-08   Normal BFGS step
   20   -1752.0170313067      1.16e-08   Normal BFGS step
   21   -1752.0170313067      3.35e-09  Convergence criterion met
 ---------------------------------------
 SCF time:   CPU 1451.60s  wall 93.00s 
<S^2> =          2.006787860

************** Final PCM Free Energy Summary **************
 G_electrostatic  =      -0.06729619 hartree =     -42.22899878 kcal/mol
 G_cavitation     =       0.00000000 hartree =       0.00000000 kcal/mol
 G_dispersion     =       0.00000000 hartree =       0.00000000 kcal/mol
 G_repulsion      =       0.00000000 hartree =       0.00000000 kcal/mol
 --------------------------------------------------
 Non-electrostatic Free Energy =       0.00000000 hartree =       0.00000000 kcal/mol
 Total                         =      -0.06729619 hartree =     -42.22899878 kcal/mol
 --------------------------------------------------
 SCF Energy (H0 + V/2)                       =   -1752.01703131 
 Solute Internal Energy (H0)                 =   -1751.94973511 
 Total Free Energy (H0 + V/2 + non-elec)     =   -1752.01703131 hartree
                                             = -1099407.28049828 kcal/mol
***********************************************************

 SCF   energy in the final basis set =    -1752.0170313067
 Total energy in the final basis set =    -1752.0170313067
 
 --------------------------------------------------------------
 
                    Orbital Energies (a.u.)
 --------------------------------------------------------------
 
 Alpha MOs
 -- Occupied --
-89.220 -89.096 -24.857 -24.856 -24.856 -24.846 -24.846 -24.846
-19.236 -19.231 -19.228 -14.416 -10.543 -10.533  -8.240  -8.132
 -6.188  -6.188  -6.188  -6.081  -6.078  -6.075  -1.443  -1.435
 -1.355  -1.355  -1.343  -1.342  -1.217  -1.133  -1.100  -0.993
 -0.839  -0.809  -0.785  -0.719  -0.705  -0.704  -0.696  -0.695
 -0.669  -0.623  -0.579  -0.578  -0.577  -0.572  -0.564  -0.549
 -0.545  -0.543  -0.542  -0.530  -0.528  -0.517  -0.508  -0.503
 -0.493  -0.454  -0.419  -0.401  -0.389  -0.377  -0.359  -0.342
 -0.336  -0.272
 -- Virtual --
  0.083   0.092   0.095   0.098   0.111   0.120   0.127   0.129
  0.131   0.137   0.148   0.154   0.158   0.162   0.168   0.181
  0.184   0.194   0.204   0.210   0.224   0.229   0.254   0.255
  0.265   0.271   0.283   0.291   0.301   0.304   0.305   0.315
  0.317   0.324   0.327   0.330   0.339   0.350   0.356   0.359
  0.371   0.373   0.378   0.386   0.390   0.394   0.401   0.404
  0.410   0.419   0.422   0.429   0.431   0.437   0.439   0.441
  0.454   0.464   0.473   0.477   0.484   0.490   0.494   0.495
  0.515   0.521   0.534   0.550   0.557   0.577   0.586   0.610
  0.618   0.652   0.661   0.679   0.761   0.764   0.786   0.797
  0.814   0.826   0.864   0.876   0.912   0.917   0.924   0.995
  1.027   1.066   1.087   1.103   1.126   1.140   1.158   1.178
  1.187   1.215   1.218   1.226   1.235   1.237   1.257   1.262
  1.277   1.280   1.298   1.311   1.325   1.349   1.385   1.406
  1.435   1.452   1.486   1.487   1.499   1.508   1.516   1.525
  1.529   1.538   1.554   1.567   1.573   1.589   1.600   1.611
  1.625   1.652   1.699   1.748   1.756   1.784   1.809   1.835
  1.898   1.906   1.927   1.933   1.953   1.959   1.990   1.994
  2.040   2.051   2.068   2.127   2.178   2.226   2.270   2.295
  2.314   2.638   2.734   2.830   2.868   2.917   2.921   2.926
  2.937   2.952   2.964   3.014   3.021   3.032   3.038   3.052
  3.067   3.073   3.136   3.208   3.254   3.542   3.579   3.706
  3.786   3.797   3.821   3.822   3.823   3.834   3.838   3.841
  3.843   3.844   3.846   3.864   3.868   3.894   3.949   3.962
  3.963   3.968   4.075   4.111   4.181   4.217   4.279   4.286
  4.292   4.309   4.312   4.428   4.474   4.995   5.006   5.024
  5.029   5.102   5.151   5.166   5.177   5.201   5.215   5.232
  5.275   5.436   6.368   6.391   6.400   6.414   6.423   6.433
  6.442   6.448   6.472   6.496   6.497   6.502   6.525   6.547
  6.876   6.877   6.888   6.892   8.132   8.283  17.410  17.499
 17.520  17.539  17.593  17.655  23.612  23.620  35.567  50.023
 50.025  50.060  66.869  66.876  66.906  66.912  66.926  66.957
189.380 189.501
 
 Beta MOs
 -- Occupied --
-89.220 -89.092 -24.854 -24.853 -24.853 -24.846 -24.846 -24.846
-19.231 -19.228 -19.227 -14.415 -10.543 -10.518  -8.240  -8.128
 -6.188  -6.188  -6.187  -6.079  -6.073  -6.067  -1.435  -1.433
 -1.347  -1.347  -1.343  -1.342  -1.216  -1.113  -1.100  -0.986
 -0.837  -0.791  -0.774  -0.714  -0.696  -0.695  -0.694  -0.694
 -0.631  -0.615  -0.574  -0.572  -0.568  -0.567  -0.560  -0.546
 -0.543  -0.535  -0.533  -0.529  -0.528  -0.514  -0.507  -0.482
 -0.470  -0.436  -0.408  -0.396  -0.385  -0.361  -0.340  -0.335
 -- Virtual --
 -0.016  -0.010   0.087   0.094   0.096   0.102   0.115   0.122
  0.129   0.133   0.133   0.140   0.151   0.157   0.160   0.163
  0.171   0.182   0.185   0.199   0.207   0.214   0.226   0.234
  0.261   0.268   0.269   0.283   0.289   0.299   0.304   0.306
  0.308   0.317   0.321   0.328   0.330   0.335   0.342   0.351
  0.358   0.361   0.373   0.375   0.380   0.388   0.392   0.396
  0.403   0.405   0.412   0.420   0.425   0.431   0.433   0.438
  0.442   0.442   0.456   0.465   0.475   0.478   0.488   0.492
  0.496   0.499   0.516   0.522   0.536   0.551   0.558   0.578
  0.587   0.613   0.620   0.653   0.662   0.680   0.766   0.779
  0.789   0.813   0.824   0.838   0.875   0.888   0.914   0.924
  0.936   1.000   1.034   1.071   1.092   1.106   1.131   1.147
  1.159   1.183   1.196   1.224   1.226   1.232   1.245   1.246
  1.265   1.267   1.282   1.284   1.301   1.315   1.326   1.353
  1.389   1.413   1.438   1.458   1.486   1.488   1.502   1.514
  1.520   1.530   1.531   1.545   1.555   1.568   1.583   1.594
  1.610   1.615   1.653   1.670   1.703   1.755   1.761   1.806
  1.814   1.839   1.908   1.917   1.929   1.939   1.971   1.974
  1.993   1.999   2.042   2.052   2.071   2.129   2.184   2.230
  2.270   2.299   2.318   2.644   2.738   2.868   2.888   2.918
  2.931   2.948   2.953   2.961   2.972   3.021   3.037   3.047
  3.054   3.056   3.076   3.082   3.137   3.209   3.255   3.555
  3.582   3.707   3.789   3.797   3.827   3.827   3.828   3.834
  3.838   3.842   3.850   3.850   3.852   3.864   3.868   3.894
  3.950   3.968   3.974   3.974   4.077   4.117   4.191   4.217
  4.280   4.286   4.292   4.316   4.320   4.438   4.474   5.002
  5.014   5.025   5.030   5.131   5.152   5.178   5.184   5.207
  5.217   5.241   5.277   5.437   6.374   6.397   6.400   6.415
  6.431   6.439   6.446   6.451   6.475   6.497   6.498   6.503
  6.526   6.547   6.877   6.877   6.894   6.898   8.136   8.283
 17.422  17.501  17.521  17.541  17.594  17.655  23.618  23.640
 35.569  50.024  50.034  50.061  66.871  66.878  66.906  66.912
 66.928  66.957 189.383 189.501
 --------------------------------------------------------------
 
          Ground-State Mulliken Net Atomic Charges

     Atom                 Charge (a.u.)    Spin (a.u.)
  --------------------------------------------------------
      1 S                     0.351356       0.596257
      2 C                     0.163359       0.864053
      3 N                    -0.438319       0.102860
      4 O                    -0.446351       0.328846
      5 F                    -0.068418       0.039234
      6 F                    -0.058034       0.038316
      7 F                    -0.066695       0.037733
      8 S                     0.333229      -0.025557
      9 C                    -0.064036       0.005544
     10 O                    -0.247049      -0.000049
     11 O                    -0.270003       0.013508
     12 F                    -0.060726      -0.000633
     13 F                    -0.077295      -0.000050
     14 F                    -0.051018      -0.000062
  --------------------------------------------------------
  Sum of atomic charges =    -1.000000
  Sum of spin   charges =     2.000000

 -----------------------------------------------------------------
                    Cartesian Multipole Moments
 -----------------------------------------------------------------
    Charge (ESU x 10^10)
                -4.8032
    Dipole Moment (Debye)
         X       4.5271      Y       1.7814      Z       5.8129
       Tot       7.5801
    Quadrupole Moments (Debye-Ang)
        XX    -101.5780     XY      -6.1105     YY    -100.0658
        XZ      -7.6594     YZ       0.1017     ZZ    -121.8748
    Octopole Moments (Debye-Ang^2)
       XXX     181.8292    XXY     -28.4856    XYY      66.9499
       YYY     -97.3261    XXZ      77.8640    XYZ       6.1837
       YYZ      71.6800    XZZ      81.6449    YZZ     -29.1559
       ZZZ     261.4903
    Hexadecapole Moments (Debye-Ang^3)
      XXXX   -1495.7729   XXXY     -61.1576   XXYY    -472.8985
      XYYY     -63.3849   YYYY   -1280.3023   XXXZ    -506.0199
      XXYZ     -47.3795   XYYZ    -172.3049   YYYZ     -99.0216
      XXZZ    -533.1581   XYZZ     -31.2868   YYZZ    -482.7773
      XZZZ    -537.5093   YZZZ     -85.3845   ZZZZ   -1765.9364
 -----------------------------------------------------------------
 Calculating analytic gradient of the SCF energy
 Gradient of SCF Energy
            1           2           3           4           5           6
    1  -0.0114711   0.0040341  -0.0166085   0.0072832  -0.0030590   0.0138679
    2  -0.0037289   0.0191604  -0.0130373   0.0011303  -0.0135359  -0.0056363
    3   0.0118992   0.0088806  -0.0162525  -0.0131025   0.0129106  -0.0117274
            7           8           9          10          11          12
    1  -0.0133844   0.0112541  -0.0177150  -0.0109557   0.0229560  -0.0075775
    2   0.0010478   0.0113809   0.0077655  -0.0179026   0.0229636  -0.0182983
    3  -0.0093835   0.0004704   0.0036526   0.0256733  -0.0070359   0.0016923
           13          14
    1   0.0150027   0.0063733
    2   0.0013655   0.0073253
    3   0.0114476  -0.0191249
 Max gradient component =       2.567E-02
 RMS gradient           =       1.266E-02
 Computing fast CPCM-SWIG gradient
 Updating gradient with PCM contributions...
 -- total gradient after adding PCM contribution --
---------------------------------------------------
  Atom         X              Y              Z     
---------------------------------------------------
   1      -0.000102       0.000131      -0.000098
   2       0.000609       0.000442       0.001027
   3      -0.000313      -0.000128      -0.000185
   4      -0.000029       0.000013      -0.000114
   5       0.000082      -0.000211       0.000162
   6       0.000495      -0.000354      -0.000216
   7      -0.000743       0.000288      -0.000558
   8       0.000017      -0.000061      -0.000037
   9      -0.000127       0.000040      -0.000204
  10       0.000008      -0.000079       0.000159
  11       0.000139       0.000134      -0.000026
  12      -0.000017      -0.000256      -0.000002
  13       0.000015       0.000026       0.000080
[...]
  0.793   0.816   0.829   0.840   0.874   0.890   0.913   0.918
  0.938   0.998   1.045   1.073   1.095   1.110   1.131   1.150
  1.160   1.185   1.204   1.225   1.227   1.235   1.245   1.247
  1.264   1.271   1.281   1.283   1.306   1.314   1.326   1.352
  1.399   1.422   1.440   1.455   1.487   1.488   1.503   1.516
  1.521   1.523   1.534   1.547   1.555   1.570   1.585   1.594
  1.612   1.618   1.658   1.673   1.708   1.757   1.760   1.807
  1.815   1.840   1.908   1.923   1.932   1.942   1.974   1.981
  1.994   2.004   2.049   2.059   2.075   2.129   2.197   2.229
  2.273   2.298   2.319   2.641   2.739   2.868   2.907   2.918
  2.931   2.948   2.954   2.960   2.971   3.021   3.041   3.047
  3.054   3.058   3.072   3.079   3.137   3.209   3.255   3.555
  3.583   3.707   3.791   3.797   3.829   3.829   3.830   3.834
  3.838   3.841   3.852   3.853   3.855   3.864   3.869   3.894
  3.950   3.967   3.973   3.974   4.079   4.124   4.193   4.217
  4.279   4.286   4.292   4.314   4.318   4.444   4.473   5.005
  5.016   5.025   5.029   5.129   5.153   5.178   5.181   5.206
  5.217   5.240   5.277   5.436   6.382   6.398   6.402   6.416
  6.435   6.444   6.448   6.453   6.468   6.498   6.502   6.504
  6.531   6.550   6.875   6.877   6.894   6.900   8.137   8.283
 17.422  17.503  17.521  17.541  17.595  17.655  23.619  23.640
 35.570  50.024  50.033  50.062  66.873  66.881  66.908  66.913
 66.934  66.958 189.385 189.501
 --------------------------------------------------------------
 
          Ground-State Mulliken Net Atomic Charges

     Atom                 Charge (a.u.)    Spin (a.u.)
  --------------------------------------------------------
      1 S                     0.360039       0.594065
      2 C                     0.175440       0.862862
      3 N                    -0.433679       0.110651
      4 O                    -0.442321       0.329324
      5 F                    -0.071804       0.038488
      6 F                    -0.060728       0.037501
      7 F                    -0.072326       0.037345
      8 S                     0.300005      -0.030308
      9 C                    -0.051006       0.007159
     10 O                    -0.245355      -0.000322
     11 O                    -0.269649       0.014101
     12 F                    -0.059071      -0.000744
     13 F                    -0.078113      -0.000113
     14 F                    -0.051433      -0.000008
  --------------------------------------------------------
  Sum of atomic charges =    -1.000000
  Sum of spin   charges =     2.000000

 -----------------------------------------------------------------
                    Cartesian Multipole Moments
 -----------------------------------------------------------------
    Charge (ESU x 10^10)
                -4.8032
    Dipole Moment (Debye)
         X       4.3120      Y       1.6084      Z       5.5790
       Tot       7.2323
    Quadrupole Moments (Debye-Ang)
        XX    -101.2545     XY      -5.9992     YY    -100.4183
        XZ      -7.0111     YZ       0.5753     ZZ    -121.3093
    Octopole Moments (Debye-Ang^2)
       XXX     179.3633    XXY     -29.0696    XYY      66.3967
       YYY     -99.2469    XXZ      76.0558    XYZ       5.9051
       YYZ      70.4477    XZZ      79.8615    YZZ     -30.0673
       ZZZ     255.2822
    Hexadecapole Moments (Debye-Ang^3)
      XXXX   -1442.8835   XXXY     -42.5266   XXYY    -462.1764
      XYYY     -45.0328   YYYY   -1282.5362   XXXZ    -471.8966
      XXYZ     -36.7562   XYYZ    -160.1513   YYYZ     -73.2465
      XXZZ    -511.2594   XYZZ     -25.1838   YYZZ    -475.4107
      XZZZ    -498.4406   YZZZ     -54.4093   ZZZZ   -1690.7596
 -----------------------------------------------------------------
 Calculating analytic gradient of the SCF energy
 Gradient of SCF Energy
            1           2           3           4           5           6
    1  -0.0117209   0.0063795  -0.0164614   0.0076019  -0.0038274   0.0126457
    2  -0.0042339   0.0203197  -0.0117427   0.0007360  -0.0140886  -0.0063554
    3   0.0120971   0.0088603  -0.0173536  -0.0131526   0.0128497  -0.0120106
            7           8           9          10          11          12
    1  -0.0135126   0.0118619  -0.0189750  -0.0114568   0.0232103  -0.0072209
    2   0.0017088   0.0110022   0.0072520  -0.0186727   0.0231325  -0.0181214
    3  -0.0090364   0.0014968   0.0029688   0.0245772  -0.0052761   0.0011821
           13          14
    1   0.0146687   0.0068071
    2   0.0010344   0.0080291
    3   0.0117087  -0.0189115
 Max gradient component =       2.458E-02
 RMS gradient           =       1.276E-02
 Computing fast CPCM-SWIG gradient
 Updating gradient with PCM contributions...
 -- total gradient after adding PCM contribution --
---------------------------------------------------
  Atom         X              Y              Z     
---------------------------------------------------
   1       0.000052       0.000092       0.000000
   2       0.000124      -0.000138       0.000096
   3      -0.000028       0.000047      -0.000028
   4      -0.000002      -0.000053       0.000004
   5      -0.000003       0.000045      -0.000079
   6      -0.000083       0.000040      -0.000047
   7      -0.000016       0.000009       0.000011
   8      -0.000013      -0.000035       0.000003
   9       0.000058       0.000079      -0.000018
  10       0.000004       0.000019      -0.000035
  11      -0.000011      -0.000009       0.000001
  12      -0.000041      -0.000064       0.000130
  13      -0.000034      -0.000020      -0.000047
  14      -0.000007      -0.000013       0.000009
---------------------------------------------------
 Number of fixed atoms: 0
 Gradient time:  CPU 118.80 s  wall 12.70 s
 Geometry Optimization Parameters
   NAtoms,    NIC,     NZ,  NCons,   NDum,   NFix, NCnnct, MaxDiis
       14     144       0       0       0       0       0       0

 Cartesian Hessian Update
 Hessian Updated using BFGS Update


** GEOMETRY OPTIMIZATION IN DELOCALIZED INTERNAL COORDINATES **
   Searching for a Minimum

   Optimization Cycle:  25

                       Coordinates (Angstroms)
     ATOM                X               Y               Z
      1  S         0.5670248082   -1.2948610250    0.1211237592
      2  C         0.9636854592    2.0831990202    0.7361229839
      3  N         0.2070747303   -0.2108615468   -1.0708231633
      4  O        -0.3328856576   -1.1531954440    1.3232157136
      5  F         1.1691954383    2.9551125737   -0.2310364416
      6  F        -0.0356585537    2.4654051530    1.5088935520
      7  F         2.0643451931    1.9070134683    1.4480488548
      8  S        -1.0604538682   -0.3364809037   -2.0085108071
      9  C        -2.3087132385    0.8574946127   -1.2888203822
     10  O        -0.7827800101    0.2488489050   -3.3133860274
     11  O        -1.7548661415   -1.6216265791   -1.9718652748
     12  F        -1.8149126720    2.0941771981   -1.2493976565
     13  F        -3.4079776600    0.8714441722   -2.0471743261
     14  F        -2.6567471810    0.5037809051   -0.0556700873
   Point Group: c1    Number of degrees of freedom:    36


   Energy is  -1752.017181550

 Hessian Updated using BFGS Update

 36 Hessian modes will be used to form the next step
  Hessian Eigenvalues:
     0.000616    0.001319    0.001466    0.003684    0.006686    0.019015
     0.023817    0.036371    0.039809    0.052114    0.060421    0.067037
     0.070254    0.080298    0.087107    0.094463    0.105785    0.127101
     0.133933    0.144887    0.146292    0.172826    0.178613    0.203620
     0.209108    0.374085    0.478672    0.506912    0.553818    0.567913
     0.585913    0.596522    0.651861    0.661925    0.906604    0.926798

 Minimum Search - Taking Simple RFO Step
 Searching for Lamda that Minimizes Along All modes
 Value Taken    Lamda =  -0.00000134
 Step Taken.  Stepsize is  0.016693

                             Maximum     Tolerance    Cnvgd?
         Gradient           0.000066      0.000300     YES
         Displacement       0.007278      0.001200      NO
         Energy change     -0.000001      0.000001     YES


                       Distance Matrix (Angstroms)
             S (  1)   C (  2)   N (  3)   O (  4)   F (  5)   F (  6)
   C (  2)  3.456422
   N (  3)  1.650865  3.016658
   O (  4)  1.508288  3.535537  2.628873
   F (  5)  4.306844  1.318281  3.413841  4.642213
   F (  6)  4.053237  1.319827  3.725085  3.635532  2.172290
   F (  7)  3.775540  1.322623  3.778831  3.889367  2.172356  2.173826
   S (  8)  2.846493  4.181508  1.581666  3.506676  4.354921  4.612256
   C (  9)  3.858814  4.038730  2.741915  3.843111  4.196994  3.947069
   O ( 10)  4.000109  4.776349  2.494040  4.864793  4.542571  5.359635
   O ( 11)  3.143017  5.333803  2.579021  3.619256  5.703259  5.636948
   F ( 12)  4.363202  3.415116  3.071404  4.400020  3.268512  3.303290
   F ( 13)  5.019466  5.322268  3.897852  4.991481  5.347013  5.153530
   F ( 14)  3.695819  4.028527  3.121334  3.169736  4.547265  3.628489
             F (  7)   S (  8)   C (  9)   O ( 10)   O ( 11)   F ( 12)
   S (  8)  5.171599
   C (  9)  5.264559  1.871279
   O ( 10)  5.790241  1.456850  2.607257
   O ( 11)  6.223623  1.461215  2.630464  2.498661
   F ( 12)  4.728624  2.655854  1.332208  2.954756  3.785864
   F ( 13)  6.575356  2.640350  1.335544  2.980366  2.992299  2.160875
   F ( 14)  5.149655  2.658530  1.329248  3.766889  3.000425  2.159405
             F ( 13)
   F ( 14)  2.160003
 
 Final energy is   -1752.01718154963     


 ******************************
 **  OPTIMIZATION CONVERGED  **
 ******************************

                       Coordinates (Angstroms)
     ATOM                X               Y               Z
      1  S         0.5670248082   -1.2948610250    0.1211237592
      2  C         0.9636854592    2.0831990202    0.7361229839
      3  N         0.2070747303   -0.2108615468   -1.0708231633
      4  O        -0.3328856576   -1.1531954440    1.3232157136
      5  F         1.1691954383    2.9551125737   -0.2310364416
      6  F        -0.0356585537    2.4654051530    1.5088935520
      7  F         2.0643451931    1.9070134683    1.4480488548
      8  S        -1.0604538682   -0.3364809037   -2.0085108071
      9  C        -2.3087132385    0.8574946127   -1.2888203822
     10  O        -0.7827800101    0.2488489050   -3.3133860274
     11  O        -1.7548661415   -1.6216265791   -1.9718652748
     12  F        -1.8149126720    2.0941771981   -1.2493976565
     13  F        -3.4079776600    0.8714441722   -2.0471743261
     14  F        -2.6567471810    0.5037809051   -0.0556700873

Z-matrix Print:
$molecule
-1 3
S 
O  1 1.456850
O  1 1.461215 2 117.801249
N  1 1.581666 2 110.264223 3 136.044153 0
S  4 1.650865 1 123.409981 2 -150.010707 0
O  5 1.508288 4 112.561464 1 -74.234127 0
C  1 1.871279 2 102.430992 3 -112.812200 0
F  7 1.329248 1 111.202346 2 -177.993249 0
F  7 1.332208 1 110.880968 2 -57.231928 0
F  7 1.335544 1 109.714186 2 62.216553 0
C  4 3.016658 1 128.061307 2 87.643975 0
F  11 1.318281 4 95.890192 1 -65.823949 0
F  11 1.319827 4 112.397272 1 49.623053 0
F  11 1.322623 4 115.457135 1 177.915428 0
$end

 
 --------------------------------------------------------------
 
                    Orbital Energies (a.u.)
 --------------------------------------------------------------
 
 Alpha MOs
 -- Occupied --
-89.220 -89.096 -24.855 -24.855 -24.854 -24.846 -24.846 -24.846
-19.237 -19.231 -19.229 -14.417 -10.543 -10.531  -8.240  -8.132
 -6.189  -6.188  -6.188  -6.082  -6.079  -6.076  -1.441  -1.436
 -1.353  -1.353  -1.344  -1.343  -1.218  -1.133  -1.101  -0.993
 -0.839  -0.807  -0.786  -0.720  -0.702  -0.702  -0.696  -0.695
 -0.667  -0.623  -0.579  -0.576  -0.576  -0.572  -0.565  -0.549
 -0.545  -0.541  -0.540  -0.530  -0.529  -0.515  -0.508  -0.503
 -0.493  -0.454  -0.420  -0.401  -0.389  -0.378  -0.360  -0.343
 -0.332  -0.273
 -- Virtual --
  0.083   0.092   0.095   0.098   0.111   0.120   0.127   0.129
  0.131   0.137   0.148   0.155   0.160   0.162   0.168   0.180
  0.184   0.193   0.204   0.211   0.224   0.228   0.254   0.254
  0.265   0.271   0.281   0.293   0.301   0.303   0.306   0.314
  0.318   0.325   0.329   0.332   0.340   0.350   0.356   0.360
  0.373   0.376   0.379   0.387   0.391   0.396   0.400   0.405
  0.411   0.419   0.424   0.429   0.434   0.438   0.443   0.444
  0.456   0.465   0.474   0.476   0.484   0.487   0.494   0.497
  0.518   0.525   0.537   0.551   0.560   0.578   0.592   0.614
  0.617   0.655   0.662   0.680   0.757   0.766   0.787   0.798
  0.821   0.829   0.863   0.876   0.908   0.915   0.926   0.993
  1.039   1.068   1.090   1.107   1.126   1.141   1.158   1.181
  1.194   1.215   1.217   1.230   1.235   1.239   1.257   1.265
  1.277   1.280   1.301   1.310   1.325   1.348   1.395   1.416
  1.436   1.450   1.486   1.487   1.500   1.510   1.516   1.521
  1.531   1.542   1.554   1.568   1.575   1.589   1.604   1.612
  1.626   1.657   1.704   1.750   1.756   1.785   1.811   1.835
  1.903   1.907   1.931   1.936   1.956   1.965   1.991   1.999
  2.047   2.056   2.073   2.128   2.190   2.224   2.272   2.294
  2.315   2.636   2.737   2.850   2.867   2.917   2.921   2.926
  2.936   2.952   2.964   3.013   3.021   3.036   3.039   3.054
  3.061   3.071   3.136   3.209   3.255   3.542   3.579   3.706
  3.788   3.797   3.823   3.824   3.824   3.834   3.838   3.841
  3.845   3.846   3.849   3.864   3.868   3.894   3.949   3.961
  3.963   3.967   4.077   4.116   4.183   4.217   4.278   4.286
  4.292   4.307   4.311   4.433   4.473   4.997   5.008   5.025
  5.029   5.099   5.152   5.165   5.176   5.201   5.215   5.232
  5.276   5.436   6.376   6.394   6.400   6.415   6.427   6.438
  6.445   6.450   6.465   6.498   6.501   6.503   6.531   6.549
  6.872   6.877   6.888   6.896   8.134   8.283  17.410  17.501
 17.520  17.539  17.594  17.655  23.614  23.619  35.567  50.023
 50.025  50.062  66.871  66.880  66.908  66.912  66.933  66.958
189.382 189.501
 
 Beta MOs
 -- Occupied --
-89.220 -89.093 -24.852 -24.852 -24.851 -24.846 -24.846 -24.846
-19.231 -19.229 -19.227 -14.415 -10.543 -10.516  -8.240  -8.129
 -6.189  -6.188  -6.187  -6.079  -6.074  -6.067  -1.436  -1.431
 -1.345  -1.344  -1.344  -1.343  -1.216  -1.113  -1.100  -0.986
 -0.837  -0.790  -0.774  -0.714  -0.697  -0.695  -0.692  -0.692
 -0.630  -0.616  -0.574  -0.572  -0.566  -0.566  -0.560  -0.546
 -0.544  -0.534  -0.532  -0.529  -0.528  -0.512  -0.508  -0.483
 -0.470  -0.436  -0.409  -0.396  -0.386  -0.361  -0.341  -0.335
 -- Virtual --
 -0.017  -0.006   0.086   0.094   0.096   0.103   0.115   0.123
  0.129   0.133   0.134   0.140   0.151   0.157   0.162   0.163
  0.171   0.181   0.186   0.198   0.207   0.215   0.227   0.234
  0.260   0.268   0.269   0.283   0.289   0.301   0.304   0.305
  0.310   0.317   0.321   0.328   0.332   0.336   0.343   0.351
  0.359   0.363   0.375   0.377   0.381   0.389   0.393   0.398
  0.403   0.406   0.413   0.421   0.427   0.432   0.436   0.439
  0.445   0.447   0.457   0.465   0.476   0.478   0.487   0.490
  0.497   0.499   0.519   0.526   0.539   0.552   0.561   0.579
  0.595   0.616   0.619   0.656   0.665   0.682   0.763   0.781
  0.793   0.816   0.829   0.840   0.874   0.890   0.913   0.918
  0.938   0.998   1.045   1.073   1.095   1.110   1.131   1.150
  1.160   1.185   1.204   1.225   1.227   1.235   1.245   1.247
  1.264   1.271   1.281   1.283   1.306   1.314   1.326   1.352
  1.399   1.422   1.440   1.455   1.487   1.488   1.503   1.516
  1.521   1.523   1.534   1.547   1.555   1.570   1.585   1.594
  1.612   1.618   1.658   1.673   1.708   1.757   1.760   1.807
  1.815   1.840   1.908   1.923   1.932   1.942   1.974   1.981
  1.994   2.004   2.049   2.059   2.075   2.129   2.197   2.229
  2.273   2.298   2.319   2.641   2.739   2.868   2.907   2.918
  2.931   2.948   2.954   2.960   2.971   3.021   3.041   3.047
  3.054   3.058   3.072   3.079   3.137   3.209   3.255   3.555
  3.583   3.707   3.791   3.797   3.829   3.829   3.830   3.834
  3.838   3.841   3.852   3.853   3.855   3.864   3.869   3.894
  3.950   3.967   3.973   3.974   4.079   4.124   4.193   4.217
  4.279   4.286   4.292   4.314   4.318   4.444   4.473   5.005
  5.016   5.025   5.029   5.129   5.153   5.178   5.181   5.206
  5.217   5.240   5.277   5.436   6.382   6.398   6.402   6.416
  6.435   6.444   6.448   6.453   6.468   6.498   6.502   6.504
  6.531   6.550   6.875   6.877   6.894   6.900   8.137   8.283
 17.422  17.503  17.521  17.541  17.595  17.655  23.619  23.640
 35.570  50.024  50.033  50.062  66.873  66.881  66.908  66.913
 66.934  66.958 189.385 189.501
 --------------------------------------------------------------
 
          Ground-State Mulliken Net Atomic Charges

     Atom                 Charge (a.u.)    Spin (a.u.)
  --------------------------------------------------------
      1 S                     0.360039       0.594065
      2 C                     0.175440       0.862862
      3 N                    -0.433679       0.110651
      4 O                    -0.442321       0.329324
      5 F                    -0.071804       0.038488
      6 F                    -0.060728       0.037501
      7 F                    -0.072326       0.037345
      8 S                     0.300005      -0.030308
      9 C                    -0.051006       0.007159
     10 O                    -0.245355      -0.000322
     11 O                    -0.269649       0.014101
     12 F                    -0.059071      -0.000744
     13 F                    -0.078113      -0.000113
     14 F                    -0.051433      -0.000008
  --------------------------------------------------------
  Sum of atomic charges =    -1.000000
  Sum of spin   charges =     2.000000

 -----------------------------------------------------------------
                    Cartesian Multipole Moments
 -----------------------------------------------------------------
    Charge (ESU x 10^10)
                -4.8032
    Dipole Moment (Debye)
         X       4.3120      Y       1.6084      Z       5.5790
       Tot       7.2323
    Quadrupole Moments (Debye-Ang)
        XX    -101.2545     XY      -5.9992     YY    -100.4183
        XZ      -7.0111     YZ       0.5753     ZZ    -121.3093
    Octopole Moments (Debye-Ang^2)
       XXX     179.3633    XXY     -29.0696    XYY      66.3967
       YYY     -99.2469    XXZ      76.0558    XYZ       5.9051
       YYZ      70.4477    XZZ      79.8615    YZZ     -30.0673
       ZZZ     255.2822
    Hexadecapole Moments (Debye-Ang^3)
      XXXX   -1442.8835   XXXY     -42.5266   XXYY    -462.1764
      XYYY     -45.0328   YYYY   -1282.5362   XXXZ    -471.8966
      XXYZ     -36.7562   XYYZ    -160.1513   YYYZ     -73.2465
      XXZZ    -511.2594   XYZZ     -25.1838   YYZZ    -475.4107
      XZZZ    -498.4406   YZZZ     -54.4093   ZZZZ   -1690.7596
 -----------------------------------------------------------------
Archival summary:
1\1\nid02700\OPT\ProcedureUnspecified\BasisUnspecified\26312(1-,3)\sblau\WedNov1402:58:372018WedNov1402:58:372018\0\\#,OPT,ProcedureUnspecified,BasisUnspecified,\\-1,3\S\O,1,1.45685\O,1,1.46122,2,117.801\N,1,1.58167,2,110.264,3,136.044,0\S,4,1.65087,1,123.41,2,-150.011,0\O,5,1.50829,4,112.561,1,-74.2341,0\C,1,1.87128,2,102.431,3,-112.812,0\F,7,1.32925,1,111.202,2,-177.993,0\F,7,1.33221,1,110.881,2,-57.2319,0\F,7,1.33554,1,109.714,2,62.2166,0\C,4,3.01666,1,128.061,2,87.644,0\F,11,1.31828,4,95.8902,1,-65.8239,0\F,11,1.31983,4,112.397,1,49.6231,0\F,11,1.32262,4,115.457,1,177.915,0\\\@

 Total job time:  2677.15s(wall), 39351.30s(cpu) 
 Wed Nov 14 02:58:37 2018

        *************************************************************
        *                                                           *
        *  Thank you very much for using Q-Chem.  Have a nice day.  *
        *                                                           *
        *************************************************************


