
Running Job 1 of 2 hf_no_error.inp
qchem hf_no_error.inp_16870.0 /Users/xiaohuiqu/scratch/qchem16870/ 1
                  Welcome to Q-Chem
     A Quantum Leap Into The Future Of Chemistry

 Y. Shao, L. Fusti-Molnar, Y. Jung, J. Kussmann, C. Ochsenfeld, S. T. Brown, 
 A. T. B. Gilbert, L. V. Slipchenko, S. V. Levchenko, D. P. O'Neill, 
 R. A. DiStasio Jr., R. C. Lochan, T. Wang, G. J. O. Beran, N. A. Besley, 
 J. M. Herbert, C. Y. Lin, T. Van Voorhis, S. H. Chien, A. Sodt, R. P. Steele, 
 V. A. Rassolov, P. E. Maslen, P. P. Korambath, R. D. Adamson, B. Austin, 
 J. Baker, E. F. C. Byrd, H. Dachsel, R. J. Doerksen, A. Dreuw, B. D. Dunietz, 
 A. D. Dutoi, T. R. Furlani, S. R. Gwaltney, A. Heyden, S. Hirata, C.-P. Hsu, 
 G. Kedziora, R. Z. Khaliullin, P. Klunzinger, A. M. Lee, M. S. Lee, W. Liang, 
 I. Lotan, N. Nair, B. Peters, E. I. Proynov, P. A. Pieniazek, Y. M. Rhee, 
 J. Ritchie, E. Rosta, C. D. Sherrill, A. C. Simmonett, J. E. Subotnik, 
 H. L. Woodcock III, W. Zhang, A. T. Bell, A. K. Chakraborty, D. M. Chipman, 
 F. J. Keil, A. Warshel, W. J. Hehre, H. F. Schaefer III, J. Kong, 
 A. I. Krylov, P. M. W. Gill, M. Head-Gordon

 Additional authors for Version 3.1: 
 Z. Gan, Y. Zhao, N. E. SchultzD. Truhlar, E. Epifanovsky, M. Oana

 Additional authors for Version 3.2: 
 R. Baer, B. R. Brooks, D. Casanova, J.-D. Chai, C.-L. Cheng, C. Cramer, 
 D. Crittenden, A. Ghysels, G. Hawkins, E. G. Hohenstein, C. Kelley, 
 W. Kurlancheek, D. Liotard, E. Livshits, P. Manohar, A. Marenich, 
 D. Neuhauser, R. Olson, M. A. Rohrdanz, K. S. Thanthiriwatte, A. J. W. Thom, 
 V. Vanovschi, C. F. Williams, Q. Wu, Z.-Q. You

 Additional authors for Version 4.0: 
 A. Aspuru-Guzik, Y. Bernard, C. Chang, J. Deng, A. Dreuw, M. Diedenhofen, 
 R. G. Edgar, D. Ghosh, W. A. Goddard III, M. Goldey, L. D. Jacobson, 
 M. Gordon, B. Kaduk, I. Kaliman, K. Khistyaev, R. King, A. Klamt, 
 D. Kosenkov, T. Kus, D. Lambrecht, A. Landau, A. W. Lange, K. Lawler, F. Liu, 
 J. Liu, R. Olivares-Amaya, S. P. Mao, J. Parkhill, N. Russ, M. Schmidt, 
 N. Shenvi, D. Small, Y. C. Su, E. Sundstrom, L. Vogt, O. Vydrov, M. Watson, 
 M. Wormit, X. Xu, S. Yeganeh, I. Y. Zhang, D. Zuev

 Additional authors for Version 4.1: 
 X. Feng, M. W. D. Hason-Heine, P. Horn, H. Ji, A. Laurent, R. Peverati, 
 N. Mardirossian, N. Sergueev, S. Sharada, P. Zimmerman


 Q-Chem, Version 4.1, Q-Chem, Inc., Pittsburgh, PA (2013).

 MAC (Intel) OSX Version 4.1.0.1 

 Q-chem begins on Fri Dec 13 14:53:04 2013  

Host: 
0

     Scratch files written to /Users/xiaohuiqu/scratch/qchem16870//
 Aug3013 17693_zgan 4696   
Processing $rem in /Users/xiaohuiqu/program/qchem/config/preferences.
 MEM_TOTAL  2000 
Finally everything over in PARseQInput

--------------------------------------------------------------
User input:
--------------------------------------------------------------
$molecule
0 1
H       0.000000     0.000000    -0.862674
F       0.000000     0.000000     0.043813
$end

$rem
job_type = sp
exchange = b3lyp
basis = 6-31g*
scf_max_cycles = 25
$end


--------------------------------------------------------------
 ----------------------------------------------------
       Standard Nuclear Orientation (Angstroms)
    I     Atom         X            Y            Z
 ----------------------------------------------------
    1      H       0.000000     0.000000    -0.815838
    2      F       0.000000     0.000000     0.090649
 ----------------------------------------------------
 Molecular Point Group                 C*v   NOp =***
 Largest Abelian Subgroup              C2v   NOp =  1
 Nuclear Repulsion Energy =     5.2539031417 hartrees
 There are        5 alpha and        5 beta electrons
 Requested basis set is 6-31G(d)
 There are 6 shells and 17 basis functions

Total QAlloc Memory Limit   2000 MB
Mega-Array Size        61 MB
MEM_STATIC part        62 MB

                       Distance Matrix (Angstroms)
             H (  1)
   F (  2)  0.906487
 
 A cutoff of  1.0D-08 yielded     21 shell pairs
 There are       180 function pairs
 Smallest overlap matrix eigenvalue = 1.21E-02

  Scale SEOQF with 1.000000e+00/1.000000e+00/1.000000e+00

 Standard Electronic Orientation quadrupole field applied
 Nucleus-field energy     =    -0.0000000008 hartrees
 Guess from superposition of atomic densities
 Warning:  Energy on first SCF cycle will be non-variational
 A restricted hybrid HF-DFT SCF calculation will be
 performed using Pulay DIIS extrapolation
 Exchange:     0.2000 Hartree-Fock + 0.0800 Slater + 0.7200 Becke88
 Correlation:  0.8100 LYP + 0.1900 VWN1RPA
 Using SG-1 standard quadrature grid
 SCF converges when DIIS error is below 1.0E-05
 ---------------------------------------
  Cycle       Energy         DIIS Error
 ---------------------------------------
    1    -100.4008018360      1.35E-01
    2    -100.3886675105      3.58E-02
    3    -100.3836046900      4.13E-02
    4    -100.4193150296      1.18E-03
    5    -100.4193522707      1.68E-04
    6    -100.4193529007      1.02E-05
    7    -100.4193529042      4.58E-07 Convergence criterion met
 ---------------------------------------
 SCF time:  CPU 0.14 s  wall 0.25 s
 SCF   energy in the final basis set = -100.4193529042
 Total energy in the final basis set = -100.4193529042
 Analysis of SCF Wavefunction
 
 --------------------------------------------------------------
                    Orbital Energies (a.u.)
 --------------------------------------------------------------
 
 Alpha MOs
 -- Occupied --
-24.663  -1.177  -0.525  -0.379  -0.379
 -- Virtual --
  0.071   0.835   1.098   1.178   1.178   1.452   1.796   1.796
  1.868   1.868   2.660   3.686
 --------------------------------------------------------------
 
          Ground-State Mulliken Net Atomic Charges

     Atom                 Charge (a.u.)
  ----------------------------------------
      1 H                     0.466960
      2 F                    -0.466960
  ----------------------------------------
  Sum of atomic charges =     0.000000

 -----------------------------------------------------------------
                    Cartesian Multipole Moments
 -----------------------------------------------------------------
    Charge (ESU x 10^10)
                 0.0000
    Dipole Moment (Debye)
         X       0.0000      Y       0.0000      Z      -1.8263
       Tot       1.8263
    Quadrupole Moments (Debye-Ang)
        XX      -5.3769     XY       0.0000     YY      -5.3769
        XZ       0.0000     YZ       0.0000     ZZ      -3.4877
    Octapole Moments (Debye-Ang^2)
       XXX       0.0000    XXY       0.0000    XYY       0.0000
       YYY       0.0000    XXZ      -0.1363    XYZ       0.0000
       YYZ      -0.1363    XZZ       0.0000    YZZ       0.0000
       ZZZ      -1.5805
    Hexadecapole Moments (Debye-Ang^3)
      XXXX      -2.8929   XXXY       0.0000   XXYY      -0.9643
      XYYY       0.0000   YYYY      -2.8929   XXXZ       0.0000
      XXYZ       0.0000   XYYZ       0.0000   YYYZ       0.0000
      XXZZ      -1.1869   XYZZ       0.0000   YYZZ      -1.1869
      XZZZ       0.0000   YZZZ       0.0000   ZZZZ      -3.0216
 -----------------------------------------------------------------
Archival summary:
1\1\macqu.dhcp.lbnl.us\SP\ProcedureUnspecified\6-31G*\11\FriDec1314:53:052013FriDec1314:53:052013\0\\#,ProcedureUnspecified,6-31G*,\\0,1\H\F,1,0.906487\\\@

 Total job time:  0.32s(wall), 0.17s(cpu) 
 Fri Dec 13 14:53:05 2013

        *************************************************************
        *                                                           *
        *  Thank you very much for using Q-Chem.  Have a nice day.  *
        *                                                           *
        *************************************************************



Running Job 2 of 2 hf_no_error.inp
qchem hf_no_error.inp_16870.1 /Users/xiaohuiqu/scratch/qchem16870/ 1
                  Welcome to Q-Chem
     A Quantum Leap Into The Future Of Chemistry

 Y. Shao, L. Fusti-Molnar, Y. Jung, J. Kussmann, C. Ochsenfeld, S. T. Brown, 
 A. T. B. Gilbert, L. V. Slipchenko, S. V. Levchenko, D. P. O'Neill, 
 R. A. DiStasio Jr., R. C. Lochan, T. Wang, G. J. O. Beran, N. A. Besley, 
 J. M. Herbert, C. Y. Lin, T. Van Voorhis, S. H. Chien, A. Sodt, R. P. Steele, 
 V. A. Rassolov, P. E. Maslen, P. P. Korambath, R. D. Adamson, B. Austin, 
 J. Baker, E. F. C. Byrd, H. Dachsel, R. J. Doerksen, A. Dreuw, B. D. Dunietz, 
 A. D. Dutoi, T. R. Furlani, S. R. Gwaltney, A. Heyden, S. Hirata, C.-P. Hsu, 
 G. Kedziora, R. Z. Khaliullin, P. Klunzinger, A. M. Lee, M. S. Lee, W. Liang, 
 I. Lotan, N. Nair, B. Peters, E. I. Proynov, P. A. Pieniazek, Y. M. Rhee, 
 J. Ritchie, E. Rosta, C. D. Sherrill, A. C. Simmonett, J. E. Subotnik, 
 H. L. Woodcock III, W. Zhang, A. T. Bell, A. K. Chakraborty, D. M. Chipman, 
 F. J. Keil, A. Warshel, W. J. Hehre, H. F. Schaefer III, J. Kong, 
 A. I. Krylov, P. M. W. Gill, M. Head-Gordon

 Additional authors for Version 3.1: 
 Z. Gan, Y. Zhao, N. E. SchultzD. Truhlar, E. Epifanovsky, M. Oana

 Additional authors for Version 3.2: 
 R. Baer, B. R. Brooks, D. Casanova, J.-D. Chai, C.-L. Cheng, C. Cramer, 
 D. Crittenden, A. Ghysels, G. Hawkins, E. G. Hohenstein, C. Kelley, 
 W. Kurlancheek, D. Liotard, E. Livshits, P. Manohar, A. Marenich, 
 D. Neuhauser, R. Olson, M. A. Rohrdanz, K. S. Thanthiriwatte, A. J. W. Thom, 
 V. Vanovschi, C. F. Williams, Q. Wu, Z.-Q. You

 Additional authors for Version 4.0: 
 A. Aspuru-Guzik, Y. Bernard, C. Chang, J. Deng, A. Dreuw, M. Diedenhofen, 
 R. G. Edgar, D. Ghosh, W. A. Goddard III, M. Goldey, L. D. Jacobson, 
 M. Gordon, B. Kaduk, I. Kaliman, K. Khistyaev, R. King, A. Klamt, 
 D. Kosenkov, T. Kus, D. Lambrecht, A. Landau, A. W. Lange, K. Lawler, F. Liu, 
 J. Liu, R. Olivares-Amaya, S. P. Mao, J. Parkhill, N. Russ, M. Schmidt, 
 N. Shenvi, D. Small, Y. C. Su, E. Sundstrom, L. Vogt, O. Vydrov, M. Watson, 
 M. Wormit, X. Xu, S. Yeganeh, I. Y. Zhang, D. Zuev

 Additional authors for Version 4.1: 
 X. Feng, M. W. D. Hason-Heine, P. Horn, H. Ji, A. Laurent, R. Peverati, 
 N. Mardirossian, N. Sergueev, S. Sharada, P. Zimmerman


 Q-Chem, Version 4.1, Q-Chem, Inc., Pittsburgh, PA (2013).

 MAC (Intel) OSX Version 4.1.0.1 

 Q-chem begins on Fri Dec 13 14:53:05 2013  

Host: 
0

     Scratch files written to /Users/xiaohuiqu/scratch/qchem16870//
 Aug3013 17693_zgan 4696   
Processing $rem in /Users/xiaohuiqu/program/qchem/config/preferences.
 MEM_TOTAL  2000 
Finally everything over in PARseQInput

--------------------------------------------------------------
User input:
--------------------------------------------------------------


$molecule
1 2
read
$end


$rem
job_type = sp
exchange = b3lyp
basis = 6-31g*
$end




--------------------------------------------------------------
 ----------------------------------------------------
       Standard Nuclear Orientation (Angstroms)
    I     Atom         X            Y            Z
 ----------------------------------------------------
    1      H       0.000000     0.000000    -0.815838
    2      F       0.000000     0.000000     0.090649
 ----------------------------------------------------
 Molecular Point Group                 C*v   NOp =***
 Largest Abelian Subgroup              C2v   NOp =  1
 Nuclear Repulsion Energy =     5.2539031417 hartrees
 There are        5 alpha and        4 beta electrons
 Requested basis set is 6-31G(d)
 There are 6 shells and 17 basis functions

Total QAlloc Memory Limit   2000 MB
Mega-Array Size        61 MB
MEM_STATIC part        62 MB

                       Distance Matrix (Angstroms)
             H (  1)
   F (  2)  0.906487
 
 A cutoff of  1.0D-08 yielded     21 shell pairs
 There are       180 function pairs
 Smallest overlap matrix eigenvalue = 1.21E-02

  Scale SEOQF with 1.000000e+00/1.000000e+00/1.000000e+00

 Standard Electronic Orientation quadrupole field applied
 Nucleus-field energy     =    -0.0000000008 hartrees
 Guess from superposition of atomic densities
 Warning:  Energy on first SCF cycle will be non-variational
 An unrestricted hybrid HF-DFT SCF calculation will be
 performed using Pulay DIIS extrapolation
 Exchange:     0.2000 Hartree-Fock + 0.0800 Slater + 0.7200 Becke88
 Correlation:  0.8100 LYP + 0.1900 VWN1RPA
 Using SG-1 standard quadrature grid
 SCF converges when DIIS error is below 1.0E-05
 Inaccurate integrated density:
   Number of electrons =     9
   Numerical integral  =    10.000000959174
   Relative error      =    11.1111217686 %
 ---------------------------------------
  Cycle       Energy         DIIS Error
 ---------------------------------------
    1    -100.4008018360      1.35E-01
    2     -99.8012519202      3.61E-02
    3     -99.8197720880      2.83E-02
    4     -99.8380985545      1.58E-03
    5     -99.8381951364      3.35E-04
    6     -99.8382031304      3.91E-05
    7     -99.8382043519      1.56E-05
    8     -99.8382045510      2.27E-06 Convergence criterion met
 ---------------------------------------
 <S^2> = 0.7514
 SCF time:  CPU 0.17 s  wall 0.24 s
 SCF   energy in the final basis set = -99.8382045510
 Total energy in the final basis set = -99.8382045510
 Analysis of SCF Wavefunction
 
 --------------------------------------------------------------
                    Orbital Energies (a.u.)
 --------------------------------------------------------------
 
 Alpha MOs
 -- Occupied --
-25.383  -1.833  -1.126  -1.092  -0.998
 -- Virtual --
 -0.318   0.358   0.597   0.630   0.652   0.951   1.214   1.261
  1.286   1.287   2.128   3.154
 
 Beta MOs
 -- Occupied --
-25.350  -1.745  -1.092  -0.964
 -- Virtual --
 -0.781  -0.310   0.365   0.650   0.669   0.706   0.976   1.269
  1.272   1.344   1.350   2.150   3.193
 --------------------------------------------------------------
 
          Ground-State Mulliken Net Atomic Charges

     Atom                 Charge (a.u.)    Spin (a.u.)
  --------------------------------------------------------
      1 H                     0.639863      -0.019983
      2 F                     0.360137       1.019983
  --------------------------------------------------------
  Sum of atomic charges =     1.000000
  Sum of spin   charges =     1.000000

 -----------------------------------------------------------------
                    Cartesian Multipole Moments
 -----------------------------------------------------------------
    Charge (ESU x 10^10)
                 4.8032
    Dipole Moment (Debye)
         X       0.0000      Y       0.0000      Z      -2.0741
       Tot       2.0741
    Quadrupole Moments (Debye-Ang)
        XX      -3.8330     XY      -0.3425     YY      -4.1381
        XZ       0.0000     YZ       0.0000     ZZ      -2.0063
    Octapole Moments (Debye-Ang^2)
       XXX       0.0000    XXY       0.0000    XYY       0.0000
       YYY       0.0000    XXZ      -0.1587    XYZ      -0.0235
       YYZ      -0.1796    XZZ       0.0000    YZZ       0.0000
       ZZZ      -2.2702
    Hexadecapole Moments (Debye-Ang^3)
      XXXX      -1.7245   XXXY      -0.1321   XXYY      -0.6141
      XYYY      -0.1321   YYYY      -1.9598   XXXZ       0.0000
      XXYZ       0.0000   XYYZ       0.0000   YYYZ       0.0000
      XXZZ      -0.7548   XYZZ      -0.0456   YYZZ      -0.7953
      XZZZ       0.0000   YZZZ       0.0000   ZZZZ      -1.2558
 -----------------------------------------------------------------
Archival summary:
1\1\macqu.dhcp.lbnl.us\SP\ProcedureUnspecified\6-31G*\11(1+,2)\FriDec1314:53:052013FriDec1314:53:052013\0\\#,ProcedureUnspecified,6-31G*,\\1,2\H\F,1,0.906487\\\@

 Total job time:  0.30s(wall), 0.19s(cpu) 
 Fri Dec 13 14:53:05 2013

        *************************************************************
        *                                                           *
        *  Thank you very much for using Q-Chem.  Have a nice day.  *
        *                                                           *
        *************************************************************


