
Running Job 1 of 3 ts_cf3_leave.inp
qchem ts_cf3_leave.inp_31154.0 /scratch3/scratchdirs/xhqu/qc_scratch/qchem31154/ 16
aprun -n 16 /global/project/projectdirs/jcesr/qchem/qc41/exe/qcprog.exe ts_cf3_leave.inp_31154.0 /scratch3/scratchdirs/xhqu/qc_scratch/qchem31154/

Process 0 of 16 is on nid00603 - thread support 0
Process 1 of 16 is on nid00603 - thread support 0
Process 2 of 16 is on nid00603 - thread support 0
Process 4 of 16 is on nid00603 - thread support 0
Process 5 of 16 is on nid00603 - thread support 0
Process 3 of 16 is on nid00603 - thread support 0
Process 6 of 16 is on nid00603 - thread support 0
Process 15 of 16 is on nid00603 - thread support 0
initial socket setup ...start 0 nproc 16 
initial socket setup ...done 0 nproc 16 
now start server 0 ... 
                  Welcome to Q-Chem
     A Quantum Leap Into The Future Of Chemistry

 Y. Shao, L. Fusti-Molnar, Y. Jung, J. Kussmann, C. Ochsenfeld, S. T. Brown, 
 A. T. B. Gilbert, L. V. Slipchenko, S. V. Levchenko, D. P. O'Neill, 
 R. A. DiStasio Jr., R. C. Lochan, T. Wang, G. J. O. Beran, N. A. Besley, 
 J. M. Herbert, C. Y. Lin, T. Van Voorhis, S. H. Chien, A. Sodt, R. P. Steele, 
 V. A. Rassolov, P. E. Maslen, P. P. Korambath, R. D. Adamson, B. Austin, 
 J. Baker, E. F. C. Byrd, H. Dachsel, R. J. Doerksen, A. Dreuw, B. D. Dunietz, 
 A. D. Dutoi, T. R. Furlani, S. R. Gwaltney, A. Heyden, S. Hirata, C.-P. Hsu, 
 G. Kedziora, R. Z. Khaliullin, P. Klunzinger, A. M. Lee, M. S. Lee, W. Liang, 
 I. Lotan, N. Nair, B. Peters, E. I. Proynov, P. A. Pieniazek, Y. M. Rhee, 
 J. Ritchie, E. Rosta, C. D. Sherrill, A. C. Simmonett, J. E. Subotnik, 
 H. L. Woodcock III, W. Zhang, A. T. Bell, A. K. Chakraborty, D. M. Chipman, 
 F. J. Keil, A. Warshel, W. J. Hehre, H. F. Schaefer III, J. Kong, 
 A. I. Krylov, P. M. W. Gill, M. Head-Gordon

 Additional authors for Version 3.1: 
 Z. Gan, Y. Zhao, N. E. SchultzD. Truhlar, E. Epifanovsky, M. Oana

 Additional authors for Version 3.2: 
 R. Baer, B. R. Brooks, D. Casanova, J.-D. Chai, C.-L. Cheng, C. Cramer, 
 D. Crittenden, A. Ghysels, G. Hawkins, E. G. Hohenstein, C. Kelley, 
 W. Kurlancheek, D. Liotard, E. Livshits, P. Manohar, A. Marenich, 
 D. Neuhauser, R. Olson, M. A. Rohrdanz, K. S. Thanthiriwatte, A. J. W. Thom, 
 V. Vanovschi, C. F. Williams, Q. Wu, Z.-Q. You

 Additional authors for Version 4.0: 
 A. Aspuru-Guzik, Y. Bernard, C. Chang, J. Deng, A. Dreuw, M. Diedenhofen, 
 R. G. Edgar, D. Ghosh, W. A. Goddard III, M. Goldey, L. D. Jacobson, 
 M. Gordon, B. Kaduk, I. Kaliman, K. Khistyaev, R. King, A. Klamt, 
 D. Kosenkov, T. Kus, D. Lambrecht, A. Landau, A. W. Lange, K. Lawler, F. Liu, 
 J. Liu, R. Olivares-Amaya, S. P. Mao, J. Parkhill, N. Russ, M. Schmidt, 
 N. Shenvi, D. Small, Y. C. Su, E. Sundstrom, L. Vogt, O. Vydrov, M. Watson, 
 M. Wormit, X. Xu, S. Yeganeh, I. Y. Zhang, D. Zuev

 Additional authors for Version 4.1: 
 X. Feng, M. W. D. Hanson-Heine, P. Horn, H. Ji, A. Laurent, R. Peverati, 
 N. Mardirossian, N. Sergueev, S. Sharada, P. Zimmerman


 Q-Chem, Version 4.1, Q-Chem, Inc., Pittsburgh, PA (2013).

 Intel X86 Linux Version 4.1.1

 Q-chem begins on Thu Jun  5 20:47:08 2014  

 Host: edison11

 Scratch files written to /scratch3/scratchdirs/xhqu/qc_scratch/qchem31154.0//
 Nov1913 .. -1
 Parallel job on  16  processors

Processing $rem in /global/project/projectdirs/jcesr/qchem/qc41/config/preferences.
 MEM_TOTAL  4000 
Finally everything over in PARseQInput

--------------------------------------------------------------
User input:
--------------------------------------------------------------
$molecule
0  2
N           0.07199000       -0.70098000        0.42826000
S          -1.28271000        0.02667000        0.86142000
O          -1.71718000       -0.42130000        2.17028000
O          -1.28161000        1.51716000        0.61338000
C          -3.91578000       -1.46625000       -1.16155000
F          -5.09495000       -0.90977000       -0.87794000
F          -4.01825000       -2.79104000       -1.10925000
F          -3.53548000       -1.09378000       -2.39348000
S           1.14278000       -0.18806000       -0.65565000
O           1.11881000        1.30676000       -0.88415000
O           1.24678000       -1.01771000       -1.84432000
C           2.73131000       -0.42926000        0.33210000
F           3.76504000       -0.10500000       -0.44831000
F           2.71734000        0.37237000        1.40331000
F           2.84104000       -1.69637000        0.71989000
Mg         -0.03984000        2.85181000       -0.26807000
$end


$rem
jobtype = freq
exchange = b3lyp
basis = 6-31+g*
mem_static = 100
mem_total = 2500
$end


--------------------------------------------------------------
 ----------------------------------------------------
       Standard Nuclear Orientation (Angstroms)
    I     Atom         X            Y            Z
 ----------------------------------------------------
    1      N      -0.356274     0.342306     0.711803
    2      S       0.747019    -0.786951     0.956417
    3      O       1.046718    -0.922846     2.368603
    4      O       0.498356    -2.061269     0.183522
    5      C       3.904705     0.633721    -0.168297
    6      F       4.894637    -0.247640    -0.014082
    7      F       4.250644     1.799112     0.370678
    8      F       3.659815     0.799671    -1.477305
    9      S      -1.320336     0.493482    -0.565800
   10      O      -1.548648    -0.797295    -1.320149
   11      O      -1.073123     1.675016    -1.375081
   12      C      -2.968734     0.755440     0.312505
   13      F      -3.908658     0.967412    -0.611829
   14      F      -3.279141    -0.339671     1.015837
   15      F      -2.892530     1.805247     1.124962
   16      Mg     -0.821513    -2.686802    -1.218937
 ----------------------------------------------------
 Molecular Point Group                 C1    NOp =  1
 Largest Abelian Subgroup              C1    NOp =  1
 Nuclear Repulsion Energy =  1647.9391638388 hartrees
 There are       75 alpha and       74 beta electrons
 Requested basis set is 6-31+G(d)
 There are 83 shells and 316 basis functions

Total QAlloc Memory Limit   2500 MB
Mega-Array Size       114 MB
MEM_STATIC part       100 MB
 A cutoff of  1.0D-11 yielded   2585 shell pairs
 There are     39996 function pairs
 Smallest overlap matrix eigenvalue = 7.70E-05
 Guess from superposition of atomic densities
 Warning:  Energy on first SCF cycle will be non-variational
 An unrestricted hybrid HF-DFT SCF calculation will be
 performed using Pulay DIIS extrapolation
 Exchange:     0.2000 Hartree-Fock + 0.0800 Slater + 0.7200 Becke88
 Correlation:  0.8100 LYP + 0.1900 VWN1RPA
 Using SG-1 standard quadrature grid
 SCF converges when DIIS error is below 1.0E-08
 ---------------------------------------
  Cycle       Energy         DIIS Error
 ---------------------------------------
    1   -2030.4796083185      3.89E-02
    2   -2026.5931652968      7.59E-03
    3   -2021.9055086246      1.86E-02
    4   -2026.7232885822      6.18E-03
    5   -2027.1908644999      9.78E-04
    6   -2027.1503260824      1.79E-03
    7   -2027.1846314292      1.03E-03
    8   -2027.2074842198      2.34E-04
    9   -2027.2075640640      3.37E-04
   10   -2027.2119743606      2.36E-04
   11   -2027.2149561133      2.59E-04
   12   -2027.2144352365      2.66E-04
   13   -2027.2148773223      2.51E-04
   14   -2027.2150330152      2.15E-04
   15   -2027.2152921254      2.10E-04
   16   -2027.2152809988      2.10E-04
   17   -2027.2122425028      5.10E-04
   18   -2027.2180208671      1.54E-04
   19   -2027.2184464949      1.16E-04
   20   -2027.2188002661      6.07E-05
   21   -2027.2188850428      1.42E-05
   22   -2027.2188889935      1.02E-05
   23   -2027.2188906534      2.50E-06
   24   -2027.2188909291      1.30E-06
   25   -2027.2188909709      1.54E-06
   26   -2027.2188910473      5.92E-07
   27   -2027.2188910560      1.20E-07
   28   -2027.2188910600      3.99E-08
   29   -2027.2188910582      1.57E-08
   30   -2027.2188910605      8.21E-09 Convergence criterion met
 ---------------------------------------
 <S^2> = 1.4727
 SCF time:  CPU 44.77 s  wall 54.83 s
 SCF   energy in the final basis set = -2027.2188910605
 Total energy in the final basis set = -2027.2188910605
 Analysis of SCF Wavefunction
 
 --------------------------------------------------------------
                    Orbital Energies (a.u.)
 --------------------------------------------------------------
 
 Alpha MOs
 -- Occupied --
-89.181 -89.120 -46.909 -24.799 -24.796 -24.795 -24.785 -24.785
-24.783 -19.226 -19.213 -19.204 -19.190 -14.388 -10.502 -10.469
 -8.204  -8.151  -6.170  -6.168  -6.167  -6.117  -6.116  -6.109
 -3.186  -1.931  -1.930  -1.929  -1.373  -1.354  -1.286  -1.285
 -1.271  -1.268  -1.174  -1.142  -1.066  -1.044  -0.956  -0.799
 -0.735  -0.732  -0.668  -0.648  -0.645  -0.628  -0.627  -0.616
 -0.593  -0.580  -0.530  -0.520  -0.516  -0.509  -0.506  -0.506
 -0.496  -0.489  -0.487  -0.482  -0.472  -0.471  -0.466  -0.462
 -0.447  -0.408  -0.391  -0.385  -0.373  -0.364  -0.361  -0.336
 -0.320  -0.302  -0.216
 -- Virtual --
 -0.166  -0.059  -0.039  -0.023  -0.011  -0.006   0.006   0.012
  0.013   0.020   0.028   0.031   0.036   0.038   0.046   0.051
  0.065   0.067   0.072   0.077   0.081   0.086   0.090   0.094
  0.098   0.104   0.115   0.126   0.132   0.140   0.144   0.150
  0.151   0.158   0.164   0.166   0.170   0.180   0.183   0.185
  0.187   0.196   0.203   0.208   0.219   0.225   0.229   0.233
  0.239   0.252   0.254   0.259   0.262   0.271   0.280   0.286
  0.293   0.294   0.300   0.301   0.309   0.315   0.316   0.325
  0.331   0.335   0.340   0.342   0.347   0.353   0.354   0.359
  0.370   0.374   0.375   0.383   0.393   0.403   0.408   0.411
  0.415   0.423   0.426   0.441   0.451   0.467   0.471   0.490
  0.496   0.532   0.539   0.544   0.551   0.573   0.610   0.649
  0.652   0.675   0.680   0.698   0.706   0.713   0.759   0.766
  0.784   0.814   0.858   0.882   0.899   0.999   1.008   1.029
  1.047   1.066   1.077   1.083   1.102   1.129   1.168   1.175
  1.188   1.203   1.214   1.223   1.234   1.251   1.270   1.288
  1.291   1.302   1.314   1.321   1.325   1.387   1.403   1.434
  1.454   1.497   1.507   1.522   1.527   1.549   1.553   1.559
  1.569   1.579   1.585   1.595   1.600   1.607   1.612   1.619
  1.631   1.633   1.636   1.643   1.649   1.678   1.684   1.711
  1.727   1.731   1.743   1.753   1.769   1.781   1.783   1.787
  1.789   1.791   1.797   1.802   1.810   1.810   1.813   1.817
  1.837   1.848   1.856   1.861   1.881   1.893   1.908   1.948
  1.953   1.956   1.965   1.986   1.988   1.994   1.997   2.011
  2.014   2.034   2.039   2.057   2.091   2.111   2.128   2.200
  2.213   2.222   2.243   2.254   2.259   2.276   2.289   2.312
  2.440   2.533   2.572   2.629   2.688   2.704   2.713   2.734
  2.769   2.774   2.854   2.890   3.079   3.080   3.154   3.166
  3.179   3.193   3.929   3.987   4.049   4.115   4.156   4.234
  4.275   4.389   4.479   5.261   5.292   5.699   5.742   5.879
  6.286
 
 Beta MOs
 -- Occupied --
-89.181 -89.122 -46.907 -24.799 -24.796 -24.795 -24.781 -24.781
-24.779 -19.225 -19.216 -19.203 -19.196 -14.391 -10.502 -10.454
 -8.204  -8.153  -6.170  -6.168  -6.167  -6.118  -6.117  -6.115
 -3.182  -1.929  -1.927  -1.925  -1.373  -1.345  -1.286  -1.285
 -1.262  -1.259  -1.175  -1.150  -1.065  -1.054  -0.963  -0.802
 -0.739  -0.716  -0.672  -0.648  -0.645  -0.619  -0.619  -0.618
 -0.585  -0.557  -0.534  -0.521  -0.519  -0.515  -0.507  -0.497
 -0.496  -0.495  -0.487  -0.485  -0.469  -0.464  -0.463  -0.462
 -0.444  -0.410  -0.394  -0.393  -0.380  -0.371  -0.365  -0.340
 -0.330  -0.264
 -- Virtual --
 -0.133  -0.128  -0.039  -0.029  -0.018  -0.012  -0.001   0.007
  0.013   0.017   0.023   0.031   0.033   0.038   0.044   0.049
  0.051   0.066   0.070   0.074   0.080   0.081   0.086   0.090
  0.092   0.098   0.104   0.116   0.128   0.133   0.139   0.145
  0.154   0.163   0.168   0.170   0.178   0.182   0.183   0.188
  0.189   0.194   0.198   0.208   0.211   0.224   0.228   0.235
  0.238   0.243   0.252   0.257   0.263   0.266   0.273   0.281
  0.287   0.294   0.297   0.302   0.303   0.309   0.316   0.318
  0.326   0.332   0.336   0.340   0.344   0.349   0.353   0.356
  0.361   0.371   0.376   0.378   0.384   0.394   0.405   0.409
  0.413   0.415   0.426   0.428   0.446   0.452   0.469   0.476
  0.492   0.500   0.533   0.538   0.546   0.552   0.576   0.610
  0.648   0.653   0.669   0.683   0.692   0.714   0.722   0.761
  0.774   0.797   0.813   0.856   0.882   0.898   0.994   1.002
  1.028   1.044   1.064   1.074   1.084   1.109   1.130   1.181
  1.185   1.187   1.202   1.214   1.220   1.232   1.248   1.269
  1.287   1.290   1.296   1.311   1.320   1.323   1.386   1.402
  1.432   1.454   1.507   1.514   1.525   1.529   1.552   1.558
  1.559   1.571   1.579   1.586   1.597   1.604   1.608   1.613
  1.621   1.631   1.634   1.638   1.644   1.649   1.677   1.708
  1.712   1.727   1.728   1.742   1.751   1.768   1.780   1.782
  1.790   1.790   1.794   1.795   1.801   1.812   1.812   1.813
  1.816   1.841   1.845   1.855   1.857   1.879   1.890   1.902
  1.949   1.955   1.956   1.965   1.990   1.993   1.994   1.997
  2.010   2.014   2.029   2.034   2.057   2.091   2.110   2.128
  2.197   2.212   2.234   2.257   2.273   2.276   2.286   2.289
  2.311   2.436   2.529   2.590   2.628   2.690   2.724   2.727
  2.735   2.769   2.773   2.849   2.890   3.091   3.092   3.153
  3.165   3.190   3.193   3.927   3.981   4.045   4.109   4.151
  4.233   4.275   4.426   4.479   5.264   5.296   5.699   5.742
  5.883   6.286
 --------------------------------------------------------------
 
          Ground-State Mulliken Net Atomic Charges

     Atom                 Charge (a.u.)    Spin (a.u.)
  --------------------------------------------------------
      1 N                    -0.737455      -0.080246
      2 S                     0.908106      -0.473443
      3 O                    -0.398331      -0.147091
      4 O                    -0.550109      -0.060812
      5 C                     0.798281       0.843811
      6 F                    -0.260556       0.041098
      7 F                    -0.253546       0.041640
      8 F                    -0.265573       0.039010
      9 S                     1.017269      -0.026944
     10 O                    -0.602285       0.018347
     11 O                    -0.443834       0.003543
     12 C                     0.875547      -0.008248
     13 F                    -0.260856      -0.001611
     14 F                    -0.256782      -0.000438
     15 F                    -0.241192       0.000479
     16 Mg                    0.671317       0.810906
  --------------------------------------------------------
  Sum of atomic charges =     0.000000
  Sum of spin   charges =     1.000000

 -----------------------------------------------------------------
                    Cartesian Multipole Moments
 -----------------------------------------------------------------
    Charge (ESU x 10^10)
                -0.0000
    Dipole Moment (Debye)
         X      -2.0717      Y      -4.2881      Z      -2.9674
       Tot       5.6112
    Quadrupole Moments (Debye-Ang)
        XX    -107.0809     XY       5.5720     YY    -100.5617
        XZ      -2.9920     YZ       9.9615     ZZ    -112.0445
    Octapole Moments (Debye-Ang^2)
       XXX      -2.9636    XXY       7.1240    XYY      -8.3525
       YYY      -3.2590    XXZ       3.5365    XYZ      -1.9380
       YYZ     -11.5913    XZZ      -0.0184    YZZ       0.7958
       ZZZ     -15.8250
    Hexadecapole Moments (Debye-Ang^3)
      XXXX   -4075.3940   XXXY       4.2461   XXYY    -868.1712
      XYYY      27.3735   YYYY   -1159.6528   XXXZ     -50.8548
      XXYZ       2.1242   XYYZ     -16.5867   YYYZ      24.8856
      XXZZ    -814.0324   XYZZ      10.9695   YYZZ    -323.8266
      XZZZ     -55.5741   YZZZ      22.5503   ZZZZ    -817.1542
 -----------------------------------------------------------------
 Calculating MO derivatives via CPSCF
 CPSCF will be done in 16 segments to save memory.
   1         0           3      0.013021    0.005364
   2         0           3      0.003173    0.001276
   3         0           3      0.001681    0.000698
   4         0           3      0.000535    0.000210
   5         0           3      0.000194    0.000085
   6         0           3      0.000080    0.000034
   7         0           3      0.000027    0.000010
   8         0           3      0.000009    0.000004
   9         2           1      0.000001    0.000001
  10         3           0      0.000000    0.000000    Roots Converged
 Calculating analytic Hessian of the SCF energy
 Polarizability Matrix (a.u.)
            1           2           3
    1-175.3005495 -38.9150336 -43.2854150
    2 -38.9150336-212.8837155 -66.0714860
    3 -43.2854150 -66.0714860-186.2658139

 Q-Chem warning in module ../qchem/drvman/find_multipole_der.C, line 180:

 Net Molecular Charges From Derivative of Dipole Moment are Inconsistent

 Derivative of Dipole Moment Matrix (a.u.)
            1           2           3
    1  -0.8903064   2.0603482   0.6370043
    2   0.4649342  -1.2500530   0.0350086
    3  -0.4572303   1.0417600  -0.4127304
    4   0.1611559  -3.0308787  -1.7266583
    5  -1.3739198   0.5710114  -1.1985121
    6   0.5484721   0.2452608   1.6499699
    7  -0.1782822   0.7213095   0.5083375
    8   0.2296306  -0.1670777   0.3684490
    9  -0.6452608  -0.4937588  -1.4606354
   10  -0.0226734   0.9416015   0.6508388
   11   0.9520559   0.4793263   1.1352115
   12   0.4274250   0.6492346   0.2236109
   13   1.8893407   0.2239108   0.5171334
   14   0.0622866   1.7764822   0.2062238
   15   0.0041673  -0.0935703   1.3628247
   16  -0.9470490   0.2677977  -0.2370954
   17   0.3155859  -0.5217567   0.1051756
   18   0.0472508   0.0635090  -0.2180068
   19  -0.4947169  -0.3868113  -0.2223064
   20  -0.3090459  -0.9482375  -0.4051694
   21  -0.0205467  -0.1804233  -0.3404695
   22  -0.4065853  -0.0941753  -0.0618922
   23  -0.0421642  -0.3116257   0.0893607
   24  -0.0420034   0.2072111  -0.8165720
   25   1.5655965  -1.0068509  -0.2815327
   26  -0.3313305   1.8239469  -0.3610740
   27   0.1077805  -1.9959474   0.7490169
   28  -0.5518440   0.2308389  -0.0017637
   29   0.5371881  -0.6330135   0.2092684
   30   0.1210330   0.2318327  -0.2994693
   31  -0.5692963   0.1566373   0.1567553
   32   0.0558349  -0.8814366   0.3472740
   33   0.1032114   0.5551937  -0.5357708
   34   1.7106510  -0.4106451  -0.0975261
   35  -0.1862855   1.3695340   0.0448350
   36  -0.1078246   0.3843781   1.5113955
   37  -0.8606183   0.5403355  -0.0971484
   38   0.1455778  -0.3108245   0.0304480
   39  -0.2625445   0.1445852  -0.4319782
   40  -0.4911452  -0.0414107   0.2339472
   41  -0.1215068  -0.5429608   0.2791607
   42   0.2198802   0.1969432  -0.4761639
   43  -0.3972034   0.1595590   0.0972617
   44   0.1624457  -0.6656920  -0.3132723
   45   0.1741330  -0.4186205  -0.4965108
   46   0.4819972  -0.3320231  -0.0759500
   47  -0.5619014   0.2124434  -0.5729295
   48  -0.2186924  -0.5377199  -0.0091913
 -----------------------------------------
 Net:  -0.00234  -0.00052  -0.00182
 -----------------------------------------

 
 Direct stationary perturbation theory relativistic correction:
 
 rels  =       1.822738850274
 relv  =      -7.603524450203
 rel2e =       2.592791281101
 E_rel =      -3.187994318827
 
 Hessian of the SCF Energy
            1           2           3           4           5           6
    1   0.2585685  -0.1710051   0.1597621  -0.1186433   0.1530084  -0.0365352
    2  -0.1710051   0.2136122  -0.0583321   0.0960924  -0.1381452   0.0128454
    3   0.1597621  -0.0583321   0.1948336  -0.0207581   0.0373477  -0.0428662
    4  -0.1186433   0.0960924  -0.0207581   0.2496138  -0.1024139   0.1868379
    5   0.1530084  -0.1381452   0.0373477  -0.1024139   0.4929498   0.0737978
    6  -0.0365352   0.0128454  -0.0428662   0.1868379   0.0737978   0.7959326
    7  -0.0156287   0.0097714  -0.0332708  -0.0439497   0.0135938  -0.0796509
    8   0.0049700  -0.0010077   0.0139431   0.0192853  -0.0474181   0.0649946
    9  -0.0073786   0.0045513   0.0000867  -0.1204084   0.0421070  -0.5899459
   10  -0.0028660   0.0212909   0.0013836  -0.0307180  -0.0474621  -0.0492679
   11  -0.0176602  -0.0138956  -0.0105836  -0.0022002  -0.2739656  -0.1635562
   12  -0.0075124  -0.0040698   0.0049532  -0.0015636  -0.1143918  -0.1379952
   13   0.0022248  -0.0010973  -0.0000371   0.0010875   0.0006614   0.0047182
   14   0.0034159  -0.0032610   0.0014993  -0.0028902   0.0048441   0.0020025
   15  -0.0018052   0.0016132  -0.0017937   0.0010219  -0.0013461   0.0031349
   16  -0.0000932  -0.0003972   0.0004031  -0.0009883   0.0013102  -0.0019203
   17  -0.0007184   0.0008775  -0.0005498   0.0009810  -0.0017062   0.0006205
   18   0.0002497  -0.0002556   0.0002324  -0.0000592   0.0003590  -0.0003491
   19  -0.0004992   0.0005446  -0.0000408   0.0004340  -0.0011522  -0.0014852
   20  -0.0010158   0.0012773  -0.0002230   0.0015191  -0.0025601  -0.0023405
   21  -0.0000448   0.0000956   0.0002070   0.0003375  -0.0003656  -0.0010014
   22  -0.0001923   0.0001785   0.0000336  -0.0002431  -0.0003200  -0.0006161
   23  -0.0006811   0.0006721  -0.0004638   0.0006976  -0.0008397   0.0001153
   24   0.0011596  -0.0012695   0.0012994  -0.0015659   0.0012470  -0.0025750
   25  -0.1090884   0.0259013  -0.0703662  -0.0757555   0.0185323  -0.0194804
   26   0.0301963  -0.0763136   0.0192464   0.0032787  -0.0002921   0.0295558
   27  -0.0412185   0.0191773  -0.1248316  -0.0672424   0.0089374  -0.0125516
   28  -0.0000421  -0.0119248  -0.0123423   0.0139441   0.0004684   0.0041053
   29  -0.0321753   0.0160725  -0.0183862   0.0400829  -0.0169870  -0.0089745
   30  -0.0304198  -0.0132473  -0.0160753   0.0327959  -0.0079326  -0.0010506
   31   0.0032054   0.0173679  -0.0178919   0.0144542  -0.0054067  -0.0020984
   32   0.0024579  -0.0019283   0.0012671  -0.0066112   0.0039078   0.0006154
   33  -0.0230380   0.0265272  -0.0114583   0.0225821  -0.0047801  -0.0049415
   34   0.0132134  -0.0041427   0.0072788  -0.0135579   0.0047752  -0.0014280
   35   0.0007853  -0.0002748   0.0018378   0.0005964   0.0014628  -0.0014230
   36  -0.0304309   0.0152208  -0.0198264  -0.0004150  -0.0043687   0.0046418
   37  -0.0182925   0.0089900  -0.0083850   0.0079754  -0.0032765   0.0028985
   38   0.0029670  -0.0009162   0.0010151  -0.0009476   0.0002137  -0.0004206
   39  -0.0024534   0.0003511   0.0008995   0.0028974   0.0000768  -0.0001177
   40  -0.0060592   0.0032424  -0.0019494   0.0048311  -0.0019819   0.0005993
   41  -0.0037580   0.0053585  -0.0046304   0.0016268  -0.0020510   0.0007416
   42   0.0044847  -0.0050606   0.0066221  -0.0008863   0.0016908  -0.0015168
   43  -0.0044475   0.0014999  -0.0009698   0.0032947  -0.0016692   0.0012876
   44   0.0029294   0.0011127   0.0018649  -0.0004842   0.0007932  -0.0010040
   45   0.0042407  -0.0000097   0.0051075  -0.0002028   0.0012551  -0.0016602
   46  -0.0013748   0.0036748  -0.0028459  -0.0117766  -0.0286656  -0.0079589
   47   0.0262674  -0.0032375   0.0151570  -0.0486311  -0.0201760  -0.0075500
   48   0.0109670   0.0018628   0.0026148  -0.0333791  -0.0336453  -0.0071358
            7           8           9          10          11          12
    1  -0.0156287   0.0049700  -0.0073786  -0.0028660  -0.0176602  -0.0075124
    2   0.0097714  -0.0010077   0.0045513   0.0212909  -0.0138956  -0.0040698
    3  -0.0332708   0.0139431   0.0000867   0.0013836  -0.0105836   0.0049532
    4  -0.0439497   0.0192853  -0.1204084  -0.0307180  -0.0022002  -0.0015636
    5   0.0135938  -0.0474181   0.0421070  -0.0474621  -0.2739656  -0.1143918
    6  -0.0796509   0.0649946  -0.5899459  -0.0492679  -0.1635562  -0.1379952
    7   0.0473405  -0.0216189   0.1285468   0.0011349  -0.0116969  -0.0227408
    8  -0.0216189   0.0407452  -0.0520054  -0.0052250   0.0034912  -0.0361038
    9   0.1285468  -0.0520054   0.5970241   0.0000234   0.0064853  -0.0017815
   10   0.0011349  -0.0052250   0.0000234   0.0500792   0.0248679   0.0564962
   11  -0.0116969   0.0034912   0.0064853   0.0248679   0.2756562   0.1512349
   12  -0.0227408  -0.0361038  -0.0017815   0.0564962   0.1512349   0.1522385
   13  -0.0003882   0.0007746  -0.0042604   0.0003296   0.0003037  -0.0021185
   14   0.0007284  -0.0005485  -0.0015239   0.0010009  -0.0018178  -0.0014921
   15  -0.0004172   0.0002410  -0.0022236  -0.0001192   0.0002323  -0.0002502
   16   0.0003972  -0.0004524   0.0010989   0.0005502   0.0002249   0.0010925
   17  -0.0003353   0.0003419  -0.0003568  -0.0003957   0.0004275  -0.0001225
   18   0.0000403  -0.0000725   0.0003290  -0.0000766  -0.0002741  -0.0001234
   19  -0.0000148   0.0000341   0.0006995   0.0000602   0.0008976   0.0010960
   20  -0.0002130   0.0002998   0.0010181  -0.0001457   0.0016579   0.0015921
   21  -0.0000156   0.0000519   0.0006117  -0.0001069   0.0001915   0.0002937
   22  -0.0000137  -0.0001705   0.0008001   0.0000620   0.0001924   0.0005068
   23  -0.0002564   0.0000260   0.0001261  -0.0001453   0.0003588   0.0002764
   24   0.0006865  -0.0000764   0.0013296   0.0000167  -0.0006021   0.0000075
   25   0.0150623  -0.0028480   0.0014493   0.0111486   0.0003438   0.0008268
   26   0.0080051  -0.0002369  -0.0028001  -0.0061148   0.0006464  -0.0085917
   27   0.0123482   0.0027738  -0.0055360   0.0140976   0.0076594   0.0017539
   28  -0.0028178   0.0005148  -0.0003338  -0.0089190  -0.0005998  -0.0091751
   29  -0.0102729   0.0014979   0.0064026   0.0017258  -0.0054194   0.0051800
   30  -0.0066286   0.0006467   0.0032119  -0.0102480  -0.0030360  -0.0031002
   31  -0.0041049   0.0008725  -0.0002234  -0.0013167  -0.0005155   0.0002083
   32   0.0019704  -0.0013718   0.0014932   0.0012881  -0.0008701   0.0005670
   33  -0.0059893   0.0008321  -0.0000522  -0.0034607  -0.0002683   0.0006178
   34   0.0033731  -0.0015260   0.0009118   0.0037283  -0.0003447   0.0020088
   35  -0.0006588  -0.0000687  -0.0011712  -0.0003199  -0.0000876   0.0009490
   36  -0.0002903  -0.0001836  -0.0016250  -0.0009840  -0.0024762  -0.0027744
   37  -0.0019240  -0.0003403   0.0001145  -0.0024575  -0.0029769  -0.0025666
   38   0.0002856   0.0000950   0.0001378   0.0004312   0.0004271   0.0003005
   39  -0.0006900  -0.0001202   0.0005122  -0.0007561  -0.0008357  -0.0004194
   40  -0.0012010   0.0004431  -0.0006873  -0.0010633   0.0000401  -0.0006450
   41  -0.0004422   0.0004132  -0.0002045  -0.0003027   0.0001436  -0.0005595
   42   0.0002960  -0.0003698   0.0009031   0.0003599  -0.0002563   0.0006396
   43  -0.0005456   0.0003238  -0.0004753  -0.0008474   0.0004211  -0.0004881
   44   0.0001279  -0.0001602   0.0010899   0.0002776  -0.0002113   0.0002776
   45   0.0000022  -0.0001370   0.0011488   0.0003102  -0.0000932   0.0006457
   46   0.0032728   0.0049637   0.0001057  -0.0189052   0.0087317  -0.0154155
   47   0.0110121   0.0039057  -0.0053664   0.0092361   0.0134466   0.0049470
   48   0.0077766   0.0055814  -0.0040097  -0.0076552   0.0161965  -0.0146938
           13          14          15          16          17          18
    1   0.0022248   0.0034159  -0.0018052  -0.0000932  -0.0007184   0.0002497
    2  -0.0010973  -0.0032610   0.0016132  -0.0003972   0.0008775  -0.0002556
    3  -0.0000371   0.0014993  -0.0017937   0.0004031  -0.0005498   0.0002324
    4   0.0010875  -0.0028902   0.0010219  -0.0009883   0.0009810  -0.0000592
    5   0.0006614   0.0048441  -0.0013461   0.0013102  -0.0017062   0.0003590
    6   0.0047182   0.0020025   0.0031349  -0.0019203   0.0006205  -0.0003491
    7  -0.0003882   0.0007284  -0.0004172   0.0003972  -0.0003353   0.0000403
    8   0.0007746  -0.0005485   0.0002410  -0.0004524   0.0003419  -0.0000725
    9  -0.0042604  -0.0015239  -0.0022236   0.0010989  -0.0003568   0.0003290
   10   0.0003296   0.0010009  -0.0001192   0.0005502  -0.0003957  -0.0000766
   11   0.0003037  -0.0018178   0.0002323   0.0002249   0.0004275  -0.0002741
   12  -0.0021185  -0.0014921  -0.0002502   0.0010925  -0.0001225  -0.0001234
   13   0.3821560  -0.0407755   0.0550305  -0.2256277   0.1063415  -0.0059384
   14  -0.0407755   0.4765636   0.0301981   0.1224494  -0.1443857   0.0034525
   15   0.0550305   0.0301981   0.4377062  -0.0150377   0.0080905  -0.0649988
   16  -0.2256277   0.1224494  -0.0150377   0.2110797  -0.1663057   0.0451192
   17   0.1063415  -0.1443857   0.0080905  -0.1663057   0.2185789  -0.0247245
   18  -0.0059384   0.0034525  -0.0649988   0.0451192  -0.0247245   0.0717120
   19  -0.0959974  -0.0842474  -0.0362759   0.0231846   0.0359907   0.0096968
   20  -0.0719351  -0.2591264  -0.0774880   0.0248284  -0.0669478  -0.0128817
   21  -0.0271102  -0.0668877  -0.0903778   0.0085560  -0.0155026   0.0105679
   22  -0.0635254   0.0011472  -0.0022202  -0.0084020   0.0241507  -0.0490390
   23   0.0048701  -0.0732698   0.0403039   0.0187654  -0.0071014   0.0340874
   24  -0.0209665   0.0339241  -0.2821978  -0.0386110   0.0319779  -0.0173103
   25  -0.0018056  -0.0002219  -0.0005832   0.0007537  -0.0002202   0.0000296
   26   0.0016654   0.0038618  -0.0026663  -0.0002617  -0.0007628   0.0004947
   27  -0.0002156  -0.0024497   0.0037413  -0.0003878   0.0008007  -0.0004895
   28   0.0005647   0.0002567   0.0001670  -0.0001913   0.0000185  -0.0000037
   29  -0.0020973  -0.0021800   0.0014704   0.0007368   0.0001978  -0.0003285
   30  -0.0006961  -0.0002512  -0.0004728   0.0003408  -0.0001144   0.0000241
   31   0.0006788  -0.0004140   0.0009527  -0.0003604   0.0002437  -0.0001179
   32  -0.0007122  -0.0017482   0.0013350   0.0000645   0.0003733  -0.0002359
   33  -0.0000486   0.0007481  -0.0014719   0.0001732  -0.0002877   0.0002110
   34  -0.0017599  -0.0004370  -0.0000125   0.0007775  -0.0001967  -0.0000458
   35   0.0008242   0.0009014   0.0000752  -0.0002509  -0.0000937   0.0000370
   36   0.0009668   0.0008888   0.0002942  -0.0002848  -0.0000529  -0.0000156
   37   0.0007849   0.0005206  -0.0001424  -0.0002481  -0.0000216   0.0000366
   38  -0.0002343  -0.0002330   0.0000478   0.0000686   0.0000245  -0.0000158
   39   0.0000507   0.0000206  -0.0001597  -0.0000127  -0.0000077   0.0000224
   40   0.0004871  -0.0000140   0.0002230  -0.0002294   0.0000954  -0.0000216
   41   0.0000000  -0.0003723   0.0002521  -0.0000534   0.0001081  -0.0000460
   42  -0.0003484   0.0000596  -0.0002982   0.0001672  -0.0000884   0.0000390
   43   0.0004486   0.0001452   0.0000154  -0.0001934   0.0000392   0.0000113
   44  -0.0006237  -0.0006118  -0.0000750   0.0001988   0.0000473  -0.0000206
   45  -0.0005968  -0.0004837  -0.0001415   0.0002022   0.0000153  -0.0000059
   46   0.0003717  -0.0006476  -0.0008117  -0.0004165   0.0003093   0.0001263
   47   0.0020478   0.0014057  -0.0022866  -0.0009280   0.0000008   0.0004264
   48   0.0015514   0.0002859  -0.0004720  -0.0008947   0.0003049   0.0001408
           19          20          21          22          23          24
    1  -0.0004992  -0.0010158  -0.0000448  -0.0001923  -0.0006811   0.0011596
    2   0.0005446   0.0012773   0.0000956   0.0001785   0.0006721  -0.0012695
    3  -0.0000408  -0.0002230   0.0002070   0.0000336  -0.0004638   0.0012994
    4   0.0004340   0.0015191   0.0003375  -0.0002431   0.0006976  -0.0015659
    5  -0.0011522  -0.0025601  -0.0003656  -0.0003200  -0.0008397   0.0012470
    6  -0.0014852  -0.0023405  -0.0010014  -0.0006161   0.0001153  -0.0025750
    7  -0.0000148  -0.0002130  -0.0000156  -0.0000137  -0.0002564   0.0006865
    8   0.0000341   0.0002998   0.0000519  -0.0001705   0.0000260  -0.0000764
    9   0.0006995   0.0010181   0.0006117   0.0008001   0.0001261   0.0013296
   10   0.0000602  -0.0001457  -0.0001069   0.0000620  -0.0001453   0.0000167
   11   0.0008976   0.0016579   0.0001915   0.0001924   0.0003588  -0.0006021
   12   0.0010960   0.0015921   0.0002937   0.0005068   0.0002764   0.0000075
   13  -0.0959974  -0.0719351  -0.0271102  -0.0635254   0.0048701  -0.0209665
   14  -0.0842474  -0.2591264  -0.0668877   0.0011472  -0.0732698   0.0339241
   15  -0.0362759  -0.0774880  -0.0903778  -0.0022202   0.0403039  -0.2821978
   16   0.0231846   0.0248284   0.0085560  -0.0084020   0.0187654  -0.0386110
   17   0.0359907  -0.0669478  -0.0155026   0.0241507  -0.0071014   0.0319779
   18   0.0096968  -0.0128817   0.0105679  -0.0490390   0.0340874  -0.0173103
   19   0.0648686   0.0538987   0.0466895   0.0078758  -0.0055317  -0.0201084
   20   0.0538987   0.3195519   0.1300702  -0.0071811   0.0064190  -0.0396588
   21   0.0466895   0.1300702   0.1266898  -0.0283642  -0.0478427  -0.0469015
   22   0.0078758  -0.0071811  -0.0283642   0.0643435  -0.0179060   0.0792206
   23  -0.0055317   0.0064190  -0.0478427  -0.0179060   0.0740709  -0.0268555
   24  -0.0201084  -0.0396588  -0.0469015   0.0792206  -0.0268555   0.3469530
   25   0.0003331   0.0002551   0.0000943   0.0004497   0.0000201   0.0004688
   26  -0.0010062  -0.0019298   0.0000364  -0.0002823  -0.0010047   0.0020092
   27   0.0000389   0.0002346  -0.0004772  -0.0002561   0.0007599  -0.0024181
   28  -0.0001510  -0.0001830  -0.0000529  -0.0001314  -0.0000500  -0.0001020
   29   0.0009518   0.0014610   0.0000319   0.0004573   0.0005593  -0.0011720
   30   0.0003108   0.0004617   0.0001520   0.0002047   0.0000148   0.0002480
   31  -0.0000857   0.0000076  -0.0001276  -0.0002171   0.0001674  -0.0006428
   32   0.0004196   0.0008202  -0.0000473   0.0001201   0.0004667  -0.0009783
   33  -0.0000356  -0.0000871   0.0002095   0.0000797  -0.0002776   0.0009818
   34   0.0004615   0.0004347   0.0000643   0.0003902   0.0000962   0.0000052
   35  -0.0003530  -0.0006328  -0.0001401  -0.0002035  -0.0001499   0.0000374
   36  -0.0003099  -0.0005490  -0.0001878  -0.0001892  -0.0001185  -0.0001326
   37  -0.0002115  -0.0002709  -0.0000321  -0.0001576  -0.0001115   0.0000989
   38   0.0000856   0.0001369   0.0000196   0.0000521   0.0000455  -0.0000459
   39  -0.0000032   0.0000233   0.0000363  -0.0000114  -0.0000233   0.0000942
   40  -0.0001105  -0.0000812  -0.0000440  -0.0001166   0.0000192  -0.0001553
   41   0.0000645   0.0001763  -0.0000013   0.0000020   0.0000909  -0.0002015
   42   0.0000713   0.0000482   0.0000556   0.0000852  -0.0000391   0.0002025
   43  -0.0001297  -0.0001352  -0.0000252  -0.0000999  -0.0000273  -0.0000024
   44   0.0002486   0.0004278   0.0001013   0.0001471   0.0001010  -0.0000069
   45   0.0002177   0.0003567   0.0000991   0.0001365   0.0000729   0.0000492
   46  -0.0000286   0.0002300   0.0001940  -0.0000402   0.0000659   0.0004950
   47  -0.0008485  -0.0010231   0.0001978  -0.0003954  -0.0004562   0.0016641
   48  -0.0005527  -0.0005663   0.0000108  -0.0003579  -0.0001373   0.0003754
           25          26          27          28          29          30
    1  -0.1090884   0.0301963  -0.0412185  -0.0000421  -0.0321753  -0.0304198
    2   0.0259013  -0.0763136   0.0191773  -0.0119248   0.0160725  -0.0132473
    3  -0.0703662   0.0192464  -0.1248316  -0.0123423  -0.0183862  -0.0160753
    4  -0.0757555   0.0032787  -0.0672424   0.0139441   0.0400829   0.0327959
    5   0.0185323  -0.0002921   0.0089374   0.0004684  -0.0169870  -0.0079326
    6  -0.0194804   0.0295558  -0.0125516   0.0041053  -0.0089745  -0.0010506
    7   0.0150623   0.0080051   0.0123482  -0.0028178  -0.0102729  -0.0066286
    8  -0.0028480  -0.0002369   0.0027738   0.0005148   0.0014979   0.0006467
    9   0.0014493  -0.0028001  -0.0055360  -0.0003338   0.0064026   0.0032119
   10   0.0111486  -0.0061148   0.0140976  -0.0089190   0.0017258  -0.0102480
   11   0.0003438   0.0006464   0.0076594  -0.0005998  -0.0054194  -0.0030360
   12   0.0008268  -0.0085917   0.0017539  -0.0091751   0.0051800  -0.0031002
   13  -0.0018056   0.0016654  -0.0002156   0.0005647  -0.0020973  -0.0006961
   14  -0.0002219   0.0038618  -0.0024497   0.0002567  -0.0021800  -0.0002512
   15  -0.0005832  -0.0026663   0.0037413   0.0001670   0.0014704  -0.0004728
   16   0.0007537  -0.0002617  -0.0003878  -0.0001913   0.0007368   0.0003408
   17  -0.0002202  -0.0007628   0.0008007   0.0000185   0.0001978  -0.0001144
   18   0.0000296   0.0004947  -0.0004895  -0.0000037  -0.0003285   0.0000241
   19   0.0003331  -0.0010062   0.0000389  -0.0001510   0.0009518   0.0003108
   20   0.0002551  -0.0019298   0.0002346  -0.0001830   0.0014610   0.0004617
   21   0.0000943   0.0000364  -0.0004772  -0.0000529   0.0000319   0.0001520
   22   0.0004497  -0.0002823  -0.0002561  -0.0001314   0.0004573   0.0002047
   23   0.0000201  -0.0010047   0.0007599  -0.0000500   0.0005593   0.0000148
   24   0.0004688   0.0020092  -0.0024181  -0.0001020  -0.0011720   0.0002480
   25   0.4622747   0.0495927  -0.0167132  -0.0793774  -0.0082154  -0.0088077
   26   0.0495927   0.8884563  -0.1293471  -0.0354617  -0.3079319  -0.1382051
   27  -0.0167132  -0.1293471   0.5789451  -0.0178392  -0.1043159  -0.1361537
   28  -0.0793774  -0.0354617  -0.0178392   0.0675268   0.0159770   0.0329478
   29  -0.0082154  -0.3079319  -0.1043159   0.0159770   0.3695864   0.1470209
   30  -0.0088077  -0.1382051  -0.1361537   0.0329478   0.1470209   0.1454865
   31  -0.0966307  -0.0703264   0.0604836   0.0145854  -0.0107563  -0.0007960
   32  -0.0809433  -0.4123026   0.2370382  -0.0030403  -0.0237542   0.0160120
   33   0.0700630   0.2398843  -0.2279618  -0.0070394  -0.0227514   0.0115132
   34  -0.1288520   0.0203232   0.0515448   0.0101902  -0.0276869  -0.0163432
   35   0.0156949  -0.0227090  -0.0077882   0.0081917  -0.0151223  -0.0115300
   36   0.0617697  -0.0098074  -0.0358608   0.0016787  -0.0027524  -0.0044248
   37  -0.0145036   0.0054416  -0.0256358   0.0008759   0.0022134   0.0044046
   38   0.0027572   0.0005920   0.0055309   0.0002558   0.0018655   0.0005659
   39  -0.0019921   0.0016460  -0.0061685   0.0011551   0.0013723   0.0033004
   40   0.0019423  -0.0261465   0.0149675  -0.0007258   0.0058974   0.0012433
   41   0.0039467  -0.0197857   0.0089475   0.0009595   0.0091243   0.0003047
   42  -0.0029998   0.0246043  -0.0124141   0.0015637  -0.0045473   0.0003443
   43   0.0083806   0.0141541   0.0100644  -0.0042208   0.0070540   0.0046959
   44  -0.0098800  -0.0171174  -0.0106048   0.0055742  -0.0040425  -0.0038204
   45  -0.0112230  -0.0204338  -0.0120068   0.0064336  -0.0064964  -0.0042682
   46   0.0057005   0.0069220   0.0060243  -0.0111334   0.0161017  -0.0030178
   47  -0.0146641  -0.0331497  -0.0373421   0.0190404  -0.0249548   0.0130973
   48  -0.0025833  -0.0056081  -0.0074893  -0.0011575   0.0082408   0.0012223
           31          32          33          34          35          36
    1   0.0032054   0.0024579  -0.0230380   0.0132134   0.0007853  -0.0304309
    2   0.0173679  -0.0019283   0.0265272  -0.0041427  -0.0002748   0.0152208
    3  -0.0178919   0.0012671  -0.0114583   0.0072788   0.0018378  -0.0198264
    4   0.0144542  -0.0066112   0.0225821  -0.0135579   0.0005964  -0.0004150
    5  -0.0054067   0.0039078  -0.0047801   0.0047752   0.0014628  -0.0043687
    6  -0.0020984   0.0006154  -0.0049415  -0.0014280  -0.0014230   0.0046418
    7  -0.0041049   0.0019704  -0.0059893   0.0033731  -0.0006588  -0.0002903
    8   0.0008725  -0.0013718   0.0008321  -0.0015260  -0.0000687  -0.0001836
    9  -0.0002234   0.0014932  -0.0000522   0.0009118  -0.0011712  -0.0016250
   10  -0.0013167   0.0012881  -0.0034607   0.0037283  -0.0003199  -0.0009840
   11  -0.0005155  -0.0008701  -0.0002683  -0.0003447  -0.0000876  -0.0024762
   12   0.0002083   0.0005670   0.0006178   0.0020088   0.0009490  -0.0027744
   13   0.0006788  -0.0007122  -0.0000486  -0.0017599   0.0008242   0.0009668
   14  -0.0004140  -0.0017482   0.0007481  -0.0004370   0.0009014   0.0008888
   15   0.0009527   0.0013350  -0.0014719  -0.0000125   0.0000752   0.0002942
   16  -0.0003604   0.0000645   0.0001732   0.0007775  -0.0002509  -0.0002848
   17   0.0002437   0.0003733  -0.0002877  -0.0001967  -0.0000937  -0.0000529
   18  -0.0001179  -0.0002359   0.0002110  -0.0000458   0.0000370  -0.0000156
   19  -0.0000857   0.0004196  -0.0000356   0.0004615  -0.0003530  -0.0003099
   20   0.0000076   0.0008202  -0.0000871   0.0004347  -0.0006328  -0.0005490
   21  -0.0001276  -0.0000473   0.0002095   0.0000643  -0.0001401  -0.0001878
   22  -0.0002171   0.0001201   0.0000797   0.0003902  -0.0002035  -0.0001892
   23   0.0001674   0.0004667  -0.0002776   0.0000962  -0.0001499  -0.0001185
   24  -0.0006428  -0.0009783   0.0009818   0.0000052   0.0000374  -0.0001326
   25  -0.0966307  -0.0809433   0.0700630  -0.1288520   0.0156949   0.0617697
   26  -0.0703264  -0.4123026   0.2398843   0.0203232  -0.0227090  -0.0098074
   27   0.0604836   0.2370382  -0.2279618   0.0515448  -0.0077882  -0.0358608
   28   0.0145854  -0.0030403  -0.0070394   0.0101902   0.0081917   0.0016787
   29  -0.0107563  -0.0237542  -0.0227514  -0.0276869  -0.0151223  -0.0027524
   30  -0.0007960   0.0160120   0.0115132  -0.0163432  -0.0115300  -0.0044248
   31   0.0676384   0.0832827  -0.0524817   0.0137509  -0.0165775   0.0007585
   32   0.0832827   0.4314826  -0.2595456   0.0132787  -0.0112783  -0.0010111
   33  -0.0524817  -0.2595456   0.2321575  -0.0136249   0.0183445   0.0005315
   34   0.0137509   0.0132787  -0.0136249   0.4718680   0.0035760   0.0258039
   35  -0.0165775  -0.0112783   0.0183445   0.0035760   0.5253100   0.0055136
   36   0.0007585  -0.0010111   0.0005315   0.0258039   0.0055136   0.5104909
   37  -0.0008079  -0.0040004   0.0064033  -0.2053578   0.0302118  -0.1072957
   38   0.0005605   0.0026877  -0.0030502   0.0305136  -0.0743072   0.0238861
   39   0.0007907  -0.0027219   0.0036213  -0.0996001   0.0218798  -0.1512787
   40  -0.0076347  -0.0026364   0.0062593  -0.0938703  -0.0535689   0.0400294
   41  -0.0049623   0.0011598   0.0025346  -0.0487391  -0.1944641   0.0883040
   42   0.0072898   0.0013181  -0.0044602   0.0388614   0.0923285  -0.1373744
   43  -0.0019817  -0.0023224   0.0010345  -0.0739961   0.0105026   0.0082437
   44   0.0036253   0.0069793  -0.0022800   0.0063946  -0.2081568  -0.1138123
   45   0.0028199   0.0038809  -0.0001175   0.0060484  -0.1164048  -0.1650317
   46  -0.0011783  -0.0025895  -0.0008973  -0.0003353   0.0015580   0.0009222
   47   0.0028291   0.0053728   0.0044471   0.0036592  -0.0003251   0.0013314
   48   0.0010771   0.0010039   0.0006084  -0.0015024  -0.0025172   0.0025706
           37          38          39          40          41          42
    1  -0.0182925   0.0029670  -0.0024534  -0.0060592  -0.0037580   0.0044847
    2   0.0089900  -0.0009162   0.0003511   0.0032424   0.0053585  -0.0050606
    3  -0.0083850   0.0010151   0.0008995  -0.0019494  -0.0046304   0.0066221
    4   0.0079754  -0.0009476   0.0028974   0.0048311   0.0016268  -0.0008863
    5  -0.0032765   0.0002137   0.0000768  -0.0019819  -0.0020510   0.0016908
    6   0.0028985  -0.0004206  -0.0001177   0.0005993   0.0007416  -0.0015168
    7  -0.0019240   0.0002856  -0.0006900  -0.0012010  -0.0004422   0.0002960
    8  -0.0003403   0.0000950  -0.0001202   0.0004431   0.0004132  -0.0003698
    9   0.0001145   0.0001378   0.0005122  -0.0006873  -0.0002045   0.0009031
   10  -0.0024575   0.0004312  -0.0007561  -0.0010633  -0.0003027   0.0003599
   11  -0.0029769   0.0004271  -0.0008357   0.0000401   0.0001436  -0.0002563
   12  -0.0025666   0.0003005  -0.0004194  -0.0006450  -0.0005595   0.0006396
   13   0.0007849  -0.0002343   0.0000507   0.0004871   0.0000000  -0.0003484
   14   0.0005206  -0.0002330   0.0000206  -0.0000140  -0.0003723   0.0000596
   15  -0.0001424   0.0000478  -0.0001597   0.0002230   0.0002521  -0.0002982
   16  -0.0002481   0.0000686  -0.0000127  -0.0002294  -0.0000534   0.0001672
   17  -0.0000216   0.0000245  -0.0000077   0.0000954   0.0001081  -0.0000884
   18   0.0000366  -0.0000158   0.0000224  -0.0000216  -0.0000460   0.0000390
   19  -0.0002115   0.0000856  -0.0000032  -0.0001105   0.0000645   0.0000713
   20  -0.0002709   0.0001369   0.0000233  -0.0000812   0.0001763   0.0000482
   21  -0.0000321   0.0000196   0.0000363  -0.0000440  -0.0000013   0.0000556
   22  -0.0001576   0.0000521  -0.0000114  -0.0001166   0.0000020   0.0000852
   23  -0.0001115   0.0000455  -0.0000233   0.0000192   0.0000909  -0.0000391
   24   0.0000989  -0.0000459   0.0000942  -0.0001553  -0.0002015   0.0002025
   25  -0.0145036   0.0027572  -0.0019921   0.0019423   0.0039467  -0.0029998
   26   0.0054416   0.0005920   0.0016460  -0.0261465  -0.0197857   0.0246043
   27  -0.0256358   0.0055309  -0.0061685   0.0149675   0.0089475  -0.0124141
   28   0.0008759   0.0002558   0.0011551  -0.0007258   0.0009595   0.0015637
   29   0.0022134   0.0018655   0.0013723   0.0058974   0.0091243  -0.0045473
   30   0.0044046   0.0005659   0.0033004   0.0012433   0.0003047   0.0003443
   31  -0.0008079   0.0005605   0.0007907  -0.0076347  -0.0049623   0.0072898
   32  -0.0040004   0.0026877  -0.0027219  -0.0026364   0.0011598   0.0013181
   33   0.0064033  -0.0030502   0.0036213   0.0062593   0.0025346  -0.0044602
   34  -0.2053578   0.0305136  -0.0996001  -0.0938703  -0.0487391   0.0388614
   35   0.0302118  -0.0743072   0.0218798  -0.0535689  -0.1944641   0.0923285
   36  -0.1072957   0.0238861  -0.1512787   0.0400294   0.0883040  -0.1373744
   37   0.2243467  -0.0358603   0.1663678   0.0119518   0.0126459  -0.0110739
   38  -0.0358603   0.0821157  -0.0381800   0.0260428  -0.0176351   0.0418293
   39   0.1663678  -0.0381800   0.2313451  -0.0258737   0.0393335  -0.0372007
   40   0.0119518   0.0260428  -0.0258737   0.0815072   0.0600632  -0.0327289
   41   0.0126459  -0.0176351   0.0393335   0.0600632   0.2914892  -0.1399618
   42  -0.0110739   0.0418293  -0.0372007  -0.0327289  -0.1399618   0.1635657
   43  -0.0022783  -0.0266747  -0.0398437   0.0103456  -0.0203109  -0.0049805
   44  -0.0154395   0.0051035  -0.0237302  -0.0106811  -0.0737062  -0.0124238
   45  -0.0267969  -0.0316659  -0.0445228  -0.0017752   0.0038101   0.0216740
   46   0.0002955  -0.0003060  -0.0000183  -0.0000495  -0.0007383  -0.0001649
   47   0.0022795  -0.0002352   0.0009197  -0.0007235  -0.0000322   0.0008553
   48   0.0016336   0.0000416   0.0000399   0.0005569   0.0013597  -0.0007829
           43          44          45          46          47          48
    1  -0.0044475   0.0029294   0.0042407  -0.0013748   0.0262674   0.0109670
    2   0.0014999   0.0011127  -0.0000097   0.0036748  -0.0032375   0.0018628
    3  -0.0009698   0.0018649   0.0051075  -0.0028459   0.0151570   0.0026148
    4   0.0032947  -0.0004842  -0.0002028  -0.0117766  -0.0486311  -0.0333791
    5  -0.0016692   0.0007932   0.0012551  -0.0286656  -0.0201760  -0.0336453
    6   0.0012876  -0.0010040  -0.0016602  -0.0079589  -0.0075500  -0.0071358
    7  -0.0005456   0.0001279   0.0000022   0.0032728   0.0110121   0.0077766
    8   0.0003238  -0.0001602  -0.0001370   0.0049637   0.0039057   0.0055814
    9  -0.0004753   0.0010899   0.0011488   0.0001057  -0.0053664  -0.0040097
   10  -0.0008474   0.0002776   0.0003102  -0.0189052   0.0092361  -0.0076552
   11   0.0004211  -0.0002113  -0.0000932   0.0087317   0.0134466   0.0161965
   12  -0.0004881   0.0002776   0.0006457  -0.0154155   0.0049470  -0.0146938
   13   0.0004486  -0.0006237  -0.0005968   0.0003717   0.0020478   0.0015514
   14   0.0001452  -0.0006118  -0.0004837  -0.0006476   0.0014057   0.0002859
   15   0.0000154  -0.0000750  -0.0001415  -0.0008117  -0.0022866  -0.0004720
   16  -0.0001934   0.0001988   0.0002022  -0.0004165  -0.0009280  -0.0008947
   17   0.0000392   0.0000473   0.0000153   0.0003093   0.0000008   0.0003049
   18   0.0000113  -0.0000206  -0.0000059   0.0001263   0.0004264   0.0001408
   19  -0.0001297   0.0002486   0.0002177  -0.0000286  -0.0008485  -0.0005527
   20  -0.0001352   0.0004278   0.0003567   0.0002300  -0.0010231  -0.0005663
   21  -0.0000252   0.0001013   0.0000991   0.0001940   0.0001978   0.0000108
   22  -0.0000999   0.0001471   0.0001365  -0.0000402  -0.0003954  -0.0003579
   23  -0.0000273   0.0001010   0.0000729   0.0000659  -0.0004562  -0.0001373
   24  -0.0000024  -0.0000069   0.0000492   0.0004950   0.0016641   0.0003754
   25   0.0083806  -0.0098800  -0.0112230   0.0057005  -0.0146641  -0.0025833
   26   0.0141541  -0.0171174  -0.0204338   0.0069220  -0.0331497  -0.0056081
   27   0.0100644  -0.0106048  -0.0120068   0.0060243  -0.0373421  -0.0074893
   28  -0.0042208   0.0055742   0.0064336  -0.0111334   0.0190404  -0.0011575
   29   0.0070540  -0.0040425  -0.0064964   0.0161017  -0.0249548   0.0082408
   30   0.0046959  -0.0038204  -0.0042682  -0.0030178   0.0130973   0.0012223
   31  -0.0019817   0.0036253   0.0028199  -0.0011783   0.0028291   0.0010771
   32  -0.0023224   0.0069793   0.0038809  -0.0025895   0.0053728   0.0010039
   33   0.0010345  -0.0022800  -0.0001175  -0.0008973   0.0044471   0.0006084
   34  -0.0739961   0.0063946   0.0060484  -0.0003353   0.0036592  -0.0015024
   35   0.0105026  -0.2081568  -0.1164048   0.0015580  -0.0003251  -0.0025172
   36   0.0082437  -0.1138123  -0.1650317   0.0009222   0.0013314   0.0025706
   37  -0.0022783  -0.0154395  -0.0267969   0.0002955   0.0022795   0.0016336
   38  -0.0266747   0.0051035  -0.0316659  -0.0003060  -0.0002352   0.0000416
   39  -0.0398437  -0.0237302  -0.0445228  -0.0000183   0.0009197   0.0000399
   40   0.0103456  -0.0106811  -0.0017752  -0.0000495  -0.0007235   0.0005569
   41  -0.0203109  -0.0737062   0.0038101  -0.0007383  -0.0000322   0.0013597
   42  -0.0049805  -0.0124238   0.0216740  -0.0001649   0.0008553  -0.0007829
   43   0.0660218   0.0185231   0.0210396   0.0002465  -0.0015216   0.0003993
   44   0.0185231   0.2873603   0.1642153  -0.0009451   0.0020723   0.0002370
   45   0.0210396   0.1642153   0.1993613  -0.0008531   0.0021259  -0.0003418
   46   0.0002465  -0.0009451  -0.0008531   0.0353573  -0.0086759   0.0241109
   47  -0.0015216   0.0020723   0.0021259  -0.0086759   0.0573787   0.0073525
   48   0.0003993   0.0002370  -0.0003418   0.0241109   0.0073525   0.0273268
 Gradient time:  CPU 1050.25 s  wall 1057.92 s
 **********************************************************************
 **                                                                  **
 **                       VIBRATIONAL ANALYSIS                       **
 **                       --------------------                       **
 **                                                                  **
 **        VIBRATIONAL FREQUENCIES (CM**-1) AND NORMAL MODES         **
 **     FORCE CONSTANTS (mDYN/ANGSTROM) AND REDUCED MASSES (AMU)     **
 **                  INFRARED INTENSITIES (KM/MOL)                   **
 **                                                                  **
 **********************************************************************
 

 Mode:                 1                      2                      3
 Frequency:      -140.18                -113.08                 -45.13
 Force Cnst:      0.1945                 0.1236                 0.0214
 Red. Mass:      16.8022                16.4025                17.8074
 IR Active:          YES                    YES                    YES
 IR Intens:       25.548                  4.550                  1.633
 Raman Active:       YES                    YES                    YES
               X      Y      Z        X      Y      Z        X      Y      Z
 N          0.016  0.044  0.048    0.451  0.297 -0.369   -0.153 -0.135  0.090
 S         -0.087 -0.060 -0.111   -0.083 -0.122  0.106   -0.121 -0.131  0.049
 O          0.574  0.373 -0.209   -0.402  0.004  0.184   -0.150 -0.159  0.054
 O         -0.423 -0.230  0.365   -0.262 -0.110  0.180   -0.186 -0.135  0.052
 C          0.006  0.016  0.044    0.007  0.042 -0.013    0.376  0.182 -0.063
 F          0.002  0.013  0.039    0.024  0.053 -0.049    0.369  0.173 -0.082
 F         -0.012 -0.001  0.087   -0.001  0.038 -0.002    0.413  0.195 -0.114
 F          0.028  0.052  0.044   -0.029  0.056 -0.003    0.304  0.142 -0.052
 S          0.004  0.029 -0.008    0.076  0.077 -0.106   -0.060 -0.047  0.043
 O          0.090  0.053 -0.028    0.086  0.037 -0.021   -0.099 -0.018 -0.009
 O          0.025  0.074  0.069   -0.173  0.106 -0.126    0.032 -0.049  0.064
 C         -0.001 -0.022 -0.003    0.109 -0.054  0.040   -0.086  0.016 -0.031
 F          0.016 -0.003 -0.012    0.026 -0.085  0.116   -0.038  0.067 -0.069
 F          0.006 -0.045 -0.042    0.217 -0.094  0.036   -0.164  0.022 -0.056
 F         -0.016 -0.044  0.025    0.094 -0.076  0.071   -0.077  0.005 -0.016
 Mg        -0.098 -0.138 -0.134   -0.075 -0.046 -0.077   -0.184 -0.021  0.073
 TransDip   0.020  0.128  0.098    0.052 -0.002  0.045   -0.005 -0.025 -0.032

 Mode:                 4                      5                      6
 Frequency:       -20.35                 -10.97                  -5.84
 Force Cnst:      0.0046                 0.0013                 0.0004
 Red. Mass:      19.0503                18.5438                18.7888
 IR Active:          YES                    YES                    YES
 IR Intens:        6.594                  0.907                  9.226
 Raman Active:       YES                    YES                    YES
               X      Y      Z        X      Y      Z        X      Y      Z
 N         -0.069  0.054 -0.019    0.041 -0.063 -0.146    0.030 -0.164  0.087
 S          0.045  0.160  0.045    0.054 -0.051 -0.119    0.076 -0.152  0.070
 O         -0.062  0.252  0.079    0.028 -0.019 -0.109   -0.023 -0.162  0.091
 O          0.066  0.069  0.144    0.023 -0.080 -0.077   -0.054 -0.182  0.116
 C          0.067 -0.078 -0.037   -0.019  0.117  0.124   -0.222  0.129 -0.077
 F         -0.088 -0.307 -0.347   -0.115 -0.041 -0.156   -0.196  0.141 -0.157
 F          0.375 -0.254  0.147    0.163 -0.053  0.371   -0.219  0.112 -0.044
 F         -0.075  0.228  0.029   -0.094  0.447  0.181   -0.282  0.175 -0.059
 S         -0.024  0.044 -0.019   -0.041 -0.122 -0.078    0.158 -0.036  0.034
 O          0.088  0.054 -0.096   -0.205 -0.194  0.083    0.094  0.005 -0.047
 O         -0.109  0.085  0.014   -0.031 -0.234 -0.241    0.282 -0.042  0.059
 C         -0.073 -0.114 -0.061    0.049  0.092  0.029    0.106  0.054 -0.092
 F         -0.043  0.003 -0.065   -0.024  0.014  0.084    0.223  0.310 -0.154
 F         -0.080 -0.229 -0.235    0.049  0.213  0.214   -0.108 -0.012 -0.282
 F         -0.137 -0.238  0.105    0.186  0.207 -0.131    0.149 -0.078  0.073
 Mg         0.064  0.117  0.222   -0.066 -0.108  0.056   -0.127 -0.005  0.243
 TransDip  -0.010 -0.068 -0.045   -0.012 -0.026 -0.009   -0.036 -0.071 -0.056

 Mode:                 7                      8                      9
 Frequency:        23.97                  44.10                  49.42
 Force Cnst:      0.0069                 0.0231                 0.0265
 Red. Mass:      20.3566                20.1784                18.4170
 IR Active:          YES                    YES                    YES
 IR Intens:       38.131                 31.762                  0.011
 Raman Active:       YES                    YES                    YES
               X      Y      Z        X      Y      Z        X      Y      Z
 N          0.037 -0.031 -0.242   -0.013  0.088 -0.023    0.029 -0.010 -0.039
 S          0.187  0.065 -0.227   -0.140  0.052  0.102    0.024 -0.021 -0.060
 O          0.002  0.102 -0.179   -0.028  0.156  0.084    0.041 -0.037 -0.064
 O          0.026 -0.044 -0.095    0.083  0.079  0.069    0.000 -0.014 -0.064
 C          0.061 -0.039  0.102    0.030 -0.006 -0.028   -0.059  0.223  0.180
 F          0.152  0.093  0.280    0.043  0.012 -0.013   -0.389 -0.117  0.312
 F         -0.151  0.037  0.072    0.004  0.004 -0.034    0.547  0.293 -0.333
 F          0.211 -0.151  0.057    0.032 -0.023 -0.030   -0.266 -0.133  0.175
 S         -0.055 -0.016 -0.098   -0.093 -0.101 -0.036    0.004 -0.006 -0.020
 O         -0.167 -0.027 -0.110   -0.082 -0.205  0.195   -0.008  0.000 -0.027
 O         -0.195 -0.044 -0.187   -0.070 -0.191 -0.156   -0.018  0.001 -0.015
 C          0.013 -0.036  0.043   -0.028  0.071  0.049    0.021 -0.021  0.017
 F         -0.044  0.221  0.158    0.014  0.487  0.109    0.006  0.026  0.044
 F         -0.032 -0.152 -0.144   -0.250 -0.002 -0.173    0.023 -0.045 -0.019
 F          0.141 -0.205  0.251    0.227 -0.114  0.266    0.047 -0.053  0.057
 Mg        -0.232  0.122  0.350    0.327 -0.199 -0.312   -0.019 -0.003 -0.043
 TransDip  -0.058 -0.159 -0.102    0.067  0.133  0.103   -0.002  0.002  0.000

 Mode:                10                     11                     12
 Frequency:        66.27                 117.97                 135.74
 Force Cnst:      0.0477                 0.1598                 0.1976
 Red. Mass:      18.4355                19.4857                18.1995
 IR Active:          YES                    YES                    YES
 IR Intens:        0.080                 85.068                 11.970
 Raman Active:       YES                    YES                    YES
               X      Y      Z        X      Y      Z        X      Y      Z
 N          0.011 -0.001  0.019   -0.152 -0.310 -0.088    0.441  0.192 -0.154
 S         -0.011 -0.017  0.030    0.123 -0.100 -0.019    0.231 -0.076 -0.063
 O         -0.023 -0.028  0.031   -0.152  0.138  0.068    0.113 -0.125 -0.040
 O         -0.002 -0.005  0.014   -0.135 -0.365  0.333   -0.059 -0.091  0.020
 C         -0.120  0.128 -0.226   -0.025 -0.007 -0.026    0.004 -0.013 -0.001
 F         -0.493 -0.198  0.238   -0.028 -0.005  0.012   -0.006 -0.024  0.008
 F         -0.047  0.003 -0.004   -0.028  0.011 -0.063    0.017 -0.014 -0.008
 F          0.606  0.278 -0.351   -0.006 -0.049 -0.039    0.014 -0.017 -0.004
 S          0.007 -0.007  0.019   -0.041 -0.067 -0.016    0.015  0.013  0.179
 O          0.012 -0.007  0.020   -0.133  0.014 -0.238   -0.144 -0.087  0.370
 O          0.008 -0.005  0.023   -0.036 -0.042  0.011   -0.249 -0.062 -0.010
 C          0.006 -0.013  0.019   -0.021  0.011  0.017   -0.101  0.035  0.006
 F          0.006 -0.013  0.019   -0.098 -0.003  0.088    0.157  0.010 -0.276
 F          0.010 -0.017  0.015   -0.033  0.087  0.128   -0.321  0.066 -0.041
 F          0.003 -0.016  0.023    0.104  0.074 -0.069   -0.350  0.055  0.003
 Mg        -0.008 -0.024  0.015    0.377  0.481 -0.060    0.076  0.143 -0.041
 TransDip  -0.004  0.008  0.003   -0.011 -0.189 -0.227    0.009 -0.095 -0.056

 Mode:                13                     14                     15
 Frequency:       174.03                 234.45                 252.44
 Force Cnst:      0.3119                 0.6256                 0.6387
 Red. Mass:      17.4809                19.3178                17.0120
 IR Active:          YES                    YES                    YES
 IR Intens:        4.354                  1.258                 18.274
 Raman Active:       YES                    YES                    YES
               X      Y      Z        X      Y      Z        X      Y      Z
 N         -0.093  0.046  0.125   -0.030  0.009  0.079    0.089 -0.242 -0.208
 S         -0.018  0.075  0.033    0.045  0.114  0.095    0.040 -0.123  0.044
 O         -0.008  0.037  0.028   -0.006  0.190  0.117   -0.111  0.520  0.140
 O         -0.211  0.112  0.013   -0.136  0.256 -0.067    0.467 -0.144 -0.034
 C         -0.003 -0.004 -0.005    0.001 -0.001  0.001    0.002  0.006  0.002
 F         -0.001 -0.004 -0.009    0.002 -0.001 -0.000    0.002  0.008  0.013
 F         -0.002 -0.004 -0.003    0.001 -0.002  0.003    0.001  0.010 -0.006
 F         -0.003 -0.002 -0.005    0.003  0.001  0.001    0.003 -0.004  0.002
 S          0.061  0.010  0.023   -0.000 -0.152  0.079   -0.010 -0.016 -0.029
 O         -0.376 -0.064  0.261   -0.073 -0.039 -0.094   -0.255  0.049 -0.077
 O          0.432 -0.297 -0.319   -0.203 -0.089  0.120    0.174  0.081  0.172
 C          0.077  0.013  0.002    0.152 -0.219  0.009    0.005  0.056  0.071
 F          0.051 -0.095  0.007    0.352 -0.161 -0.179    0.125  0.004 -0.064
 F          0.329 -0.149 -0.129   -0.235 -0.031  0.138    0.018  0.038  0.050
 F         -0.176 -0.078  0.133    0.440 -0.138 -0.131   -0.237  0.034  0.121
 Mg        -0.087  0.260 -0.131   -0.286  0.205 -0.200   -0.210 -0.110 -0.161
 TransDip  -0.027  0.027 -0.055    0.003 -0.033 -0.014    0.018  0.085  0.105

 Mode:                16                     17                     18
 Frequency:       275.50                 296.09                 312.95
 Force Cnst:      0.8278                 0.9242                 1.0447
 Red. Mass:      18.5126                17.8917                18.1052
 IR Active:          YES                    YES                    YES
 IR Intens:        4.756                 30.521                 23.985
 Raman Active:       YES                    YES                    YES
               X      Y      Z        X      Y      Z        X      Y      Z
 N         -0.286 -0.088  0.122    0.020 -0.055 -0.036    0.049  0.093  0.038
 S         -0.152  0.020 -0.184   -0.034 -0.073  0.180   -0.024 -0.003 -0.240
 O         -0.249  0.045 -0.171    0.308 -0.149  0.109   -0.357  0.275 -0.155
 O         -0.067 -0.123 -0.018    0.195 -0.029  0.082   -0.006 -0.136 -0.092
 C         -0.001  0.000 -0.001    0.000  0.001  0.000   -0.001 -0.000 -0.000
 F         -0.001  0.001 -0.002    0.000  0.002  0.000   -0.000 -0.001  0.001
 F         -0.003  0.001 -0.002   -0.001  0.002 -0.001   -0.000 -0.000 -0.004
 F         -0.004 -0.001 -0.002    0.001  0.002 -0.001   -0.002 -0.005 -0.001
 S         -0.077  0.053  0.036   -0.148  0.025  0.002    0.037  0.053  0.178
 O         -0.052 -0.002  0.119   -0.394 -0.005  0.147   -0.031 -0.091  0.453
 O         -0.301  0.092  0.020   -0.351  0.175  0.168    0.232  0.107  0.322
 C          0.233  0.047  0.095    0.066  0.046 -0.189   -0.024 -0.078 -0.124
 F          0.549 -0.006 -0.233   -0.074  0.067 -0.044   -0.210 -0.080  0.056
 F          0.281  0.021  0.062    0.366 -0.109 -0.319   -0.047 -0.094 -0.155
 F         -0.055  0.015  0.169    0.189  0.065 -0.236    0.301 -0.030 -0.224
 Mg         0.194 -0.102  0.119   -0.022  0.054  0.010    0.042 -0.018  0.030
 TransDip   0.037 -0.032 -0.050    0.013  0.139  0.109   -0.024 -0.097 -0.121

 Mode:                19                     20                     21
 Frequency:       322.26                 365.87                 448.74
 Force Cnst:      1.0636                 1.5513                 2.4728
 Red. Mass:      17.3834                19.6696                20.8424
 IR Active:          YES                    YES                    YES
 IR Intens:        7.766                162.840                126.682
 Raman Active:       YES                    YES                    YES
               X      Y      Z        X      Y      Z        X      Y      Z
 N         -0.166 -0.082  0.236   -0.035  0.140 -0.013   -0.219 -0.207  0.251
 S          0.026 -0.095 -0.011   -0.287 -0.106  0.029    0.380  0.098 -0.010
 O         -0.066  0.152  0.035    0.185 -0.106 -0.081   -0.167 -0.113  0.100
 O          0.228 -0.171  0.008    0.428 -0.243  0.096   -0.058 -0.053  0.253
 C         -0.001  0.001 -0.000   -0.002 -0.000  0.000    0.008  0.005 -0.003
 F         -0.001  0.003  0.001    0.001  0.005  0.001   -0.002 -0.003 -0.001
 F         -0.003  0.004 -0.003   -0.001  0.005 -0.004   -0.003  0.002  0.000
 F         -0.001  0.000 -0.001   -0.001  0.002 -0.002   -0.001 -0.002 -0.000
 S          0.067  0.018  0.118   -0.032  0.242 -0.106    0.088  0.248 -0.013
 O          0.546 -0.092  0.191   -0.045  0.140  0.190   -0.243  0.189  0.054
 O         -0.357 -0.174 -0.287    0.127  0.064 -0.334   -0.122  0.177 -0.287
 C         -0.006  0.064 -0.037   -0.018 -0.102  0.042    0.038  0.033  0.009
 F         -0.093  0.097  0.062    0.073 -0.260 -0.079   -0.060 -0.223  0.041
 F          0.149 -0.009 -0.094   -0.299  0.031  0.118   -0.166  0.026 -0.121
 F         -0.060  0.083 -0.043    0.232 -0.157  0.077    0.128  0.020  0.055
 Mg        -0.250  0.167 -0.165   -0.011  0.181  0.087   -0.043 -0.349 -0.179
 TransDip  -0.058 -0.010 -0.067   -0.061  0.363  0.177    0.123 -0.248 -0.231

 Mode:                22                     23                     24
 Frequency:       479.89                 501.04                 502.11
 Force Cnst:      2.5442                 2.7054                 2.7176
 Red. Mass:      18.7507                18.2913                18.2949
 IR Active:          YES                    YES                    YES
 IR Intens:       54.436                  1.061                  0.887
 Raman Active:       YES                    YES                    YES
               X      Y      Z        X      Y      Z        X      Y      Z
 N         -0.049  0.154 -0.135    0.001 -0.001  0.002    0.002  0.001  0.001
 S          0.046  0.314 -0.104    0.001  0.000  0.000   -0.001 -0.003  0.000
 O         -0.122 -0.363 -0.156   -0.002  0.001  0.001    0.001  0.001  0.000
 O          0.272 -0.141  0.569   -0.002  0.001  0.002    0.001 -0.001 -0.004
 C          0.002  0.002 -0.002   -0.083 -0.149 -0.268   -0.156  0.261 -0.090
 F         -0.000  0.008  0.001    0.169  0.272  0.515   -0.210  0.402 -0.144
 F          0.002  0.001  0.002    0.202 -0.465 -0.053    0.284 -0.066  0.500
 F         -0.001 -0.001 -0.003   -0.316  0.286 -0.298    0.023 -0.497 -0.299
 S         -0.110 -0.088 -0.037    0.000  0.000  0.001   -0.000  0.000  0.003
 O          0.082 -0.153  0.022   -0.002  0.002 -0.001   -0.001  0.004 -0.003
 O          0.148  0.003  0.209   -0.001 -0.002 -0.002   -0.001 -0.002 -0.002
 C         -0.048 -0.045 -0.025    0.001  0.001  0.002    0.000  0.000  0.001
 F          0.029  0.131 -0.084    0.001 -0.002  0.002    0.000 -0.002  0.002
 F          0.112  0.012  0.134   -0.002 -0.002 -0.002   -0.001 -0.002 -0.002
 F         -0.039 -0.088 -0.020    0.000  0.004 -0.002    0.001  0.001  0.001
 Mg        -0.197  0.017 -0.171    0.001 -0.001  0.002    0.001 -0.000 -0.000
 TransDip  -0.148  0.143 -0.116   -0.009 -0.018 -0.026   -0.014  0.026 -0.006

 Mode:                25                     26                     27
 Frequency:       513.91                 541.23                 546.95
 Force Cnst:      2.7158                 3.0742                 3.1929
 Red. Mass:      17.4531                17.8119                18.1152
 IR Active:          YES                    YES                    YES
 IR Intens:       15.813                 25.486                 18.786
 Raman Active:       YES                    YES                    YES
               X      Y      Z        X      Y      Z        X      Y      Z
 N         -0.138 -0.305 -0.193    0.002  0.132  0.264    0.150  0.269  0.172
 S          0.060 -0.017  0.062    0.065 -0.079  0.001    0.032 -0.037 -0.029
 O          0.071  0.009  0.080   -0.024  0.066  0.041   -0.047  0.047 -0.004
 O         -0.167  0.124 -0.090    0.006 -0.069 -0.071    0.063 -0.088 -0.021
 C         -0.004 -0.000  0.001    0.003  0.001 -0.002    0.002  0.001 -0.003
 F         -0.000  0.005  0.002   -0.000 -0.002  0.001    0.001 -0.003  0.002
 F          0.003 -0.003  0.002   -0.000 -0.002  0.001   -0.001 -0.001  0.000
 F         -0.000 -0.000 -0.004   -0.002 -0.001 -0.002   -0.002  0.001  0.002
 S          0.055  0.028 -0.188    0.073  0.100  0.019   -0.137 -0.045  0.232
 O          0.140 -0.287  0.343   -0.180  0.127 -0.025   -0.041  0.210 -0.289
 O         -0.014  0.270  0.086   -0.022  0.044 -0.141   -0.015 -0.275  0.003
 C         -0.057  0.064 -0.203   -0.103 -0.299 -0.149   -0.136  0.194 -0.186
 F         -0.192 -0.032 -0.237   -0.056  0.444 -0.113   -0.234 -0.143 -0.322
 F          0.102  0.332  0.146    0.119 -0.088  0.450    0.206  0.325 -0.056
 F          0.037 -0.313  0.227   -0.086 -0.356 -0.316    0.184 -0.189  0.284
 Mg        -0.023  0.064 -0.005    0.033 -0.066  0.008    0.025 -0.067  0.003
 TransDip   0.013 -0.016 -0.126    0.065 -0.136 -0.060   -0.080 -0.103  0.048

 Mode:                28                     29                     30
 Frequency:       592.24                 679.70                 686.64
 Force Cnst:      3.9140                 5.3902                 4.5622
 Red. Mass:      18.9402                19.8027                16.4234
 IR Active:          YES                    YES                    YES
 IR Intens:       64.102                129.881                 42.364
 Raman Active:       YES                    YES                    YES
               X      Y      Z        X      Y      Z        X      Y      Z
 N          0.001  0.379  0.467    0.033 -0.386 -0.363    0.008 -0.037 -0.023
 S         -0.071 -0.012 -0.038   -0.235  0.134 -0.024   -0.023  0.013 -0.001
 O         -0.039  0.016 -0.068    0.013 -0.058 -0.166   -0.003 -0.005 -0.019
 O          0.118 -0.117  0.023    0.068  0.145  0.153    0.005  0.012  0.018
 C          0.006  0.001 -0.000    0.061  0.023 -0.031   -0.504 -0.212  0.265
 F         -0.001 -0.002 -0.000    0.011 -0.043  0.020   -0.108  0.407 -0.180
 F         -0.001  0.000  0.001   -0.014  0.035  0.034    0.115 -0.309 -0.312
 F         -0.003 -0.000 -0.004   -0.035 -0.004 -0.034    0.318  0.040  0.321
 S          0.364 -0.196 -0.201    0.367 -0.029  0.251    0.036 -0.001  0.023
 O         -0.266 -0.251 -0.125   -0.124  0.306  0.011   -0.015  0.027 -0.002
 O         -0.195  0.178  0.133   -0.192 -0.189 -0.023   -0.020 -0.017 -0.003
 C          0.174  0.059 -0.088    0.187 -0.038 -0.189    0.014 -0.002 -0.016
 F         -0.066 -0.079  0.135   -0.077  0.015  0.117   -0.008  0.002  0.011
 F         -0.076  0.192 -0.086   -0.029  0.176 -0.023   -0.002  0.017 -0.002
 F         -0.118 -0.026  0.095   -0.083 -0.177 -0.075   -0.007 -0.017 -0.008
 Mg        -0.016  0.076  0.004    0.018 -0.043  0.004    0.001 -0.007 -0.001
 TransDip   0.221 -0.054 -0.119    0.327  0.024  0.159   -0.178 -0.100  0.041

 Mode:                31                     32                     33
 Frequency:       760.06                 920.29                 990.00
 Force Cnst:      6.3866                 8.4402                10.7520
 Red. Mass:      18.7636                16.9141                18.6194
 IR Active:          YES                    YES                    YES
 IR Intens:       12.655                418.824                 53.069
 Raman Active:       YES                    YES                    YES
               X      Y      Z        X      Y      Z        X      Y      Z
 N         -0.033  0.109  0.007    0.344 -0.251  0.324    0.109 -0.061  0.156
 S          0.083 -0.032  0.013   -0.018 -0.252 -0.091    0.037  0.075  0.001
 O          0.008  0.007  0.072   -0.147  0.039 -0.280   -0.031  0.002  0.040
 O         -0.027 -0.060 -0.056    0.095  0.582  0.379   -0.036 -0.125 -0.058
 C         -0.001  0.001 -0.000   -0.002  0.002  0.004    0.018  0.003  0.001
 F         -0.000  0.001  0.000    0.004 -0.005 -0.000   -0.008  0.006 -0.001
 F         -0.000 -0.002 -0.000    0.002  0.005  0.001   -0.003 -0.007 -0.003
 F          0.001 -0.000  0.002   -0.001 -0.000 -0.006    0.000 -0.000  0.003
 S         -0.275  0.043  0.001   -0.108 -0.014 -0.094   -0.057 -0.226 -0.339
 O          0.087  0.031  0.028    0.012  0.015  0.016    0.083  0.672  0.380
 O          0.083 -0.049  0.027    0.004  0.034 -0.047   -0.061 -0.227  0.168
 C          0.368 -0.067 -0.172   -0.086 -0.000  0.071    0.218  0.016 -0.031
 F          0.227 -0.060  0.441    0.015 -0.003  0.014   -0.096  0.018 -0.070
 F         -0.043  0.434 -0.187    0.021  0.052 -0.036   -0.034 -0.062  0.047
 F         -0.192 -0.367 -0.231    0.001 -0.048 -0.039   -0.019  0.045  0.043
 Mg        -0.002 -0.003 -0.003    0.002  0.052  0.026    0.003  0.012  0.006
 TransDip  -0.061 -0.048 -0.083    0.054  0.530  0.382    0.108  0.085 -0.189

 Mode:                34                     35                     36
 Frequency:      1042.61                1061.99                1173.21
 Force Cnst:      9.2976                10.5368                11.6267
 Red. Mass:      14.5170                15.8568                14.3369
 IR Active:          YES                    YES                    YES
 IR Intens:      342.259                568.437                 94.331
 Raman Active:       YES                    YES                    YES
               X      Y      Z        X      Y      Z        X      Y      Z
 N         -0.135  0.104 -0.079    0.481 -0.369  0.274    0.277 -0.189  0.157
 S          0.030 -0.083 -0.011   -0.112  0.281  0.021   -0.052  0.093  0.020
 O          0.002  0.002 -0.009   -0.001 -0.007  0.046   -0.008  0.002 -0.031
 O          0.019  0.085  0.045   -0.058 -0.275 -0.157   -0.011 -0.062 -0.033
 C          0.597  0.249 -0.442    0.194  0.048 -0.138    0.112 -0.066  0.106
 F         -0.263  0.168  0.004   -0.087  0.055  0.001   -0.051  0.037 -0.010
 F         -0.121 -0.263 -0.078   -0.035 -0.067 -0.018   -0.010 -0.005 -0.010
 F          0.003 -0.065  0.354   -0.002 -0.018  0.103   -0.010  0.011 -0.047
 S          0.006 -0.002  0.010   -0.025 -0.012 -0.019   -0.129  0.111  0.054
 O          0.001  0.013  0.007   -0.002 -0.074 -0.032    0.010 -0.208 -0.109
 O          0.005 -0.018  0.021   -0.003  0.114 -0.108    0.030  0.029 -0.050
 C          0.089 -0.003 -0.058   -0.364 -0.005  0.235    0.717 -0.038 -0.278
 F         -0.020  0.004 -0.011    0.083 -0.014  0.043   -0.202  0.037 -0.105
 F         -0.016 -0.028  0.023    0.065  0.113 -0.095   -0.106 -0.139  0.123
 F         -0.005  0.026  0.024    0.023 -0.094 -0.090   -0.054  0.111  0.108
 Mg         0.004  0.000  0.003   -0.010  0.016 -0.001   -0.006  0.010 -0.003
 TransDip   0.583  0.061 -0.086   -0.479  0.594  0.033    0.246  0.178 -0.066

 Mode:                37                     38                     39
 Frequency:      1182.04                1210.76                1212.58
 Force Cnst:     11.0083                11.5537                11.5604
 Red. Mass:      13.3722                13.3768                13.3446
 IR Active:          YES                    YES                    YES
 IR Intens:      304.752                116.389                340.763
 Raman Active:       YES                    YES                    YES
               X      Y      Z        X      Y      Z        X      Y      Z
 N         -0.048  0.033 -0.029    0.040 -0.023  0.026    0.032 -0.023  0.017
 S          0.005 -0.020 -0.024    0.001  0.011  0.012   -0.009  0.015 -0.004
 O          0.008 -0.004  0.042   -0.009  0.003 -0.027    0.002 -0.003  0.009
 O          0.004  0.021  0.010   -0.003 -0.009 -0.003    0.000 -0.010 -0.005
 C          0.529 -0.146  0.695    0.029 -0.106 -0.025   -0.141  0.831  0.291
 F         -0.210  0.145 -0.056   -0.026  0.024 -0.001    0.175 -0.171 -0.002
 F         -0.073 -0.104 -0.086    0.010  0.037  0.014   -0.091 -0.313 -0.122
 F         -0.052  0.051 -0.295   -0.002  0.006  0.003    0.005 -0.040 -0.058
 S          0.023 -0.006 -0.010   -0.021 -0.080  0.028   -0.011 -0.015  0.010
 O         -0.003  0.027  0.012    0.010  0.028  0.014    0.002 -0.003 -0.002
 O         -0.006 -0.021  0.018    0.010  0.103 -0.063    0.006  0.031 -0.023
 C         -0.125 -0.009  0.043   -0.190  0.692 -0.530   -0.005  0.064 -0.091
 F          0.035 -0.005  0.018    0.169 -0.074  0.162    0.017 -0.008  0.020
 F          0.019  0.027 -0.023   -0.063 -0.238  0.172   -0.010 -0.031  0.025
 F          0.010 -0.014 -0.015    0.012 -0.099 -0.017   -0.000 -0.001  0.008
 Mg         0.001 -0.002  0.001    0.000  0.001 -0.002   -0.001  0.002 -0.001
 TransDip   0.328 -0.108  0.440   -0.140  0.215 -0.232   -0.113  0.563  0.141

 Mode:                40                     41                     42
 Frequency:      1232.01                1277.63                1289.72
 Force Cnst:     11.8902                19.0348                19.3211
 Red. Mass:      13.2958                19.7920                19.7147
 IR Active:          YES                    YES                    YES
 IR Intens:      187.556                318.483                314.361
 Raman Active:       YES                    YES                    YES
               X      Y      Z        X      Y      Z        X      Y      Z
 N         -0.054  0.038 -0.041    0.070 -0.060  0.063   -0.021  0.040 -0.039
 S         -0.003 -0.013 -0.012   -0.112 -0.006 -0.438   -0.048 -0.019 -0.197
 O          0.009 -0.004  0.020    0.140 -0.078  0.748    0.063 -0.035  0.328
 O          0.005  0.010  0.006    0.033  0.128  0.095    0.025  0.065  0.052
 C          0.004  0.019  0.019   -0.039  0.003 -0.052   -0.010 -0.043 -0.001
 F          0.001 -0.002 -0.001    0.014 -0.009  0.003   -0.002  0.005 -0.001
 F         -0.003 -0.010 -0.004    0.006  0.010  0.006    0.007  0.018  0.005
 F         -0.001 -0.000 -0.006    0.004 -0.003  0.021    0.001  0.004 -0.004
 S          0.010 -0.044  0.031    0.040  0.174 -0.083   -0.077 -0.399  0.198
 O          0.006 -0.013 -0.015   -0.018 -0.084 -0.039    0.024  0.175  0.069
 O          0.008  0.062 -0.038   -0.062 -0.258  0.175    0.129  0.583 -0.403
 C          0.315  0.559  0.633   -0.026  0.105 -0.050    0.105 -0.217 -0.034
 F         -0.151  0.001 -0.146    0.016 -0.010  0.017   -0.043  0.020 -0.024
 F         -0.031 -0.070 -0.009   -0.013 -0.036  0.027    0.011  0.046 -0.024
 F         -0.014 -0.263 -0.225    0.002 -0.021 -0.009   -0.012  0.074  0.053
 Mg         0.002 -0.000 -0.001    0.003  0.006  0.003    0.000  0.006  0.004
 TransDip   0.165  0.196  0.356   -0.203  0.315 -0.431    0.024 -0.567  0.020

 STANDARD THERMODYNAMIC QUANTITIES AT   298.15 K  AND     1.00 ATM

   This Molecule has  6 Imaginary Frequencies
   Zero point vibrational energy:       30.759 kcal/mol

   Atom    1 Element N  Has Mass   14.00307
   Atom    2 Element S  Has Mass   31.97207
   Atom    3 Element O  Has Mass   15.99491
   Atom    4 Element O  Has Mass   15.99491
   Atom    5 Element C  Has Mass   12.00000
   Atom    6 Element F  Has Mass   18.99840
   Atom    7 Element F  Has Mass   18.99840
   Atom    8 Element F  Has Mass   18.99840
   Atom    9 Element S  Has Mass   31.97207
   Atom   10 Element O  Has Mass   15.99491
   Atom   11 Element O  Has Mass   15.99491
   Atom   12 Element C  Has Mass   12.00000
   Atom   13 Element F  Has Mass   18.99840
   Atom   14 Element F  Has Mass   18.99840
   Atom   15 Element F  Has Mass   18.99840
   Atom   16 Element Mg Has Mass   23.98504
   Molecular Mass:   303.902290 amu
   Principal axes and moments of inertia in atomic units:
                             1           2           3
    Eigenvalues --     2978.98784  8898.54508  9542.64716
          X               0.99999    -0.00085     0.00445
          Y               0.00087     0.99999    -0.00323
          Z              -0.00445     0.00323     0.99998
   Rotational Symmetry Number is   1
   The Molecule is an Asymmetric Top
   Translational Enthalpy:        0.889 kcal/mol
   Rotational Enthalpy:           0.889 kcal/mol
   Vibrational Enthalpy:         37.447 kcal/mol
   gas constant (RT):             0.592 kcal/mol
   Translational Entropy:        43.031  cal/mol.K
   Rotational Entropy:           33.891  cal/mol.K
   Vibrational Entropy:          45.687  cal/mol.K

   Total Enthalpy:               39.817 kcal/mol
   Total Entropy:               122.609  cal/mol.K
Archival summary:
1\1\nid00603\FREQ\ProcedureUnspecified\6-31+G*\2g16412(2)\\ThuJun521:05:432014ThuJun521:05:432014\0\\#,FREQ,ProcedureUnspecified,6-31+G*,\\0,2\S\O,1,1.4533\O,1,1.51237,2,116.219\N,1,1.60765,2,114.644,3,-136.44,0\S,4,1.5976,1,127.033,2,113.672,0\O,5,1.45002,4,110.984,1,157.995,0\O,5,1.51099,4,113.839,1,23.5627,0\C,1,1.88607,2,107.162,3,114.044,0\F,8,1.32966,1,110.128,2,62.5953,0\F,8,1.33521,1,108.356,2,-57.4634,0\F,8,1.33802,1,109.504,2,-176.604,0\Mg,7,2.0249,5,136.227,4,-5.69308,0\C,5,3.64064,4,106.013,1,-95.3675,0\F,13,1.32978,5,116.258,4,-54.564,0\F,13,1.33437,5,110.488,4,179.43,0\F,13,1.34202,5,101.03,4,63.8669,0\\\@

 Total job time:  1115.37s(wall), 1095.65s(cpu) 
 Thu Jun  5 21:05:43 2014

[...]
 Red. Mass:      17.8687                18.1159                19.5257
 IR Active:          YES                    YES                    YES
 IR Intens:        1.803                 62.057                 10.965
 Raman Active:       YES                    YES                    YES
               X      Y      Z        X      Y      Z        X      Y      Z
 N         -0.018 -0.079  0.010   -0.195 -0.094  0.114   -0.095 -0.268 -0.141
 S         -0.002 -0.001  0.050   -0.165  0.011 -0.115    0.092  0.050  0.285
 O          0.088 -0.024  0.016    0.116  0.050 -0.214    0.328 -0.066  0.205
 O         -0.002  0.028  0.025   -0.132 -0.220  0.043    0.001  0.364  0.008
 C          0.024 -0.001 -0.013   -0.038 -0.009  0.065    0.027 -0.002 -0.053
 F          0.037  0.034 -0.026   -0.052 -0.043  0.094    0.050  0.048 -0.088
 F          0.009 -0.018  0.005    0.016  0.043  0.016   -0.009 -0.036 -0.013
 F          0.046  0.010 -0.017   -0.124 -0.067  0.068    0.136  0.068 -0.062
 S         -0.106  0.025  0.092   -0.015 -0.028  0.011   -0.057 -0.082 -0.158
 O         -0.276 -0.044  0.274    0.343 -0.122 -0.077   -0.078  0.080 -0.341
 O         -0.282  0.231  0.337   -0.296  0.034 -0.120   -0.150  0.022 -0.043
 C          0.058  0.062 -0.214    0.099  0.166  0.060    0.045  0.053  0.059
 F         -0.180  0.135  0.024    0.186  0.186 -0.006    0.149  0.072 -0.032
 F          0.359 -0.161 -0.348    0.373 -0.006 -0.009    0.110  0.037  0.093
 F          0.220  0.075 -0.278   -0.322  0.193  0.161   -0.220  0.067  0.127
 Mg         0.041 -0.203 -0.009    0.243 -0.073 -0.004   -0.266 -0.296  0.006
 TransDip   0.037 -0.016 -0.015   -0.122 -0.217 -0.042    0.082 -0.021  0.064

 Mode:                19                     20                     21
 Frequency:       380.72                 465.57                 495.37
 Force Cnst:      1.6934                 2.2699                 2.8538
 Red. Mass:      19.8292                17.7738                19.7385
 IR Active:          YES                    YES                    YES
 IR Intens:        3.191                 27.507                 55.588
 Raman Active:       YES                    YES                    YES
               X      Y      Z        X      Y      Z        X      Y      Z
 N         -0.144  0.112 -0.066    0.119  0.524 -0.027    0.122  0.117  0.106
 S         -0.229  0.079  0.051    0.112  0.153 -0.061   -0.158 -0.264  0.093
 O          0.340 -0.174 -0.207   -0.065 -0.223 -0.094    0.139  0.190  0.080
 O         -0.174 -0.112  0.232   -0.035 -0.056  0.268   -0.017  0.026 -0.211
 C          0.010 -0.010  0.008    0.014  0.023 -0.005   -0.201  0.110 -0.054
 F          0.031  0.061 -0.018   -0.004 -0.010 -0.009   -0.243  0.258 -0.142
 F          0.031 -0.021  0.047   -0.016 -0.001  0.004    0.250  0.026  0.353
 F          0.016 -0.048 -0.001    0.005 -0.005  0.005    0.251 -0.283 -0.222
 S         -0.087  0.172 -0.173   -0.149 -0.211 -0.108   -0.065 -0.085 -0.045
 O         -0.348  0.203 -0.008   -0.098 -0.217 -0.206   -0.067  0.045 -0.120
 O          0.227  0.141  0.001    0.130 -0.091  0.425   -0.014 -0.087  0.053
 C          0.006 -0.053  0.024   -0.036 -0.051 -0.019   -0.024 -0.058  0.058
 F          0.073 -0.177 -0.099    0.096  0.222 -0.038    0.064  0.097  0.079
 F         -0.135  0.060  0.088    0.142 -0.055  0.160   -0.017 -0.119  0.000
 F          0.102 -0.134  0.085   -0.129 -0.037 -0.068   -0.045  0.083 -0.131
 Mg         0.373 -0.202  0.092   -0.039  0.087 -0.052    0.106  0.205  0.053
 TransDip  -0.041 -0.029 -0.027    0.083  0.137 -0.050   -0.044  0.220  0.081

 Mode:                22                     23                     24
 Frequency:       503.93                 506.29                 508.84
 Force Cnst:      2.7467                 2.7516                 2.7639
 Red. Mass:      18.3576                18.2199                18.1178
 IR Active:          YES                    YES                    YES
 IR Intens:        7.874                 24.232                 13.145
 Raman Active:       YES                    YES                    YES
               X      Y      Z        X      Y      Z        X      Y      Z
 N         -0.155  0.092  0.279   -0.024  0.185  0.200   -0.009  0.137  0.159
 S          0.101  0.118 -0.114    0.084 -0.174  0.054    0.040 -0.143  0.016
 O         -0.144 -0.170 -0.107    0.000  0.178  0.173    0.025  0.169  0.092
 O          0.321 -0.031  0.187   -0.180 -0.003 -0.231   -0.151 -0.051 -0.196
 C         -0.031  0.052 -0.034    0.089 -0.176 -0.157    0.091  0.054  0.269
 F         -0.070  0.052 -0.020    0.151  0.090  0.385    0.149 -0.289 -0.344
 F          0.055 -0.001  0.088    0.151 -0.235 -0.257   -0.362  0.265 -0.148
 F          0.042 -0.073 -0.058   -0.333  0.279 -0.076    0.192  0.031  0.370
 S         -0.181  0.028  0.232   -0.081 -0.035 -0.010   -0.062 -0.028  0.001
 O          0.001  0.450 -0.267   -0.147  0.166 -0.197   -0.116  0.153 -0.165
 O         -0.048 -0.283 -0.205    0.009 -0.077  0.010   -0.000 -0.069 -0.004
 C          0.006  0.007  0.089   -0.006 -0.039  0.029    0.002 -0.039  0.044
 F          0.084 -0.068  0.044    0.054  0.051  0.030    0.058  0.038  0.053
 F         -0.017 -0.144 -0.132   -0.001 -0.083  0.009   -0.021 -0.092 -0.011
 F          0.112  0.145 -0.061   -0.008  0.040 -0.078   -0.007  0.063 -0.082
 Mg        -0.040 -0.185  0.023    0.169 -0.011  0.042    0.142 -0.007  0.039
 TransDip   0.068  0.018  0.055    0.131 -0.075  0.044    0.074 -0.047  0.077

 Mode:                25                     26                     27
 Frequency:       521.68                 546.93                 566.07
 Force Cnst:      2.9260                 3.1924                 3.6599
 Red. Mass:      18.2481                18.1133                19.3858
 IR Active:          YES                    YES                    YES
 IR Intens:        0.587                 13.534                226.093
 Raman Active:       YES                    YES                    YES
               X      Y      Z        X      Y      Z        X      Y      Z
 N          0.260 -0.108 -0.266   -0.022 -0.164 -0.020   -0.048  0.142  0.086
 S         -0.115  0.139  0.020   -0.096  0.011 -0.003   -0.336 -0.149  0.042
 O          0.034 -0.099 -0.088    0.026 -0.017 -0.057    0.188  0.017 -0.136
 O         -0.165  0.021  0.156    0.155  0.019  0.027    0.599  0.086  0.023
 C          0.047 -0.026 -0.011    0.014 -0.037  0.015   -0.009 -0.210  0.103
 F          0.052 -0.029  0.049    0.042 -0.003  0.006    0.170  0.067 -0.025
 F         -0.032 -0.037 -0.043   -0.010 -0.014 -0.044    0.026 -0.062 -0.233
 F         -0.064  0.037  0.015   -0.015  0.031  0.028    0.016  0.167  0.156
 S          0.162 -0.073 -0.023    0.049  0.137  0.063   -0.179  0.032 -0.090
 O         -0.039 -0.000 -0.011    0.026  0.133  0.161    0.136 -0.178  0.068
 O         -0.031  0.015 -0.002    0.045  0.029 -0.175    0.091 -0.031  0.095
 C          0.130 -0.119  0.238   -0.154 -0.306 -0.087   -0.037  0.054  0.112
 F          0.187 -0.038  0.396    0.111  0.455 -0.024    0.059 -0.085  0.014
 F         -0.288 -0.277 -0.194    0.018 -0.241  0.424   -0.015 -0.045 -0.091
 F         -0.071  0.395 -0.226   -0.122 -0.232 -0.410    0.051  0.116  0.047
 Mg         0.002  0.051  0.012   -0.041 -0.036  0.011   -0.181  0.095 -0.022
 TransDip  -0.002 -0.024  0.002   -0.116 -0.017 -0.011   -0.433  0.211 -0.000

 Mode:                28                     29                     30
 Frequency:       596.49                 623.88                 696.87
 Force Cnst:      3.6361                 4.4163                 4.7474
 Red. Mass:      17.3454                19.2578                16.5919
 IR Active:          YES                    YES                    YES
 IR Intens:       62.891                 65.454                 18.194
 Raman Active:       YES                    YES                    YES
               X      Y      Z        X      Y      Z        X      Y      Z
 N          0.565 -0.054 -0.324    0.058  0.028  0.502    0.060  0.093 -0.028
 S         -0.219  0.002  0.052   -0.142  0.030 -0.032   -0.126 -0.010  0.055
 O          0.074 -0.027 -0.081   -0.034 -0.024 -0.119    0.096  0.033  0.038
 O         -0.127  0.070  0.104    0.265 -0.020  0.057    0.169 -0.037 -0.119
 C          0.015 -0.068  0.027    0.021 -0.007  0.007    0.363  0.405 -0.228
 F          0.078  0.024 -0.009    0.032 -0.001  0.003    0.299 -0.299  0.161
 F          0.003 -0.039 -0.086   -0.008 -0.018 -0.019   -0.240  0.169  0.290
 F          0.002  0.055  0.071   -0.010  0.010  0.015   -0.246 -0.135 -0.316
 S         -0.028 -0.119  0.217    0.399 -0.205 -0.071   -0.036  0.001  0.006
 O          0.065  0.304 -0.119   -0.376  0.127 -0.168    0.012 -0.002 -0.019
 O         -0.129 -0.306 -0.017   -0.216  0.127 -0.002    0.017 -0.031  0.022
 C         -0.092  0.094 -0.110    0.178 -0.027 -0.164   -0.032  0.015  0.016
 F         -0.179  0.035 -0.173   -0.122  0.019  0.103   -0.009  0.004 -0.030
 F          0.147  0.127 -0.009   -0.007  0.220 -0.010    0.009 -0.018  0.001
 F          0.045 -0.125  0.073   -0.144 -0.135 -0.011    0.019  0.016  0.014
 Mg         0.040  0.087  0.054   -0.031  0.019  0.013   -0.048 -0.020 -0.001
 TransDip  -0.129  0.179  0.125    0.174 -0.156 -0.112   -0.053  0.102 -0.074

 Mode:                31                     32                     33
 Frequency:       752.34                 859.93                 869.85
 Force Cnst:      5.8294                 7.5201                 7.9217
 Red. Mass:      17.4801                17.2602                17.7695
 IR Active:          YES                    YES                    YES
 IR Intens:       11.452                190.829                386.567
 Raman Active:       YES                    YES                    YES
               X      Y      Z        X      Y      Z        X      Y      Z
 N         -0.130  0.107 -0.200    0.311 -0.344  0.392    0.498 -0.266  0.374
 S          0.009 -0.038  0.011    0.069 -0.207 -0.129   -0.034  0.298  0.085
 O          0.034  0.013  0.018   -0.124  0.019 -0.168    0.016 -0.068  0.158
 O          0.016  0.016 -0.022   -0.181  0.404  0.422    0.018 -0.417 -0.303
 C          0.007  0.012 -0.007   -0.015  0.008  0.012    0.031 -0.011 -0.012
 F          0.010 -0.007  0.003    0.147 -0.046  0.022   -0.083  0.025 -0.011
 F         -0.005  0.007  0.006   -0.029  0.088  0.054    0.011 -0.051 -0.026
 F         -0.005 -0.002 -0.008   -0.034 -0.001 -0.097    0.015 -0.001  0.052
 S         -0.154  0.043  0.064   -0.173  0.070 -0.114   -0.210  0.086 -0.109
 O          0.113  0.073  0.091    0.018 -0.074 -0.018    0.026 -0.070 -0.051
 O          0.009 -0.128  0.040    0.069  0.093 -0.050    0.082  0.074 -0.040
 C          0.388 -0.132 -0.194   -0.059  0.007  0.053   -0.080  0.016  0.067
 F          0.161 -0.102  0.430    0.051 -0.024  0.055    0.061 -0.029  0.065
 F          0.030  0.433 -0.154    0.028  0.073 -0.043    0.039  0.091 -0.055
 F         -0.247 -0.311 -0.237   -0.021 -0.061 -0.053   -0.023 -0.078 -0.069
 Mg         0.001 -0.007  0.001    0.027  0.058 -0.012   -0.050 -0.005 -0.021
 TransDip   0.099 -0.043 -0.008   -0.069  0.429 -0.086   -0.544  0.311 -0.065

 Mode:                34                     35                     36
 Frequency:       956.57                1002.27                1149.63
 Force Cnst:     10.1713                 8.5761                10.9250
 Red. Mass:      18.8667                14.4901                14.0300
 IR Active:          YES                    YES                    YES
 IR Intens:      151.932                900.648                174.286
 Raman Active:       YES                    YES                    YES
               X      Y      Z        X      Y      Z        X      Y      Z
 N         -0.041 -0.061  0.111   -0.003 -0.025  0.021    0.124 -0.048  0.058
 S          0.045  0.032 -0.008   -0.032 -0.067 -0.045   -0.013 -0.005  0.006
 O         -0.020 -0.017  0.009    0.024  0.012  0.015   -0.001  0.005 -0.008
 O         -0.031 -0.038  0.007    0.002  0.107  0.077    0.004  0.004 -0.000
 C          0.032  0.048 -0.014    0.467  0.586 -0.295    0.051 -0.031  0.034
 F          0.014 -0.003  0.001   -0.282  0.035 -0.020   -0.030  0.006 -0.004
 F         -0.002 -0.012 -0.004    0.011 -0.325 -0.130   -0.003  0.006  0.001
 F         -0.002 -0.002  0.003    0.018 -0.073  0.331   -0.004  0.003 -0.016
 S         -0.064 -0.188 -0.379   -0.023 -0.005  0.006   -0.091  0.148  0.052
 O          0.238  0.539  0.535    0.005 -0.027 -0.003   -0.017 -0.145 -0.118
 O         -0.108 -0.211  0.151    0.023  0.040 -0.021    0.012 -0.061  0.014
 C          0.199 -0.032 -0.043   -0.008 -0.012  0.005    0.753 -0.225 -0.341
 F         -0.073  0.031 -0.068    0.003 -0.001  0.001   -0.202  0.085 -0.112
 F         -0.054 -0.071  0.050    0.004  0.006 -0.004   -0.149 -0.133  0.129
 F         -0.007  0.076  0.070    0.001  0.001 -0.000   -0.033  0.158  0.151
 Mg        -0.020  0.039 -0.030    0.003  0.019 -0.000   -0.001 -0.002 -0.000
 TransDip   0.214  0.152 -0.295    0.628  0.713 -0.146    0.378 -0.121 -0.147

 Mode:                37                     38                     39
 Frequency:      1207.73                1215.87                1223.52
 Force Cnst:     12.0532                11.6014                12.5815
 Red. Mass:      14.0253                13.3193                14.2647
 IR Active:          YES                    YES                    YES
 IR Intens:      180.379                126.885                102.878
 Raman Active:       YES                    YES                    YES
               X      Y      Z        X      Y      Z        X      Y      Z
 N         -0.006  0.008  0.008    0.038  0.001  0.009    0.005 -0.004  0.008
 S         -0.042 -0.012 -0.130   -0.012 -0.008 -0.012   -0.054  0.021 -0.180
 O          0.074 -0.031  0.200    0.009 -0.001  0.019    0.112 -0.062  0.306
 O          0.001  0.059  0.047    0.003  0.012  0.007   -0.008  0.021  0.032
 C          0.673 -0.426  0.231    0.168 -0.131 -0.002   -0.141  0.415  0.680
 F         -0.312  0.077 -0.040   -0.077  0.020 -0.007    0.066 -0.034 -0.030
 F         -0.056  0.147  0.045   -0.016  0.052  0.021    0.037 -0.237 -0.139
 F         -0.058  0.044 -0.145   -0.012  0.009 -0.013   -0.021  0.008 -0.247
 S          0.048  0.072 -0.038   -0.032 -0.058  0.015    0.017  0.026 -0.005
 O         -0.011 -0.004 -0.007    0.011  0.021  0.014   -0.007 -0.005 -0.005
 O         -0.059 -0.132  0.071    0.025  0.074 -0.030   -0.020 -0.043  0.020
 C         -0.046 -0.086  0.174   -0.082  0.629 -0.607   -0.102 -0.052 -0.166
 F         -0.018  0.015 -0.031    0.162 -0.111  0.182    0.044 -0.015  0.045
 F          0.032  0.052 -0.042   -0.107 -0.218  0.160    0.005  0.002  0.010
 F          0.002 -0.013 -0.026    0.002 -0.049  0.024    0.012  0.044  0.046
 Mg         0.002 -0.010 -0.001   -0.001  0.001 -0.002    0.003  0.000  0.000
 TransDip   0.213 -0.373 -0.022   -0.038  0.155 -0.323   -0.244  0.201  0.074

 Mode:                40                     41                     42
 Frequency:      1231.51                1243.62                1269.46
 Force Cnst:     12.3614                15.1090                17.7994
 Red. Mass:      13.8337                16.5810                18.7462
 IR Active:          YES                    YES                    YES
 IR Intens:       70.736                519.911                317.582
 Raman Active:       YES                    YES                    YES
               X      Y      Z        X      Y      Z        X      Y      Z
 N         -0.016  0.017 -0.020    0.003  0.001  0.016   -0.002  0.050 -0.051
 S         -0.036  0.009 -0.112   -0.102  0.027 -0.330   -0.022 -0.004 -0.020
 O          0.072 -0.040  0.194    0.198 -0.119  0.565    0.025 -0.007  0.045
 O          0.000  0.021  0.024   -0.004  0.060  0.077    0.011  0.002 -0.002
 C         -0.076  0.044  0.040   -0.255 -0.150 -0.510    0.142 -0.116  0.121
 F          0.033 -0.008  0.001    0.114 -0.010  0.038   -0.054  0.018 -0.013
 F          0.008 -0.020 -0.011    0.003  0.122  0.080   -0.012  0.039  0.006
 F          0.002 -0.002 -0.010    0.038 -0.021  0.209   -0.018  0.018 -0.069
 S         -0.032 -0.084  0.039    0.014  0.011 -0.002   -0.178 -0.392  0.146
 O          0.013  0.002 -0.004   -0.007  0.001  0.002    0.055  0.133  0.087
 O          0.054  0.127 -0.066   -0.013 -0.018  0.011    0.289  0.603 -0.319
 C          0.438  0.536  0.513   -0.079 -0.159 -0.156    0.033 -0.336 -0.084
 F         -0.136  0.021 -0.130    0.024 -0.000  0.029   -0.033  0.034 -0.020
 F         -0.072 -0.109  0.024    0.012  0.024 -0.000    0.032  0.066 -0.030
 F         -0.054 -0.231 -0.208    0.012  0.071  0.064    0.005  0.109  0.085
 Mg         0.001  0.003 -0.001    0.006  0.006 -0.001   -0.009  0.012  0.000
 TransDip   0.076  0.151  0.210   -0.316 -0.147 -0.642    0.064 -0.555  0.117

 STANDARD THERMODYNAMIC QUANTITIES AT   298.15 K  AND     1.00 ATM

   This Molecule has  1 Imaginary Frequencies
   Zero point vibrational energy:       31.828 kcal/mol

   Atom    1 Element N  Has Mass   14.00307
   Atom    2 Element S  Has Mass   31.97207
   Atom    3 Element O  Has Mass   15.99491
   Atom    4 Element O  Has Mass   15.99491
   Atom    5 Element C  Has Mass   12.00000
   Atom    6 Element F  Has Mass   18.99840
   Atom    7 Element F  Has Mass   18.99840
   Atom    8 Element F  Has Mass   18.99840
   Atom    9 Element S  Has Mass   31.97207
   Atom   10 Element O  Has Mass   15.99491
   Atom   11 Element O  Has Mass   15.99491
   Atom   12 Element C  Has Mass   12.00000
   Atom   13 Element F  Has Mass   18.99840
   Atom   14 Element F  Has Mass   18.99840
   Atom   15 Element F  Has Mass   18.99840
   Atom   16 Element Mg Has Mass   23.98504
   Molecular Mass:   303.902290 amu
   Principal axes and moments of inertia in atomic units:
                             1           2           3
    Eigenvalues --     2534.89314  6423.71134  7172.28474
          X               0.99998    -0.00286     0.00541
          Y               0.00287     0.99999    -0.00147
          Z              -0.00541     0.00148     0.99998
   Rotational Symmetry Number is   1
   The Molecule is an Asymmetric Top
   Translational Enthalpy:        0.889 kcal/mol
   Rotational Enthalpy:           0.889 kcal/mol
   Vibrational Enthalpy:         40.329 kcal/mol
   gas constant (RT):             0.592 kcal/mol
   Translational Entropy:        43.031  cal/mol.K
   Rotational Entropy:           33.123  cal/mol.K
   Vibrational Entropy:          57.966  cal/mol.K

   Total Enthalpy:               42.699 kcal/mol
   Total Entropy:               134.121  cal/mol.K
Archival summary:
1\1\nid00603\FREQ\ProcedureUnspecified\6-31+G*\2g16412(2)\\ThuJun521:58:572014ThuJun521:58:572014\0\\#,FREQ,ProcedureUnspecified,6-31+G*,\\0,2\S\O,1,1.45929\O,1,1.52695,2,117.285\N,1,1.62352,2,118.774,3,-128.216,0\S,4,1.77368,1,117.326,2,37.7539,0\O,5,1.4625,4,105.74,1,-162.015,0\O,5,1.55323,4,96.5387,1,78.7887,0\C,1,1.89342,2,107.4,3,116.474,0\F,8,1.33054,1,109.117,2,56.3738,0\F,8,1.33465,1,108.296,2,-63.2734,0\F,8,1.33562,1,110.039,2,177.015,0\Mg,7,2.00533,5,103.858,4,7.25271,0\C,5,2.12898,4,128.169,1,-36.1289,0\F,13,1.32926,5,108.514,4,64.3907,0\F,13,1.33185,5,108.401,4,-55.5065,0\F,13,1.33313,5,109.128,4,-175.591,0\\\@

 Total job time:  1307.43s(wall), 1294.13s(cpu) 
 Thu Jun  5 21:58:57 2014

        *************************************************************
        *                                                           *
        *  Thank you very much for using Q-Chem.  Have a nice day.  *
        *                                                           *
        *************************************************************


0 sent ACK to 0 
now end server 0 ... 
Application 5612730 resources: utime ~20410s, stime ~368s, Rss ~856800, inblocks ~83420038, outblocks ~11783127
cleanup process ... done
