<?xml version="1.0" encoding="ISO-8859-1"?>
<modeling>
 <generator>
  <i name="program" type="string">vasp </i>
  <i name="version" type="string">6.4.1  </i>
  <i name="subversion" type="string">05Apr23 (build May 18 2023 13:19:41) complex                          parallel </i>
  <i name="platform" type="string">LinuxNV_CrayMPICH </i>
  <i name="date" type="string">2024 02 23 </i>
  <i name="time" type="string">09:09:47 </i>
 </generator>
 <incar>
  <i type="int" name="ISTART">     1</i>
  <i type="string" name="PREC">Accurate</i>
  <i type="string" name="ALGO">Normal</i>
  <i type="int" name="ISPIN">     2</i>
  <i name="BMIX">      0.00100000</i>
  <i name="AMIX_MAG">      0.80000000</i>
  <i name="BMIX_MAG">      0.00100000</i>
  <i type="int" name="NELM">   200</i>
  <i type="int" name="NELMDL">    -6</i>
  <i name="EDIFF">      0.00000100</i>
  <i type="int" name="NSW">     0</i>
  <i name="ENCUT">    680.00000000</i>
  <i name="ENAUG">   1360.00000000</i>
  <v name="MAGMOM">     -0.00000000     -0.00000000     -0.00000000     -0.00000000     -0.00000000     -0.00000000     -0.00000000     -0.00000000     -0.00000000     -0.00000000</v>
  <i type="logical" name="LREAL"> F  </i>
  <i type="int" name="ISMEAR">    -5</i>
  <i name="SIGMA">      0.05000000</i>
  <i name="KSPACING">      0.22000000</i>
  <i type="int" name="LMAXMIX">     6</i>
  <i type="logical" name="LWAVE"> F  </i>
  <i type="logical" name="LCHARG"> F  </i>
  <i type="logical" name="LVTOT"> F  </i>
  <i type="int" name="LORBIT">    11</i>
  <i type="logical" name="LELF"> F  </i>
  <i type="logical" name="LASPH"> T  </i>
  <i type="logical" name="LAECHG"> F  </i>
  <i type="logical" name="LMIXTAU"> T  </i>
 </incar>
 <primitive_cell>
  <structure name="primitive_cell" >
   <crystal>
    <varray name="basis" >
     <v>       5.31091996       0.00000000       0.00000000 </v>
     <v>       0.00000000       5.31091996       0.00000000 </v>
     <v>       0.00000000       0.00000000       5.31091996 </v>
    </varray>
    <i name="volume">    149.79912240 </i>
    <varray name="rec_basis" >
     <v>       0.18829130       0.00000000       0.00000000 </v>
     <v>       0.00000000       0.18829130       0.00000000 </v>
     <v>       0.00000000       0.00000000       0.18829130 </v>
    </varray>
   </crystal>
   <varray name="positions" >
    <v>       0.25000000       0.25000000       0.75000000 </v>
    <v>       0.75000000       0.25000000       0.25000000 </v>
    <v>       0.25000000       0.75000000       0.25000000 </v>
    <v>       0.75000000       0.75000000       0.75000000 </v>
    <v>       0.50000000       0.00000000       0.50000000 </v>
    <v>       0.50000000       0.50000000       0.00000000 </v>
    <v>       0.00000000       0.50000000       0.00000000 </v>
    <v>       0.00000000       0.50000000       0.50000000 </v>
    <v>       0.50000000       0.00000000       0.00000000 </v>
    <v>       0.00000000       0.00000000       0.50000000 </v>
   </varray>
  </structure>
  <varray name="primitive_index" >
   <v type="int" >        1 </v>
   <v type="int" >        2 </v>
   <v type="int" >        3 </v>
   <v type="int" >        4 </v>
   <v type="int" >        5 </v>
   <v type="int" >        6 </v>
   <v type="int" >        7 </v>
   <v type="int" >        8 </v>
   <v type="int" >        9 </v>
   <v type="int" >       10 </v>
  </varray>
 </primitive_cell>
 <kpoints>
  <generation param="Gamma">
   <v type="int" name="divisions">       6        6        6 </v>
   <v name="usershift">      0.00000000       0.00000000       0.00000000 </v>
   <v name="genvec1">      0.16666667       0.00000000       0.00000000 </v>
   <v name="genvec2">      0.00000000       0.16666667       0.00000000 </v>
   <v name="genvec3">      0.00000000       0.00000000       0.16666667 </v>
   <v name="shift">      0.00000000       0.00000000       0.00000000 </v>
  </generation>
  <varray name="kpointlist" >
   <v>       0.00000000       0.00000000       0.00000000 </v>
   <v>       0.16666667       0.00000000       0.00000000 </v>
   <v>       0.33333333       0.00000000       0.00000000 </v>
   <v>       0.50000000       0.00000000       0.00000000 </v>
   <v>       0.16666667       0.16666667       0.00000000 </v>
   <v>       0.33333333       0.16666667       0.00000000 </v>
   <v>       0.50000000       0.16666667       0.00000000 </v>
   <v>       0.33333333       0.33333333       0.00000000 </v>
   <v>       0.50000000       0.33333333       0.00000000 </v>
   <v>       0.50000000       0.50000000       0.00000000 </v>
   <v>       0.16666667       0.16666667       0.16666667 </v>
   <v>       0.33333333       0.16666667       0.16666667 </v>
   <v>       0.50000000       0.16666667       0.16666667 </v>
   <v>       0.33333333       0.33333333       0.16666667 </v>
   <v>       0.50000000       0.33333333       0.16666667 </v>
   <v>       0.50000000       0.50000000       0.16666667 </v>
   <v>       0.33333333       0.33333333       0.33333333 </v>
   <v>       0.50000000       0.33333333       0.33333333 </v>
   <v>       0.50000000       0.50000000       0.33333333 </v>
   <v>       0.50000000       0.50000000       0.50000000 </v>
  </varray>
  <varray name="weights" >
   <v>       0.00462963 </v>
   <v>       0.02777778 </v>
   <v>       0.02777778 </v>
   <v>       0.01388889 </v>
   <v>       0.05555556 </v>
   <v>       0.11111111 </v>
   <v>       0.05555556 </v>
   <v>       0.05555556 </v>
   <v>       0.05555556 </v>
   <v>       0.01388889 </v>
   <v>       0.03703704 </v>
   <v>       0.11111111 </v>
   <v>       0.05555556 </v>
   <v>       0.11111111 </v>
   <v>       0.11111111 </v>
   <v>       0.02777778 </v>
   <v>       0.03703704 </v>
   <v>       0.05555556 </v>
   <v>       0.02777778 </v>
   <v>       0.00462963 </v>
  </varray>
  <varray name="tetrahedronlist"  type="int" >
   <v type="int" >       12       11       12       12       14 </v>
   <v type="int" >       12       12       12       14       14 </v>
   <v type="int" >       12       12       14       14       17 </v>
   <v type="int" >       12       12       13       14       15 </v>
   <v type="int" >       12       12       14       14       15 </v>
   <v type="int" >       12       14       14       15       17 </v>
   <v type="int" >       12       13       14       15       15 </v>
   <v type="int" >       24       14       15       15       18 </v>
   <v type="int" >       24       14       15       17       18 </v>
   <v type="int" >       24        5        6       11       12 </v>
   <v type="int" >       12        6       11       12       12 </v>
   <v type="int" >       12        6       12       12       14 </v>
   <v type="int" >       24        5        6        6       12 </v>
   <v type="int" >       12        6        6        8       12 </v>
   <v type="int" >       12        6        8       12       14 </v>
   <v type="int" >       12       14       15       16       17 </v>
   <v type="int" >       12       15       16       17       18 </v>
   <v type="int" >       12       16       17       18       19 </v>
   <v type="int" >       12       15       15       16       18 </v>
   <v type="int" >       12       15       16       18       19 </v>
   <v type="int" >       12       15       17       18       18 </v>
   <v type="int" >       12       15       18       18       19 </v>
   <v type="int" >       12       12       13       14       17 </v>
   <v type="int" >       12       13       14       15       17 </v>
   <v type="int" >       12       13       15       17       18 </v>
   <v type="int" >       12        6        7       12       14 </v>
   <v type="int" >       12        7       12       13       14 </v>
   <v type="int" >       12        7       13       14       15 </v>
   <v type="int" >       12        6        7        8       14 </v>
   <v type="int" >       12        7        8        9       14 </v>
   <v type="int" >       12        7        9       14       15 </v>
   <v type="int" >       12        6        8       12       13 </v>
   <v type="int" >       12        6        7        8       13 </v>
   <v type="int" >       12        7        8        9       13 </v>
   <v type="int" >       12        8       12       13       14 </v>
   <v type="int" >       12        8       13       14       15 </v>
   <v type="int" >       12        8        9       13       15 </v>
   <v type="int" >       12       14       15       16       19 </v>
   <v type="int" >       12       14       15       18       19 </v>
   <v type="int" >       12       14       17       18       19 </v>
   <v type="int" >       12       12       13       15       18 </v>
   <v type="int" >       12       12       14       15       18 </v>
   <v type="int" >       12       12       14       17       18 </v>
   <v type="int" >       12        6        7       13       15 </v>
   <v type="int" >       12        6       12       13       15 </v>
   <v type="int" >       12        6       12       14       15 </v>
   <v type="int" >       12        6        7        9       15 </v>
   <v type="int" >       12        6        8        9       15 </v>
   <v type="int" >       12        6        8       14       15 </v>
   <v type="int" >       12        7        9       12       13 </v>
   <v type="int" >       12        6        7        9       12 </v>
   <v type="int" >       12        6        8        9       12 </v>
   <v type="int" >       12        9       12       13       15 </v>
   <v type="int" >       12        9       12       14       15 </v>
   <v type="int" >       12        8        9       12       14 </v>
   <v type="int" >       12       11       12       14       17 </v>
   <v type="int" >       12        5        6       12       14 </v>
   <v type="int" >       12        5       11       12       14 </v>
   <v type="int" >       12        5        6        8       14 </v>
   <v type="int" >       12        6        8       11       12 </v>
   <v type="int" >       12        5        6        8       11 </v>
   <v type="int" >       12        8       11       12       14 </v>
   <v type="int" >       12        2        5       11       12 </v>
   <v type="int" >       12        2        5        6       12 </v>
   <v type="int" >       12        2        3        6       12 </v>
   <v type="int" >       12        5        5        6       11 </v>
   <v type="int" >       12        2        5        5        6 </v>
   <v type="int" >       12        2        3        5        6 </v>
   <v type="int" >       12        3        5        6        6 </v>
   <v type="int" >       12        2        3        5       11 </v>
   <v type="int" >       12        3        5        6       11 </v>
   <v type="int" >       12        3        6       11       12 </v>
   <v type="int" >       12       17       18       18       19 </v>
   <v type="int" >       12       18       18       19       19 </v>
   <v type="int" >       12       18       19       19       20 </v>
   <v type="int" >       12        8        9       14       15 </v>
   <v type="int" >       12        9       14       15       15 </v>
   <v type="int" >       12        9       15       15       16 </v>
   <v type="int" >       12        8        9        9       15 </v>
   <v type="int" >       12        9        9       10       15 </v>
   <v type="int" >       12        9       10       15       16 </v>
   <v type="int" >       12       17       18       19       20 </v>
   <v type="int" >       12        8        9       15       16 </v>
   <v type="int" >       12        8       14       15       16 </v>
   <v type="int" >       12        8        9       10       16 </v>
   <v type="int" >       12        9       10       14       15 </v>
   <v type="int" >       12        8        9       10       14 </v>
   <v type="int" >       12       10       14       15       16 </v>
   <v type="int" >       12        3        6       12       13 </v>
   <v type="int" >       12        3        6        7       13 </v>
   <v type="int" >       12        3        4        7       13 </v>
   <v type="int" >       12        6        6        7       12 </v>
   <v type="int" >       12        3        6        6        7 </v>
   <v type="int" >       12        3        4        6        7 </v>
   <v type="int" >       12        6        7       12       13 </v>
   <v type="int" >       12        6        7        7       13 </v>
   <v type="int" >       12        4        6        7        7 </v>
   <v type="int" >       12        3        4        6       12 </v>
   <v type="int" >       12        4        6        7       12 </v>
   <v type="int" >       12        4        7       12       13 </v>
   <v type="int" >       12        2        5        5       11 </v>
   <v type="int" >       12        2        2        5        5 </v>
   <v type="int" >       12        1        2        2        5 </v>
   <v type="int" >       12        1        2        5       11 </v>
  </varray>
  <i name="volumeweight">      0.00077160 </i>
 </kpoints>
 <parameters>
  <separator name="general" >
   <i type="string" name="SYSTEM">unknown system</i>
   <i type="logical" name="LCOMPAT"> F  </i>
  </separator>
  <separator name="electronic" >
   <i type="string" name="PREC">accura</i>
   <i name="ENMAX">    680.00000000</i>
   <i name="ENAUG">   1360.00000000</i>
   <i name="EDIFF">      0.00000100</i>
   <i type="int" name="IALGO">    38</i>
   <i type="int" name="IWAVPR">    10</i>
   <i type="int" name="NBANDS">    48</i>
   <i type="int" name="NBANDSLOW">    -1</i>
   <i type="int" name="NBANDSHIGH">    -1</i>
   <i name="NELECT">     80.00000000</i>
   <i type="int" name="TURBO">     0</i>
   <i type="int" name="IRESTART">     0</i>
   <i type="int" name="NREBOOT">     0</i>
   <i type="int" name="NMIN">     0</i>
   <i name="EREF">      0.00000000</i>
   <separator name="electronic smearing" >
    <i type="int" name="ISMEAR">    -5</i>
    <i name="SIGMA">      0.05000000</i>
    <i name="KSPACING">      0.22000000</i>
    <i type="logical" name="KGAMMA"> T  </i>
    <i type="logical" name="KBLOWUP"> T  </i>
   </separator>
   <separator name="electronic projectors" >
    <i type="logical" name="LREAL"> F  </i>
    <v name="ROPT">      0.00000000      0.00000000</v>
    <i type="int" name="LMAXPAW">  -100</i>
    <i type="int" name="LMAXMIX">     6</i>
    <i type="logical" name="NLSPLINE"> F  </i>
   </separator>
   <separator name="electronic startup" >
    <i type="int" name="ISTART">     1</i>
    <i type="int" name="ICHARG">     0</i>
    <i type="int" name="INIWAV">     1</i>
   </separator>
   <separator name="electronic spin" >
    <i type="int" name="ISPIN">     2</i>
    <i type="logical" name="LNONCOLLINEAR"> F  </i>
    <v name="MAGMOM">     -0.00000000     -0.00000000     -0.00000000     -0.00000000     -0.00000000     -0.00000000     -0.00000000     -0.00000000     -0.00000000     -0.00000000</v>
    <i name="NUPDOWN">     -1.00000000</i>
    <i type="logical" name="LSORBIT"> F  </i>
    <v name="SAXIS">      0.00000000      0.00000000      1.00000000</v>
    <i type="logical" name="LSPIRAL"> F  </i>
    <v name="QSPIRAL">      0.00000000      0.00000000      0.00000000</v>
    <i type="logical" name="LZEROZ"> F  </i>
   </separator>
   <separator name="electronic exchange-correlation" >
    <i type="logical" name="LASPH"> T  </i>
    <i type="logical" name="LMETAGGA"> F  </i>
   </separator>
   <separator name="electronic convergence" >
    <i type="int" name="NELM">   200</i>
    <i type="int" name="NELMDL">    -6</i>
    <i type="int" name="NELMIN">     2</i>
    <i name="ENINI">    680.00000000</i>
    <separator name="electronic convergence detail" >
     <i type="logical" name="LDIAG"> T  </i>
     <i type="logical" name="LSUBROT"> F  </i>
     <i name="WEIMIN">      0.00000000</i>
     <i name="EBREAK">      0.00000001</i>
     <i name="DEPER">      0.30000000</i>
     <i type="int" name="NRMM">     4</i>
     <i name="TIME">      0.40000000</i>
    </separator>
   </separator>
   <separator name="electronic mixer" >
    <i name="AMIX">      0.40000000</i>
    <i name="BMIX">      0.00100000</i>
    <i name="AMIN">      0.10000000</i>
    <i name="AMIX_MAG">      0.80000000</i>
    <i name="BMIX_MAG">      0.00100000</i>
    <separator name="electronic mixer details" >
     <i type="int" name="IMIX">     4</i>
     <i type="logical" name="MIXFIRST"> F  </i>
     <i type="int" name="MAXMIX">   -45</i>
     <i name="WC">    100.00000000</i>
     <i type="int" name="INIMIX">     1</i>
     <i type="int" name="MIXPRE">     1</i>
     <i type="int" name="MREMOVE">     5</i>
    </separator>
   </separator>
   <separator name="electronic dipolcorrection" >
    <i type="logical" name="LDIPOL"> F  </i>
    <i type="logical" name="LMONO"> F  </i>
    <i type="int" name="IDIPOL">     0</i>
    <i name="EPSILON">      1.00000000</i>
    <v name="DIPOL">   -100.00000000   -100.00000000   -100.00000000</v>
    <i name="EFIELD">      0.00000000</i>
   </separator>
  </separator>
  <separator name="grids" >
   <i type="int" name="NGX">    48</i>
   <i type="int" name="NGY">    48</i>
   <i type="int" name="NGZ">    48</i>
   <i type="int" name="NGXF">    96</i>
   <i type="int" name="NGYF">    96</i>
   <i type="int" name="NGZF">    96</i>
   <i type="logical" name="ADDGRID"> F  </i>
  </separator>
  <separator name="ionic" >
   <i type="int" name="NSW">     0</i>
   <i type="int" name="IBRION">    -1</i>
   <i type="int" name="MDALGO">     0</i>
   <i type="int" name="ISIF">     2</i>
   <i name="PSTRESS">      0.00000000</i>
   <i name="EDIFFG">      0.00001000</i>
   <i type="int" name="NFREE">     0</i>
   <i name="POTIM">      0.50000000</i>
   <i name="SMASS">     -3.00000000</i>
   <i name="SCALEE">      1.00000000</i>
  </separator>
  <separator name="ionic md" >
   <i name="TEBEG">      0.00010000</i>
   <i name="TEEND">      0.00010000</i>
   <i type="int" name="NBLOCK">     1</i>
   <i type="int" name="KBLOCK">     1</i>
   <i type="int" name="NPACO">   256</i>
   <i name="APACO">     10.00000000</i>
  </separator>
  <separator name="symmetry" >
   <i type="int" name="ISYM">     2</i>
   <i name="SYMPREC">      0.00001000</i>
  </separator>
  <separator name="dos" >
   <i type="int" name="LORBIT">    11</i>
   <v name="RWIGS">     -1.00000000     -1.00000000</v>
   <i type="int" name="NEDOS">   301</i>
   <i name="EMIN">     10.00000000</i>
   <i name="EMAX">    -10.00000000</i>
   <i name="EFERMI">      0.00000000</i>
  </separator>
  <separator name="writing" >
   <i type="int" name="NWRITE">     2</i>
   <i type="logical" name="LWAVE"> F  </i>
   <i type="logical" name="LDOWNSAMPLE"> F  </i>
   <i type="logical" name="LCHARG"> F  </i>
   <i type="logical" name="LPARD"> F  </i>
   <i type="logical" name="LVTOT"> F  </i>
   <i type="logical" name="LVHAR"> F  </i>
   <i type="logical" name="LELF"> F  </i>
   <i type="logical" name="LOPTICS"> F  </i>
   <v name="STM">      0.00000000      0.00000000      0.00000000      0.00000000      0.00000000      0.00000000      0.00000000</v>
  </separator>
  <separator name="performance" >
   <i type="int" name="NPAR">     4</i>
   <i type="int" name="NSIM">     4</i>
   <i type="int" name="NBLK">    -1</i>
   <i type="logical" name="LPLANE"> T  </i>
   <i type="logical" name="LSCALAPACK"> T  </i>
   <i type="logical" name="LSCAAWARE"> F  </i>
   <i type="logical" name="LSCALU"> F  </i>
   <i type="logical" name="LASYNC"> F  </i>
   <i type="logical" name="LORBITALREAL"> F  </i>
  </separator>
  <separator name="miscellaneous" >
   <i type="int" name="IDIOT">     3</i>
   <i type="int" name="PHON_NSTRUCT">    -1</i>
   <i type="logical" name="LMUSIC"> F  </i>
   <v name="POMASS">     88.90600000     16.00000000</v>
   <v name="DARWINR">      0.00000000      0.00000000</v>
   <v name="DARWINV">      1.00000000      1.00000000</v>
   <i type="logical" name="LCORR"> T  </i>
  </separator>
  <i type="logical" name="GGA_COMPAT"> T  </i>
  <i type="logical" name="LBERRY"> F  </i>
  <i type="int" name="ICORELEVEL">     0</i>
  <i type="logical" name="LDAU"> F  </i>
  <i type="int" name="I_CONSTRAINED_M">     0</i>
  <separator name="electronic exchange-correlation" >
   <i type="string" name="GGA">--</i>
   <i type="int" name="VOSKOWN">     0</i>
   <i type="logical" name="LHFCALC"> F  </i>
   <i type="string" name="PRECFOCK"></i>
   <i type="logical" name="LSYMGRAD"> F  </i>
   <i type="logical" name="LHFONE"> F  </i>
   <i type="logical" name="LRHFCALC"> F  </i>
   <i type="logical" name="LTHOMAS"> F  </i>
   <i type="logical" name="LMODELHF"> F  </i>
   <i type="logical" name="LFOCKACE"> F  </i>
   <i name="ENCUT4O">     -1.00000000</i>
   <i type="int" name="EXXOEP">     0</i>
   <i type="int" name="FOURORBIT">     0</i>
   <i name="AEXX">      0.00000000</i>
   <i name="HFALPHA">      0.00000000</i>
   <i name="MCALPHA">      0.00000000</i>
   <i name="ALDAX">      1.00000000</i>
   <i name="AGGAX">      1.00000000</i>
   <i name="ALDAC">      1.00000000</i>
   <i name="AGGAC">      1.00000000</i>
   <i type="int" name="NKREDX">     1</i>
   <i type="int" name="NKREDY">     1</i>
   <i type="int" name="NKREDZ">     1</i>
   <i type="logical" name="SHIFTRED"> F  </i>
   <i type="logical" name="ODDONLY"> F  </i>
   <i type="logical" name="EVENONLY"> F  </i>
   <i type="int" name="LMAXFOCK">     0</i>
   <i type="int" name="NMAXFOCKAE">     0</i>
   <i type="logical" name="LFOCKAEDFT"> F  </i>
   <i name="HFSCREEN">      0.00000000</i>
   <i name="HFSCREENC">      0.00000000</i>
   <i type="int" name="NBANDSGWLOW">     0</i>
  </separator>
  <separator name="vdW DFT" >
   <i type="logical" name="LUSE_VDW"> F  </i>
   <i type="int" name="IVDW_NL">     1</i>
   <i type="logical" name="LSPIN_VDW"> F  </i>
   <i name="Zab_VDW">     -0.84910000</i>
   <i name="PARAM1">      0.12340000</i>
   <i name="PARAM2">      1.00000000</i>
   <i name="PARAM3">      0.00000000</i>
  </separator>
  <separator name="model GW" >
   <i type="int" name="MODEL_GW">     0</i>
   <i name="MODEL_EPS0">      8.98794734</i>
   <i name="MODEL_ALPHA">      1.00000000</i>
  </separator>
  <separator name="linear response parameters" >
   <i type="logical" name="LEPSILON"> F  </i>
   <i type="logical" name="LRPA"> F  </i>
   <i type="logical" name="LNABLA"> F  </i>
   <i type="logical" name="LVEL"> F  </i>
   <i name="CSHIFT">      0.10000000</i>
   <i name="OMEGAMAX">     -1.00000000</i>
   <i name="DEG_THRESHOLD">      0.00200000</i>
   <i name="RTIME">     -0.10000000</i>
   <i name="WPLASMAI">      0.00000000</i>
   <v name="DFIELD">      0.00000000      0.00000000      0.00000000</v>
   <v name="WPLASMA">      0.00000000      0.00000000      0.00000000      0.00000000      0.00000000      0.00000000      0.00000000      0.00000000      0.00000000</v>
  </separator>
  <separator name="orbital magnetization" >
   <i type="logical" name="NUCIND"> F  </i>
   <v name="MAGPOS">      0.00000000      0.00000000      0.00000000</v>
   <i type="logical" name="LNICSALL"> T  </i>
   <i type="logical" name="ORBITALMAG"> F  </i>
   <i type="logical" name="LMAGBLOCH"> F  </i>
   <i type="logical" name="LCHIMAG"> F  </i>
   <i type="logical" name="LGAUGE"> T  </i>
   <i type="int" name="MAGATOM">     0</i>
   <v name="MAGDIPOL">      0.00000000      0.00000000      0.00000000</v>
   <v name="AVECCONST">      0.00000000      0.00000000      0.00000000</v>
  </separator>
  <separator name="response functions" >
   <i type="logical" name="LALL_IN_ONE"> F  </i>
   <i type="int" name="IALL_IN_ONE">    -1</i>
   <i type="int" name="NBANDS_WAVE">    -1</i>
   <i type="logical" name="LFINITE_TEMPERATURE"> F  </i>
   <i type="logical" name="LADDER"> F  </i>
   <i type="logical" name="LRPAFORCE"> F  </i>
   <i type="logical" name="LFXC"> F  </i>
   <i type="logical" name="LHARTREE"> T  </i>
   <i type="int" name="IBSE">     0</i>
   <v type="int" name="KPOINT">    -1     0     0     0</v>
   <i type="logical" name="LTCTC"> F  </i>
   <i type="logical" name="LTCTE"> F  </i>
   <i type="logical" name="LTETE"> F  </i>
   <i type="logical" name="LTRIPLET"> F  </i>
   <i type="logical" name="LFXCEPS"> F  </i>
   <i type="logical" name="LFXHEG"> F  </i>
   <i type="int" name="NATURALO">     2</i>
   <i type="logical" name="LHOLEGF"> F  </i>
   <i type="logical" name="L2ORDER"> F  </i>
   <i type="logical" name="LDMP1"> F  </i>
   <i type="logical" name="LMP2LT"> F  </i>
   <i type="logical" name="LSMP2LT"> F  </i>
   <i type="logical" name="LGWLF"> F  </i>
   <i name="ENCUTGW">     -1.60000002</i>
   <i name="ENCUTGWSOFT">     -1.60000002</i>
   <i name="ENCUTLF">     -1.00000000</i>
   <i type="logical" name="LESF_SPLINES"> F  </i>
   <i type="int" name="LMAXMP2">    -1</i>
   <i name="SCISSOR">      0.00000000</i>
   <i type="int" name="NOMEGA">     0</i>
   <i type="int" name="NOMEGAR">     0</i>
   <i type="int" name="NBANDSGW">    -1</i>
   <i type="int" name="NBANDSO">    -1</i>
   <i type="int" name="NBANDSV">    -1</i>
   <i type="int" name="NELMGW">     1</i>
   <i type="int" name="NELMHF">     1</i>
   <i type="int" name="DIM">     3</i>
   <i type="int" name="IESPILON">     4</i>
   <i type="int" name="ANTIRES">     0</i>
   <i name="OMEGAMAX">    -30.00000000</i>
   <i name="OMEGAMIN">    -30.00000000</i>
   <i name="OMEGATL">   -200.00000000</i>
   <i type="int" name="OMEGAGRID">     0</i>
   <i name="CSHIFT">     -0.10000000</i>
   <i type="logical" name="LSELFENERGY"> F  </i>
   <i type="logical" name="LSPECTRAL"> F  </i>
   <i type="logical" name="LSPECTRALGW"> F  </i>
   <i type="logical" name="LSINGLES"> F  </i>
   <i type="logical" name="LFERMIGW"> F  </i>
   <i type="logical" name="ODDONLYGW"> F  </i>
   <i type="logical" name="EVENONLYGW"> F  </i>
   <i type="int" name="NKREDLFX">     1</i>
   <i type="int" name="NKREDLFY">     1</i>
   <i type="int" name="NKREDLFZ">     1</i>
   <i type="int" name="MAXMEM">  2800</i>
   <i type="int" name="TELESCOPE">     0</i>
   <i type="int" name="NTAUPAR">    -1</i>
   <i type="int" name="NOMEGAPAR">    -1</i>
   <i name="DAMP_NEWTON">      0.80000001</i>
   <i name="LAMBDA">      1.00000000</i>
  </separator>
  <separator name="External order field" >
   <i name="OFIELD_KAPPA">      0.00000000</i>
   <v name="OFIELD_K">      0.00000000      0.00000000      0.00000000</v>
   <i name="OFIELD_Q6_NEAR">      0.00000000</i>
   <i name="OFIELD_Q6_FAR">      0.00000000</i>
   <i name="OFIELD_A">      0.00000000</i>
  </separator>
  <separator name="optional k-points parameters" >
   <i type="int" name="KPOINTS_OPT_MODE">     1</i>
   <i type="logical" name="LKPOINTS_OPT"> F  </i>
  </separator>
 </parameters>
 <atominfo>
  <atoms>      10 </atoms>
  <types>       2 </types>
  <array name="atoms" >
   <dimension dim="1">ion</dimension>
   <field type="string">element</field>
   <field type="int">atomtype</field>
   <set>
    <rc><c>Y </c><c>   1</c></rc>
    <rc><c>Y </c><c>   1</c></rc>
    <rc><c>Y </c><c>   1</c></rc>
    <rc><c>Y </c><c>   1</c></rc>
    <rc><c>O </c><c>   2</c></rc>
    <rc><c>O </c><c>   2</c></rc>
    <rc><c>O </c><c>   2</c></rc>
    <rc><c>O </c><c>   2</c></rc>
    <rc><c>O </c><c>   2</c></rc>
    <rc><c>O </c><c>   2</c></rc>
   </set>
  </array>
  <array name="atomtypes" >
   <dimension dim="1">type</dimension>
   <field type="int">atomspertype</field>
   <field type="string">element</field>
   <field>mass</field>
   <field>valence</field>
   <field type="string">pseudopotential</field>
   <set>
    <rc><c>   4</c><c>Y </c><c>     88.90600000</c><c>     11.00000000</c><c> PAW_PBE Y_sv 06Sep2000                 </c></rc>
    <rc><c>   6</c><c>O </c><c>     16.00000000</c><c>      6.00000000</c><c> PAW_PBE O 08Apr2002                    </c></rc>
   </set>
  </array>
 </atominfo>
 <structure name="initialpos" >
  <crystal>
   <varray name="basis" >
    <v>       5.31091996       0.00000000       0.00000000 </v>
    <v>       0.00000000       5.31091996       0.00000000 </v>
    <v>       0.00000000       0.00000000       5.31091996 </v>
   </varray>
   <i name="volume">    149.79912240 </i>
   <varray name="rec_basis" >
    <v>       0.18829130       0.00000000       0.00000000 </v>
    <v>       0.00000000       0.18829130       0.00000000 </v>
    <v>       0.00000000       0.00000000       0.18829130 </v>
   </varray>
  </crystal>
  <varray name="positions" >
   <v>       0.25000000       0.25000000       0.75000000 </v>
   <v>       0.75000000       0.25000000       0.25000000 </v>
   <v>       0.25000000       0.75000000       0.25000000 </v>
   <v>       0.75000000       0.75000000       0.75000000 </v>
   <v>       0.50000000       0.00000000       0.50000000 </v>
   <v>       0.50000000       0.50000000       0.00000000 </v>
   <v>       0.00000000       0.50000000       0.00000000 </v>
   <v>       0.00000000       0.50000000       0.50000000 </v>
   <v>       0.50000000       0.00000000       0.00000000 </v>
   <v>       0.00000000       0.00000000       0.50000000 </v>
  </varray>
 </structure>
 <calculation>
  <scstep>
   <time name="dav">    0.59    0.59</time>
   <time name="total">    1.17    1.17</time>
   <energy>
    <i name="alphaZ">    506.26248530 </i>
    <i name="ewald">  -5332.38477838 </i>
    <i name="hartreedc">  -1575.56125079 </i>
    <i name="XCdc">    342.97338553 </i>
    <i name="pawpsdc">   4514.81674573 </i>
    <i name="pawaedc">  -4447.63767778 </i>
    <i name="eentropy">      0.00000000 </i>
    <i name="bandstr">   -873.87048161 </i>
    <i name="atom">   6779.11077867 </i>
    <i name="e_fr_energy">    -86.29079334 </i>
    <i name="e_wo_entrp">    -86.29079334 </i>
    <i name="e_0_energy">    -86.29079334 </i>
   </energy>
  </scstep>
  <scstep>
   <time name="dav">    0.45    0.46</time>
   <time name="total">    0.49    0.51</time>
   <energy>
    <i name="e_fr_energy">    -86.29079340 </i>
    <i name="e_wo_entrp">    -86.29079340 </i>
    <i name="e_0_energy">    -86.29079340 </i>
   </energy>
  </scstep>
  <scstep>
   <time name="dav">    0.42    0.44</time>
   <time name="total">    0.47    0.48</time>
   <energy>
    <i name="e_fr_energy">    -86.29079341 </i>
    <i name="e_wo_entrp">    -86.29079341 </i>
    <i name="e_0_energy">    -86.29079341 </i>
   </energy>
  </scstep>
  <scstep>
   <time name="dav">    0.42    0.44</time>
   <time name="total">    0.47    0.48</time>
   <energy>
    <i name="e_fr_energy">    -86.29079342 </i>
    <i name="e_wo_entrp">    -86.29079342 </i>
    <i name="e_0_energy">    -86.29079342 </i>
   </energy>
  </scstep>
  <scstep>
   <time name="dav">    0.41    0.43</time>
   <time name="total">    0.46    0.47</time>
   <energy>
    <i name="e_fr_energy">    -86.29079342 </i>
    <i name="e_wo_entrp">    -86.29079342 </i>
    <i name="e_0_energy">    -86.29079342 </i>
   </energy>
  </scstep>
  <scstep>
   <time name="dav">    0.41    0.42</time>
   <time name="total">    0.51    0.53</time>
   <energy>
    <i name="e_fr_energy">    -86.29079342 </i>
    <i name="e_wo_entrp">    -86.29079342 </i>
    <i name="e_0_energy">    -86.29079342 </i>
   </energy>
  </scstep>
  <scstep>
   <time name="dav">    0.53    0.53</time>
   <time name="total">    1.20    1.21</time>
   <energy>
    <i name="e_fr_energy">    -86.29271994 </i>
    <i name="e_wo_entrp">    -86.29271994 </i>
    <i name="e_0_energy">    -86.29271994 </i>
   </energy>
  </scstep>
  <scstep>
   <time name="dav">    0.52    0.52</time>
   <time name="total">    1.18    1.19</time>
   <energy>
    <i name="e_fr_energy">    -86.29130100 </i>
    <i name="e_wo_entrp">    -86.29130100 </i>
    <i name="e_0_energy">    -86.29130100 </i>
   </energy>
  </scstep>
  <scstep>
   <time name="dav">    0.53    0.53</time>
   <time name="total">    1.23    1.24</time>
   <energy>
    <i name="e_fr_energy">    -86.29174672 </i>
    <i name="e_wo_entrp">    -86.29174672 </i>
    <i name="e_0_energy">    -86.29174672 </i>
   </energy>
  </scstep>
  <scstep>
   <time name="dav">    0.53    0.53</time>
   <time name="total">    1.19    1.20</time>
   <energy>
    <i name="e_fr_energy">    -86.29128441 </i>
    <i name="e_wo_entrp">    -86.29128441 </i>
    <i name="e_0_energy">    -86.29128441 </i>
   </energy>
  </scstep>
  <scstep>
   <time name="dav">    0.52    0.52</time>
   <time name="total">    1.19    1.20</time>
   <energy>
    <i name="e_fr_energy">    -86.29143417 </i>
    <i name="e_wo_entrp">    -86.29143417 </i>
    <i name="e_0_energy">    -86.29143417 </i>
   </energy>
  </scstep>
  <scstep>
   <time name="dav">    0.49    0.49</time>
   <time name="total">    1.16    1.17</time>
   <energy>
    <i name="e_fr_energy">    -86.29149761 </i>
    <i name="e_wo_entrp">    -86.29149761 </i>
    <i name="e_0_energy">    -86.29149761 </i>
   </energy>
  </scstep>
  <scstep>
   <time name="dav">    0.57    0.57</time>
   <time name="total">    1.24    1.25</time>
   <energy>
    <i name="e_fr_energy">    -86.29164771 </i>
    <i name="e_wo_entrp">    -86.29164771 </i>
    <i name="e_0_energy">    -86.29164771 </i>
   </energy>
  </scstep>
  <scstep>
   <time name="dav">    0.53    0.53</time>
   <time name="total">    1.20    1.21</time>
   <energy>
    <i name="e_fr_energy">    -86.29133653 </i>
    <i name="e_wo_entrp">    -86.29133653 </i>
    <i name="e_0_energy">    -86.29133653 </i>
   </energy>
  </scstep>
  <scstep>
   <time name="dav">    0.49    0.49</time>
   <time name="total">    1.15    1.16</time>
   <energy>
    <i name="e_fr_energy">    -86.29144645 </i>
    <i name="e_wo_entrp">    -86.29144645 </i>
    <i name="e_0_energy">    -86.29144645 </i>
   </energy>
  </scstep>
  <scstep>
   <time name="dav">    0.44    0.44</time>
   <time name="total">    1.10    1.11</time>
   <energy>
    <i name="e_fr_energy">    -86.29148498 </i>
    <i name="e_wo_entrp">    -86.29148498 </i>
    <i name="e_0_energy">    -86.29148498 </i>
   </energy>
  </scstep>
  <scstep>
   <time name="dav">    0.41    0.41</time>
   <time name="total">    1.07    1.09</time>
   <energy>
    <i name="e_fr_energy">    -86.29152536 </i>
    <i name="e_wo_entrp">    -86.29152536 </i>
    <i name="e_0_energy">    -86.29152536 </i>
   </energy>
  </scstep>
  <scstep>
   <time name="dav">    0.55    0.55</time>
   <time name="total">    1.24    1.26</time>
   <energy>
    <i name="e_fr_energy">    -86.29172037 </i>
    <i name="e_wo_entrp">    -86.29172037 </i>
    <i name="e_0_energy">    -86.29172037 </i>
   </energy>
  </scstep>
  <scstep>
   <time name="dav">    0.53    0.53</time>
   <time name="total">    1.19    1.21</time>
   <energy>
    <i name="e_fr_energy">    -86.29109828 </i>
    <i name="e_wo_entrp">    -86.29109828 </i>
    <i name="e_0_energy">    -86.29109828 </i>
   </energy>
  </scstep>
  <scstep>
   <time name="dav">    0.53    0.53</time>
   <time name="total">    1.19    1.21</time>
   <energy>
    <i name="e_fr_energy">    -86.29144151 </i>
    <i name="e_wo_entrp">    -86.29144151 </i>
    <i name="e_0_energy">    -86.29144151 </i>
   </energy>
  </scstep>
  <scstep>
   <time name="dav">    0.59    0.59</time>
   <time name="total">    1.26    1.27</time>
   <energy>
    <i name="e_fr_energy">    -86.29167295 </i>
    <i name="e_wo_entrp">    -86.29167295 </i>
    <i name="e_0_energy">    -86.29167295 </i>
   </energy>
  </scstep>
  <scstep>
   <time name="dav">    0.53    0.53</time>
   <time name="total">    1.20    1.21</time>
   <energy>
    <i name="e_fr_energy">    -86.29101405 </i>
    <i name="e_wo_entrp">    -86.29101405 </i>
    <i name="e_0_energy">    -86.29101405 </i>
   </energy>
  </scstep>
  <scstep>
   <time name="dav">    0.53    0.53</time>
   <time name="total">    1.20    1.21</time>
   <energy>
    <i name="e_fr_energy">    -86.29141278 </i>
    <i name="e_wo_entrp">    -86.29141278 </i>
    <i name="e_0_energy">    -86.29141278 </i>
   </energy>
  </scstep>
  <scstep>
   <time name="dav">    0.60    0.60</time>
   <time name="total">    1.26    1.28</time>
   <energy>
    <i name="e_fr_energy">    -86.29165003 </i>
    <i name="e_wo_entrp">    -86.29165003 </i>
    <i name="e_0_energy">    -86.29165003 </i>
   </energy>
  </scstep>
  <scstep>
   <time name="dav">    0.53    0.53</time>
   <time name="total">    1.20    1.21</time>
   <energy>
    <i name="e_fr_energy">    -86.29099377 </i>
    <i name="e_wo_entrp">    -86.29099377 </i>
    <i name="e_0_energy">    -86.29099377 </i>
   </energy>
  </scstep>
  <scstep>
   <time name="dav">    0.53    0.53</time>
   <time name="total">    1.19    1.21</time>
   <energy>
    <i name="e_fr_energy">    -86.29141536 </i>
    <i name="e_wo_entrp">    -86.29141536 </i>
    <i name="e_0_energy">    -86.29141536 </i>
   </energy>
  </scstep>
  <scstep>
   <time name="dav">    0.60    0.60</time>
   <time name="total">    1.27    1.28</time>
   <energy>
    <i name="e_fr_energy">    -86.29164234 </i>
    <i name="e_wo_entrp">    -86.29164234 </i>
    <i name="e_0_energy">    -86.29164234 </i>
   </energy>
  </scstep>
  <scstep>
   <time name="dav">    0.53    0.53</time>
   <time name="total">    1.20    1.21</time>
   <energy>
    <i name="e_fr_energy">    -86.29100069 </i>
    <i name="e_wo_entrp">    -86.29100069 </i>
    <i name="e_0_energy">    -86.29100069 </i>
   </energy>
  </scstep>
  <scstep>
   <time name="dav">    0.53    0.53</time>
   <time name="total">    1.19    1.21</time>
   <energy>
    <i name="e_fr_energy">    -86.29142808 </i>
    <i name="e_wo_entrp">    -86.29142808 </i>
    <i name="e_0_energy">    -86.29142808 </i>
   </energy>
  </scstep>
  <scstep>
   <time name="dav">    0.61    0.61</time>
   <time name="total">    1.28    1.29</time>
   <energy>
    <i name="e_fr_energy">    -86.29163857 </i>
    <i name="e_wo_entrp">    -86.29163857 </i>
    <i name="e_0_energy">    -86.29163857 </i>
   </energy>
  </scstep>
  <scstep>
   <time name="dav">    0.53    0.53</time>
   <time name="total">    1.20    1.21</time>
   <energy>
    <i name="e_fr_energy">    -86.29101385 </i>
    <i name="e_wo_entrp">    -86.29101385 </i>
    <i name="e_0_energy">    -86.29101385 </i>
   </energy>
  </scstep>
  <scstep>
   <time name="dav">    0.53    0.53</time>
   <time name="total">    1.20    1.21</time>
   <energy>
    <i name="e_fr_energy">    -86.29143714 </i>
    <i name="e_wo_entrp">    -86.29143714 </i>
    <i name="e_0_energy">    -86.29143714 </i>
   </energy>
  </scstep>
  <scstep>
   <time name="dav">    0.61    0.61</time>
   <time name="total">    1.27    1.28</time>
   <energy>
    <i name="e_fr_energy">    -86.29163494 </i>
    <i name="e_wo_entrp">    -86.29163494 </i>
    <i name="e_0_energy">    -86.29163494 </i>
   </energy>
  </scstep>
  <scstep>
   <time name="dav">    0.53    0.53</time>
   <time name="total">    1.19    1.21</time>
   <energy>
    <i name="e_fr_energy">    -86.29102602 </i>
    <i name="e_wo_entrp">    -86.29102602 </i>
    <i name="e_0_energy">    -86.29102602 </i>
   </energy>
  </scstep>
  <scstep>
   <time name="dav">    0.53    0.53</time>
   <time name="total">    1.20    1.21</time>
   <energy>
    <i name="e_fr_energy">    -86.29144202 </i>
    <i name="e_wo_entrp">    -86.29144202 </i>
    <i name="e_0_energy">    -86.29144202 </i>
   </energy>
  </scstep>
  <scstep>
   <time name="dav">    0.61    0.61</time>
   <time name="total">    1.28    1.29</time>
   <energy>
    <i name="e_fr_energy">    -86.29162553 </i>
    <i name="e_wo_entrp">    -86.29162553 </i>
    <i name="e_0_energy">    -86.29162553 </i>
   </energy>
  </scstep>
  <scstep>
   <time name="dav">    0.57    0.57</time>
   <time name="total">    1.24    1.26</time>
   <energy>
    <i name="e_fr_energy">    -86.29171145 </i>
    <i name="e_wo_entrp">    -86.29171145 </i>
    <i name="e_0_energy">    -86.29171145 </i>
   </energy>
  </scstep>
  <scstep>
   <time name="dav">    0.53    0.53</time>
   <time name="total">    1.20    1.21</time>
   <energy>
    <i name="e_fr_energy">    -86.29106016 </i>
    <i name="e_wo_entrp">    -86.29106016 </i>
    <i name="e_0_energy">    -86.29106016 </i>
   </energy>
  </scstep>
  <scstep>
   <time name="dav">    0.53    0.53</time>
   <time name="total">    1.20    1.21</time>
   <energy>
    <i name="e_fr_energy">    -86.29152524 </i>
    <i name="e_wo_entrp">    -86.29152524 </i>
    <i name="e_0_energy">    -86.29152524 </i>
   </energy>
  </scstep>
  <scstep>
   <time name="dav">    0.61    0.61</time>
   <time name="total">    1.28    1.28</time>
   <energy>
    <i name="e_fr_energy">    -86.29166339 </i>
    <i name="e_wo_entrp">    -86.29166339 </i>
    <i name="e_0_energy">    -86.29166339 </i>
   </energy>
  </scstep>
  <scstep>
   <time name="dav">    0.53    0.53</time>
   <time name="total">    1.19    1.21</time>
   <energy>
    <i name="e_fr_energy">    -86.29101192 </i>
    <i name="e_wo_entrp">    -86.29101192 </i>
    <i name="e_0_energy">    -86.29101192 </i>
   </energy>
  </scstep>
  <scstep>
   <time name="dav">    0.53    0.53</time>
   <time name="total">    1.20    1.21</time>
   <energy>
    <i name="e_fr_energy">    -86.29148022 </i>
    <i name="e_wo_entrp">    -86.29148022 </i>
    <i name="e_0_energy">    -86.29148022 </i>
   </energy>
  </scstep>
  <scstep>
   <time name="dav">    0.61    0.61</time>
   <time name="total">    1.28    1.29</time>
   <energy>
    <i name="e_fr_energy">    -86.29164704 </i>
    <i name="e_wo_entrp">    -86.29164704 </i>
    <i name="e_0_energy">    -86.29164704 </i>
   </energy>
  </scstep>
  <scstep>
   <time name="dav">    0.53    0.53</time>
   <time name="total">    1.21    1.21</time>
   <energy>
    <i name="e_fr_energy">    -86.29100575 </i>
    <i name="e_wo_entrp">    -86.29100575 </i>
    <i name="e_0_energy">    -86.29100575 </i>
   </energy>
  </scstep>
  <scstep>
   <time name="dav">    0.53    0.53</time>
   <time name="total">    1.19    1.21</time>
   <energy>
    <i name="e_fr_energy">    -86.29146976 </i>
    <i name="e_wo_entrp">    -86.29146976 </i>
    <i name="e_0_energy">    -86.29146976 </i>
   </energy>
  </scstep>
  <scstep>
   <time name="dav">    0.61    0.61</time>
   <time name="total">    1.27    1.29</time>
   <energy>
    <i name="e_fr_energy">    -86.29163921 </i>
    <i name="e_wo_entrp">    -86.29163921 </i>
    <i name="e_0_energy">    -86.29163921 </i>
   </energy>
  </scstep>
  <scstep>
   <time name="dav">    0.53    0.53</time>
   <time name="total">    1.20    1.21</time>
   <energy>
    <i name="e_fr_energy">    -86.29101037 </i>
    <i name="e_wo_entrp">    -86.29101037 </i>
    <i name="e_0_energy">    -86.29101037 </i>
   </energy>
  </scstep>
  <scstep>
   <time name="dav">    0.53    0.53</time>
   <time name="total">    1.20    1.21</time>
   <energy>
    <i name="e_fr_energy">    -86.29146349 </i>
    <i name="e_wo_entrp">    -86.29146349 </i>
    <i name="e_0_energy">    -86.29146349 </i>
   </energy>
  </scstep>
  <scstep>
   <time name="dav">    0.61    0.61</time>
   <time name="total">    1.27    1.29</time>
   <energy>
    <i name="e_fr_energy">    -86.29163372 </i>
    <i name="e_wo_entrp">    -86.29163372 </i>
    <i name="e_0_energy">    -86.29163372 </i>
   </energy>
  </scstep>
  <scstep>
   <time name="dav">    0.59    0.59</time>
   <time name="total">    1.26    1.27</time>
   <energy>
    <i name="e_fr_energy">    -86.29169534 </i>
    <i name="e_wo_entrp">    -86.29169534 </i>
    <i name="e_0_energy">    -86.29169534 </i>
   </energy>
  </scstep>
  <scstep>
   <time name="dav">    0.53    0.53</time>
   <time name="total">    1.20    1.21</time>
   <energy>
    <i name="e_fr_energy">    -86.29106988 </i>
    <i name="e_wo_entrp">    -86.29106988 </i>
    <i name="e_0_energy">    -86.29106988 </i>
   </energy>
  </scstep>
  <scstep>
   <time name="dav">    0.53    0.53</time>
   <time name="total">    1.20    1.21</time>
   <energy>
    <i name="e_fr_energy">    -86.29150158 </i>
    <i name="e_wo_entrp">    -86.29150158 </i>
    <i name="e_0_energy">    -86.29150158 </i>
   </energy>
  </scstep>
  <scstep>
   <time name="dav">    0.61    0.61</time>
   <time name="total">    1.27    1.29</time>
   <energy>
    <i name="e_fr_energy">    -86.29164478 </i>
    <i name="e_wo_entrp">    -86.29164478 </i>
    <i name="e_0_energy">    -86.29164478 </i>
   </energy>
  </scstep>
  <scstep>
   <time name="dav">    0.53    0.53</time>
   <time name="total">    1.20    1.21</time>
   <energy>
    <i name="e_fr_energy">    -86.29102227 </i>
    <i name="e_wo_entrp">    -86.29102227 </i>
    <i name="e_0_energy">    -86.29102227 </i>
   </energy>
  </scstep>
  <scstep>
   <time name="dav">    0.53    0.53</time>
   <time name="total">    1.19    1.20</time>
   <energy>
    <i name="e_fr_energy">    -86.29148072 </i>
    <i name="e_wo_entrp">    -86.29148072 </i>
    <i name="e_0_energy">    -86.29148072 </i>
   </energy>
  </scstep>
  <scstep>
   <time name="dav">    0.61    0.61</time>
   <time name="total">    1.28    1.29</time>
   <energy>
    <i name="e_fr_energy">    -86.29164678 </i>
    <i name="e_wo_entrp">    -86.29164678 </i>
    <i name="e_0_energy">    -86.29164678 </i>
   </energy>
  </scstep>
  <scstep>
   <time name="dav">    0.53    0.53</time>
   <time name="total">    1.20    1.21</time>
   <energy>
    <i name="e_fr_energy">    -86.29131051 </i>
    <i name="e_wo_entrp">    -86.29131051 </i>
    <i name="e_0_energy">    -86.29131051 </i>
   </energy>
  </scstep>
  <scstep>
   <time name="dav">    0.51    0.51</time>
   <time name="total">    1.21    1.22</time>
   <energy>
    <i name="e_fr_energy">    -86.29142985 </i>
    <i name="e_wo_entrp">    -86.29142985 </i>
    <i name="e_0_energy">    -86.29142985 </i>
   </energy>
  </scstep>
  <scstep>
   <time name="dav">    0.50    0.50</time>
   <time name="total">    1.17    1.18</time>
   <energy>
    <i name="e_fr_energy">    -86.29149841 </i>
    <i name="e_wo_entrp">    -86.29149841 </i>
    <i name="e_0_energy">    -86.29149841 </i>
   </energy>
  </scstep>
  <scstep>
   <time name="dav">    0.55    0.55</time>
   <time name="total">    1.22    1.23</time>
   <energy>
    <i name="e_fr_energy">    -86.29165389 </i>
    <i name="e_wo_entrp">    -86.29165389 </i>
    <i name="e_0_energy">    -86.29165389 </i>
   </energy>
  </scstep>
  <scstep>
   <time name="dav">    0.53    0.53</time>
   <time name="total">    1.20    1.21</time>
   <energy>
    <i name="e_fr_energy">    -86.29114766 </i>
    <i name="e_wo_entrp">    -86.29114766 </i>
    <i name="e_0_energy">    -86.29114766 </i>
   </energy>
  </scstep>
  <scstep>
   <time name="dav">    0.53    0.53</time>
   <time name="total">    1.20    1.21</time>
   <energy>
    <i name="e_fr_energy">    -86.29144444 </i>
    <i name="e_wo_entrp">    -86.29144444 </i>
    <i name="e_0_energy">    -86.29144444 </i>
   </energy>
  </scstep>
  <scstep>
   <time name="dav">    0.60    0.60</time>
   <time name="total">    1.26    1.28</time>
   <energy>
    <i name="e_fr_energy">    -86.29159848 </i>
    <i name="e_wo_entrp">    -86.29159848 </i>
    <i name="e_0_energy">    -86.29159848 </i>
   </energy>
  </scstep>
  <scstep>
   <time name="dav">    0.59    0.59</time>
   <time name="total">    1.26    1.27</time>
   <energy>
    <i name="e_fr_energy">    -86.29166343 </i>
    <i name="e_wo_entrp">    -86.29166343 </i>
    <i name="e_0_energy">    -86.29166343 </i>
   </energy>
  </scstep>
  <scstep>
   <time name="dav">    0.53    0.53</time>
   <time name="total">    1.21    1.22</time>
   <energy>
    <i name="e_fr_energy">    -86.29123251 </i>
    <i name="e_wo_entrp">    -86.29123251 </i>
    <i name="e_0_energy">    -86.29123251 </i>
   </energy>
  </scstep>
  <scstep>
   <time name="dav">    0.52    0.52</time>
   <time name="total">    1.18    1.20</time>
   <energy>
    <i name="e_fr_energy">    -86.29145631 </i>
    <i name="e_wo_entrp">    -86.29145631 </i>
    <i name="e_0_energy">    -86.29145631 </i>
   </energy>
  </scstep>
  <scstep>
   <time name="dav">    0.59    0.59</time>
   <time name="total">    1.26    1.27</time>
   <energy>
    <i name="e_fr_energy">    -86.29160558 </i>
    <i name="e_wo_entrp">    -86.29160558 </i>
    <i name="e_0_energy">    -86.29160558 </i>
   </energy>
  </scstep>
  <scstep>
   <time name="dav">    0.58    0.58</time>
   <time name="total">    1.25    1.27</time>
   <energy>
    <i name="e_fr_energy">    -86.29166537 </i>
    <i name="e_wo_entrp">    -86.29166537 </i>
    <i name="e_0_energy">    -86.29166537 </i>
   </energy>
  </scstep>
  <scstep>
   <time name="dav">    0.53    0.53</time>
   <time name="total">    1.20    1.22</time>
   <energy>
    <i name="e_fr_energy">    -86.29122119 </i>
    <i name="e_wo_entrp">    -86.29122119 </i>
    <i name="e_0_energy">    -86.29122119 </i>
   </energy>
  </scstep>
  <scstep>
   <time name="dav">    0.53    0.53</time>
   <time name="total">    1.20    1.21</time>
   <energy>
    <i name="e_fr_energy">    -86.29146775 </i>
    <i name="e_wo_entrp">    -86.29146775 </i>
    <i name="e_0_energy">    -86.29146775 </i>
   </energy>
  </scstep>
  <scstep>
   <time name="dav">    0.59    0.59</time>
   <time name="total">    1.26    1.27</time>
   <energy>
    <i name="e_fr_energy">    -86.29162636 </i>
    <i name="e_wo_entrp">    -86.29162636 </i>
    <i name="e_0_energy">    -86.29162636 </i>
   </energy>
  </scstep>
  <scstep>
   <time name="dav">    0.59    0.59</time>
   <time name="total">    1.25    1.27</time>
   <energy>
    <i name="e_fr_energy">    -86.29168293 </i>
    <i name="e_wo_entrp">    -86.29168293 </i>
    <i name="e_0_energy">    -86.29168293 </i>
   </energy>
  </scstep>
  <scstep>
   <time name="dav">    0.53    0.53</time>
   <time name="total">    1.20    1.21</time>
   <energy>
    <i name="e_fr_energy">    -86.29118297 </i>
    <i name="e_wo_entrp">    -86.29118297 </i>
    <i name="e_0_energy">    -86.29118297 </i>
   </energy>
  </scstep>
  <scstep>
   <time name="dav">    0.52    0.52</time>
   <time name="total">    1.19    1.21</time>
   <energy>
    <i name="e_fr_energy">    -86.29147034 </i>
    <i name="e_wo_entrp">    -86.29147034 </i>
    <i name="e_0_energy">    -86.29147034 </i>
   </energy>
  </scstep>
  <scstep>
   <time name="dav">    0.59    0.59</time>
   <time name="total">    1.26    1.27</time>
   <energy>
    <i name="e_fr_energy">    -86.29164263 </i>
    <i name="e_wo_entrp">    -86.29164263 </i>
    <i name="e_0_energy">    -86.29164263 </i>
   </energy>
  </scstep>
  <scstep>
   <time name="dav">    0.53    0.53</time>
   <time name="total">    1.20    1.21</time>
   <energy>
    <i name="e_fr_energy">    -86.29103499 </i>
    <i name="e_wo_entrp">    -86.29103499 </i>
    <i name="e_0_energy">    -86.29103499 </i>
   </energy>
  </scstep>
  <scstep>
   <time name="dav">    0.53    0.53</time>
   <time name="total">    1.20    1.21</time>
   <energy>
    <i name="e_fr_energy">    -86.29136288 </i>
    <i name="e_wo_entrp">    -86.29136288 </i>
    <i name="e_0_energy">    -86.29136288 </i>
   </energy>
  </scstep>
  <scstep>
   <time name="dav">    0.61    0.61</time>
   <time name="total">    1.28    1.29</time>
   <energy>
    <i name="e_fr_energy">    -86.29156904 </i>
    <i name="e_wo_entrp">    -86.29156904 </i>
    <i name="e_0_energy">    -86.29156904 </i>
   </energy>
  </scstep>
  <scstep>
   <time name="dav">    0.59    0.59</time>
   <time name="total">    1.26    1.27</time>
   <energy>
    <i name="e_fr_energy">    -86.29167284 </i>
    <i name="e_wo_entrp">    -86.29167284 </i>
    <i name="e_0_energy">    -86.29167284 </i>
   </energy>
  </scstep>
  <scstep>
   <time name="dav">    0.53    0.53</time>
   <time name="total">    1.20    1.21</time>
   <energy>
    <i name="e_fr_energy">    -86.29114599 </i>
    <i name="e_wo_entrp">    -86.29114599 </i>
    <i name="e_0_energy">    -86.29114599 </i>
   </energy>
  </scstep>
  <scstep>
   <time name="dav">    0.53    0.53</time>
   <time name="total">    1.20    1.21</time>
   <energy>
    <i name="e_fr_energy">    -86.29150185 </i>
    <i name="e_wo_entrp">    -86.29150185 </i>
    <i name="e_0_energy">    -86.29150185 </i>
   </energy>
  </scstep>
  <scstep>
   <time name="dav">    0.60    0.60</time>
   <time name="total">    1.27    1.28</time>
   <energy>
    <i name="e_fr_energy">    -86.29167536 </i>
    <i name="e_wo_entrp">    -86.29167536 </i>
    <i name="e_0_energy">    -86.29167536 </i>
   </energy>
  </scstep>
  <scstep>
   <time name="dav">    0.53    0.53</time>
   <time name="total">    1.20    1.21</time>
   <energy>
    <i name="e_fr_energy">    -86.29101618 </i>
    <i name="e_wo_entrp">    -86.29101618 </i>
    <i name="e_0_energy">    -86.29101618 </i>
   </energy>
  </scstep>
  <scstep>
   <time name="dav">    0.53    0.53</time>
   <time name="total">    1.20    1.21</time>
   <energy>
    <i name="e_fr_energy">    -86.29143693 </i>
    <i name="e_wo_entrp">    -86.29143693 </i>
    <i name="e_0_energy">    -86.29143693 </i>
   </energy>
  </scstep>
  <scstep>
   <time name="dav">    0.60    0.60</time>
   <time name="total">    1.26    1.28</time>
   <energy>
    <i name="e_fr_energy">    -86.29165214 </i>
    <i name="e_wo_entrp">    -86.29165214 </i>
    <i name="e_0_energy">    -86.29165214 </i>
   </energy>
  </scstep>
  <scstep>
   <time name="dav">    0.54    0.54</time>
   <time name="total">    1.21    1.22</time>
   <energy>
    <i name="e_fr_energy">    -86.29099472 </i>
    <i name="e_wo_entrp">    -86.29099472 </i>
    <i name="e_0_energy">    -86.29099472 </i>
   </energy>
  </scstep>
  <scstep>
   <time name="dav">    0.53    0.53</time>
   <time name="total">    1.20    1.21</time>
   <energy>
    <i name="e_fr_energy">    -86.29147442 </i>
    <i name="e_wo_entrp">    -86.29147442 </i>
    <i name="e_0_energy">    -86.29147442 </i>
   </energy>
  </scstep>
  <scstep>
   <time name="dav">    0.61    0.61</time>
   <time name="total">    1.28    1.29</time>
   <energy>
    <i name="e_fr_energy">    -86.29167070 </i>
    <i name="e_wo_entrp">    -86.29167070 </i>
    <i name="e_0_energy">    -86.29167070 </i>
   </energy>
  </scstep>
  <scstep>
   <time name="dav">    0.53    0.53</time>
   <time name="total">    1.20    1.21</time>
   <energy>
    <i name="e_fr_energy">    -86.29099302 </i>
    <i name="e_wo_entrp">    -86.29099302 </i>
    <i name="e_0_energy">    -86.29099302 </i>
   </energy>
  </scstep>
  <scstep>
   <time name="dav">    0.53    0.53</time>
   <time name="total">    1.20    1.21</time>
   <energy>
    <i name="e_fr_energy">    -86.29146753 </i>
    <i name="e_wo_entrp">    -86.29146753 </i>
    <i name="e_0_energy">    -86.29146753 </i>
   </energy>
  </scstep>
  <scstep>
   <time name="dav">    0.60    0.60</time>
   <time name="total">    1.27    1.28</time>
   <energy>
    <i name="e_fr_energy">    -86.29165826 </i>
    <i name="e_wo_entrp">    -86.29165826 </i>
    <i name="e_0_energy">    -86.29165826 </i>
   </energy>
  </scstep>
  <scstep>
   <time name="dav">    0.53    0.53</time>
   <time name="total">    1.20    1.21</time>
   <energy>
    <i name="e_fr_energy">    -86.29097494 </i>
    <i name="e_wo_entrp">    -86.29097494 </i>
    <i name="e_0_energy">    -86.29097494 </i>
   </energy>
  </scstep>
  <scstep>
   <time name="dav">    0.53    0.53</time>
   <time name="total">    1.20    1.21</time>
   <energy>
    <i name="e_fr_energy">    -86.29145282 </i>
    <i name="e_wo_entrp">    -86.29145282 </i>
    <i name="e_0_energy">    -86.29145282 </i>
   </energy>
  </scstep>
  <scstep>
   <time name="dav">    0.62    0.62</time>
   <time name="total">    1.29    1.30</time>
   <energy>
    <i name="e_fr_energy">    -86.29164708 </i>
    <i name="e_wo_entrp">    -86.29164708 </i>
    <i name="e_0_energy">    -86.29164708 </i>
   </energy>
  </scstep>
  <scstep>
   <time name="dav">    0.53    0.53</time>
   <time name="total">    1.21    1.21</time>
   <energy>
    <i name="e_fr_energy">    -86.29097895 </i>
    <i name="e_wo_entrp">    -86.29097895 </i>
    <i name="e_0_energy">    -86.29097895 </i>
   </energy>
  </scstep>
  <scstep>
   <time name="dav">    0.53    0.53</time>
   <time name="total">    1.19    1.21</time>
   <energy>
    <i name="e_fr_energy">    -86.29145965 </i>
    <i name="e_wo_entrp">    -86.29145965 </i>
    <i name="e_0_energy">    -86.29145965 </i>
   </energy>
  </scstep>
  <scstep>
   <time name="dav">    0.61    0.61</time>
   <time name="total">    1.28    1.29</time>
   <energy>
    <i name="e_fr_energy">    -86.29165216 </i>
    <i name="e_wo_entrp">    -86.29165216 </i>
    <i name="e_0_energy">    -86.29165216 </i>
   </energy>
  </scstep>
  <scstep>
   <time name="dav">    0.53    0.53</time>
   <time name="total">    1.20    1.21</time>
   <energy>
    <i name="e_fr_energy">    -86.29095901 </i>
    <i name="e_wo_entrp">    -86.29095901 </i>
    <i name="e_0_energy">    -86.29095901 </i>
   </energy>
  </scstep>
  <scstep>
   <time name="dav">    0.53    0.53</time>
   <time name="total">    1.20    1.21</time>
   <energy>
    <i name="e_fr_energy">    -86.29146244 </i>
    <i name="e_wo_entrp">    -86.29146244 </i>
    <i name="e_0_energy">    -86.29146244 </i>
   </energy>
  </scstep>
  <scstep>
   <time name="dav">    0.61    0.61</time>
   <time name="total">    1.28    1.29</time>
   <energy>
    <i name="e_fr_energy">    -86.29164537 </i>
    <i name="e_wo_entrp">    -86.29164537 </i>
    <i name="e_0_energy">    -86.29164537 </i>
   </energy>
  </scstep>
  <scstep>
   <time name="dav">    0.53    0.53</time>
   <time name="total">    1.20    1.21</time>
   <energy>
    <i name="e_fr_energy">    -86.29096868 </i>
    <i name="e_wo_entrp">    -86.29096868 </i>
    <i name="e_0_energy">    -86.29096868 </i>
   </energy>
  </scstep>
  <scstep>
   <time name="dav">    0.54    0.54</time>
   <time name="total">    1.20    1.22</time>
   <energy>
    <i name="e_fr_energy">    -86.29146247 </i>
    <i name="e_wo_entrp">    -86.29146247 </i>
    <i name="e_0_energy">    -86.29146247 </i>
   </energy>
  </scstep>
  <scstep>
   <time name="dav">    0.61    0.61</time>
   <time name="total">    1.28    1.29</time>
   <energy>
    <i name="e_fr_energy">    -86.29157464 </i>
    <i name="e_wo_entrp">    -86.29157464 </i>
    <i name="e_0_energy">    -86.29157464 </i>
   </energy>
  </scstep>
  <scstep>
   <time name="dav">    0.55    0.55</time>
   <time name="total">    1.22    1.23</time>
   <energy>
    <i name="e_fr_energy">    -86.29165645 </i>
    <i name="e_wo_entrp">    -86.29165645 </i>
    <i name="e_0_energy">    -86.29165645 </i>
   </energy>
  </scstep>
  <scstep>
   <time name="dav">    0.53    0.53</time>
   <time name="total">    1.20    1.21</time>
   <energy>
    <i name="e_fr_energy">    -86.29089482 </i>
    <i name="e_wo_entrp">    -86.29089482 </i>
    <i name="e_0_energy">    -86.29089482 </i>
   </energy>
  </scstep>
  <scstep>
   <time name="dav">    0.53    0.53</time>
   <time name="total">    1.20    1.21</time>
   <energy>
    <i name="e_fr_energy">    -86.29142968 </i>
    <i name="e_wo_entrp">    -86.29142968 </i>
    <i name="e_0_energy">    -86.29142968 </i>
   </energy>
  </scstep>
  <scstep>
   <time name="dav">    0.61    0.61</time>
   <time name="total">    1.28    1.29</time>
   <energy>
    <i name="e_fr_energy">    -86.29162862 </i>
    <i name="e_wo_entrp">    -86.29162862 </i>
    <i name="e_0_energy">    -86.29162862 </i>
   </energy>
  </scstep>
  <scstep>
   <time name="dav">    0.59    0.59</time>
   <time name="total">    1.26    1.27</time>
   <energy>
    <i name="e_fr_energy">    -86.29169878 </i>
    <i name="e_wo_entrp">    -86.29169878 </i>
    <i name="e_0_energy">    -86.29169878 </i>
   </energy>
  </scstep>
  <scstep>
   <time name="dav">    0.53    0.53</time>
   <time name="total">    1.20    1.21</time>
   <energy>
    <i name="e_fr_energy">    -86.29081036 </i>
    <i name="e_wo_entrp">    -86.29081036 </i>
    <i name="e_0_energy">    -86.29081036 </i>
   </energy>
  </scstep>
  <scstep>
   <time name="dav">    0.54    0.54</time>
   <time name="total">    1.21    1.22</time>
   <energy>
    <i name="e_fr_energy">    -86.29138272 </i>
    <i name="e_wo_entrp">    -86.29138272 </i>
    <i name="e_0_energy">    -86.29138272 </i>
   </energy>
  </scstep>
  <scstep>
   <time name="dav">    0.60    0.60</time>
   <time name="total">    1.27    1.28</time>
   <energy>
    <i name="e_fr_energy">    -86.29165618 </i>
    <i name="e_wo_entrp">    -86.29165618 </i>
    <i name="e_0_energy">    -86.29165618 </i>
   </energy>
  </scstep>
  <scstep>
   <time name="dav">    0.53    0.53</time>
   <time name="total">    1.19    1.21</time>
   <energy>
    <i name="e_fr_energy">    -86.29134794 </i>
    <i name="e_wo_entrp">    -86.29134794 </i>
    <i name="e_0_energy">    -86.29134794 </i>
   </energy>
  </scstep>
  <scstep>
   <time name="dav">    0.50    0.50</time>
   <time name="total">    1.17    1.18</time>
   <energy>
    <i name="e_fr_energy">    -86.29148794 </i>
    <i name="e_wo_entrp">    -86.29148794 </i>
    <i name="e_0_energy">    -86.29148794 </i>
   </energy>
  </scstep>
  <scstep>
   <time name="dav">    0.35    0.35</time>
   <time name="total">    1.01    1.03</time>
   <energy>
    <i name="e_fr_energy">    -86.29149375 </i>
    <i name="e_wo_entrp">    -86.29149375 </i>
    <i name="e_0_energy">    -86.29149375 </i>
   </energy>
  </scstep>
  <scstep>
   <time name="dav">    0.53    0.53</time>
   <time name="total">    1.20    1.21</time>
   <energy>
    <i name="e_fr_energy">    -86.29163764 </i>
    <i name="e_wo_entrp">    -86.29163764 </i>
    <i name="e_0_energy">    -86.29163764 </i>
   </energy>
  </scstep>
  <scstep>
   <time name="dav">    0.53    0.53</time>
   <time name="total">    1.20    1.21</time>
   <energy>
    <i name="e_fr_energy">    -86.29104971 </i>
    <i name="e_wo_entrp">    -86.29104971 </i>
    <i name="e_0_energy">    -86.29104971 </i>
   </energy>
  </scstep>
  <scstep>
   <time name="dav">    0.55    0.55</time>
   <time name="total">    1.22    1.23</time>
   <energy>
    <i name="e_fr_energy">    -86.29150115 </i>
    <i name="e_wo_entrp">    -86.29150115 </i>
    <i name="e_0_energy">    -86.29150115 </i>
   </energy>
  </scstep>
  <scstep>
   <time name="dav">    0.61    0.61</time>
   <time name="total">    1.27    1.29</time>
   <energy>
    <i name="e_fr_energy">    -86.29165311 </i>
    <i name="e_wo_entrp">    -86.29165311 </i>
    <i name="e_0_energy">    -86.29165311 </i>
   </energy>
  </scstep>
  <scstep>
   <time name="dav">    0.53    0.53</time>
   <time name="total">    1.20    1.21</time>
   <energy>
    <i name="e_fr_energy">    -86.29104086 </i>
    <i name="e_wo_entrp">    -86.29104086 </i>
    <i name="e_0_energy">    -86.29104086 </i>
   </energy>
  </scstep>
  <scstep>
   <time name="dav">    0.53    0.53</time>
   <time name="total">    1.20    1.21</time>
   <energy>
    <i name="e_fr_energy">    -86.29142518 </i>
    <i name="e_wo_entrp">    -86.29142518 </i>
    <i name="e_0_energy">    -86.29142518 </i>
   </energy>
  </scstep>
  <scstep>
   <time name="dav">    0.60    0.60</time>
   <time name="total">    1.27    1.28</time>
   <energy>
    <i name="e_fr_energy">    -86.29163822 </i>
    <i name="e_wo_entrp">    -86.29163822 </i>
    <i name="e_0_energy">    -86.29163822 </i>
   </energy>
  </scstep>
  <scstep>
   <time name="dav">    0.53    0.53</time>
   <time name="total">    1.20    1.21</time>
   <energy>
    <i name="e_fr_energy">    -86.29109652 </i>
    <i name="e_wo_entrp">    -86.29109652 </i>
    <i name="e_0_energy">    -86.29109652 </i>
   </energy>
  </scstep>
  <scstep>
   <time name="dav">    0.53    0.53</time>
   <time name="total">    1.20    1.21</time>
   <energy>
    <i name="e_fr_energy">    -86.29140512 </i>
    <i name="e_wo_entrp">    -86.29140512 </i>
    <i name="e_0_energy">    -86.29140512 </i>
   </energy>
  </scstep>
  <scstep>
   <time name="dav">    0.60    0.60</time>
   <time name="total">    1.27    1.28</time>
   <energy>
    <i name="e_fr_energy">    -86.29158130 </i>
    <i name="e_wo_entrp">    -86.29158130 </i>
    <i name="e_0_energy">    -86.29158130 </i>
   </energy>
  </scstep>
  <scstep>
   <time name="dav">    0.56    0.56</time>
   <time name="total">    1.22    1.24</time>
   <energy>
    <i name="e_fr_energy">    -86.29172779 </i>
    <i name="e_wo_entrp">    -86.29172779 </i>
    <i name="e_0_energy">    -86.29172779 </i>
   </energy>
  </scstep>
  <scstep>
   <time name="dav">    0.53    0.53</time>
   <time name="total">    1.20    1.21</time>
   <energy>
    <i name="e_fr_energy">    -86.29094924 </i>
    <i name="e_wo_entrp">    -86.29094924 </i>
    <i name="e_0_energy">    -86.29094924 </i>
   </energy>
  </scstep>
  <scstep>
   <time name="dav">    0.53    0.53</time>
   <time name="total">    1.20    1.21</time>
   <energy>
    <i name="e_fr_energy">    -86.29146654 </i>
    <i name="e_wo_entrp">    -86.29146654 </i>
    <i name="e_0_energy">    -86.29146654 </i>
   </energy>
  </scstep>
  <scstep>
   <time name="dav">    0.60    0.60</time>
   <time name="total">    1.27    1.28</time>
   <energy>
    <i name="e_fr_energy">    -86.29168532 </i>
    <i name="e_wo_entrp">    -86.29168532 </i>
    <i name="e_0_energy">    -86.29168532 </i>
   </energy>
  </scstep>
  <scstep>
   <time name="dav">    0.53    0.53</time>
   <time name="total">    1.20    1.22</time>
   <energy>
    <i name="e_fr_energy">    -86.29104195 </i>
    <i name="e_wo_entrp">    -86.29104195 </i>
    <i name="e_0_energy">    -86.29104195 </i>
   </energy>
  </scstep>
  <scstep>
   <time name="dav">    0.53    0.53</time>
   <time name="total">    1.21    1.21</time>
   <energy>
    <i name="e_fr_energy">    -86.29149820 </i>
    <i name="e_wo_entrp">    -86.29149820 </i>
    <i name="e_0_energy">    -86.29149820 </i>
   </energy>
  </scstep>
  <scstep>
   <time name="dav">    0.63    0.63</time>
   <time name="total">    1.29    1.31</time>
   <energy>
    <i name="e_fr_energy">    -86.29167601 </i>
    <i name="e_wo_entrp">    -86.29167601 </i>
    <i name="e_0_energy">    -86.29167601 </i>
   </energy>
  </scstep>
  <scstep>
   <time name="dav">    0.53    0.53</time>
   <time name="total">    1.20    1.22</time>
   <energy>
    <i name="e_fr_energy">    -86.29096499 </i>
    <i name="e_wo_entrp">    -86.29096499 </i>
    <i name="e_0_energy">    -86.29096499 </i>
   </energy>
  </scstep>
  <scstep>
   <time name="dav">    0.53    0.53</time>
   <time name="total">    1.20    1.21</time>
   <energy>
    <i name="e_fr_energy">    -86.29145980 </i>
    <i name="e_wo_entrp">    -86.29145980 </i>
    <i name="e_0_energy">    -86.29145980 </i>
   </energy>
  </scstep>
  <scstep>
   <time name="dav">    0.60    0.60</time>
   <time name="total">    1.27    1.28</time>
   <energy>
    <i name="e_fr_energy">    -86.29167073 </i>
    <i name="e_wo_entrp">    -86.29167073 </i>
    <i name="e_0_energy">    -86.29167073 </i>
   </energy>
  </scstep>
  <scstep>
   <time name="dav">    0.53    0.53</time>
   <time name="total">    1.20    1.21</time>
   <energy>
    <i name="e_fr_energy">    -86.29096255 </i>
    <i name="e_wo_entrp">    -86.29096255 </i>
    <i name="e_0_energy">    -86.29096255 </i>
   </energy>
  </scstep>
  <scstep>
   <time name="dav">    0.53    0.53</time>
   <time name="total">    1.19    1.21</time>
   <energy>
    <i name="e_fr_energy">    -86.29143976 </i>
    <i name="e_wo_entrp">    -86.29143976 </i>
    <i name="e_0_energy">    -86.29143976 </i>
   </energy>
  </scstep>
  <scstep>
   <time name="dav">    0.60    0.60</time>
   <time name="total">    1.27    1.28</time>
   <energy>
    <i name="e_fr_energy">    -86.29166345 </i>
    <i name="e_wo_entrp">    -86.29166345 </i>
    <i name="e_0_energy">    -86.29166345 </i>
   </energy>
  </scstep>
  <scstep>
   <time name="dav">    0.53    0.53</time>
   <time name="total">    1.20    1.21</time>
   <energy>
    <i name="e_fr_energy">    -86.29093097 </i>
    <i name="e_wo_entrp">    -86.29093097 </i>
    <i name="e_0_energy">    -86.29093097 </i>
   </energy>
  </scstep>
  <scstep>
   <time name="dav">    0.53    0.53</time>
   <time name="total">    1.20    1.21</time>
   <energy>
    <i name="e_fr_energy">    -86.29142926 </i>
    <i name="e_wo_entrp">    -86.29142926 </i>
    <i name="e_0_energy">    -86.29142926 </i>
   </energy>
  </scstep>
  <scstep>
   <time name="dav">    0.60    0.60</time>
   <time name="total">    1.27    1.28</time>
   <energy>
    <i name="e_fr_energy">    -86.29165539 </i>
    <i name="e_wo_entrp">    -86.29165539 </i>
    <i name="e_0_energy">    -86.29165539 </i>
   </energy>
  </scstep>
  <scstep>
   <time name="dav">    0.53    0.53</time>
   <time name="total">    1.21    1.23</time>
   <energy>
    <i name="e_fr_energy">    -86.29092195 </i>
    <i name="e_wo_entrp">    -86.29092195 </i>
    <i name="e_0_energy">    -86.29092195 </i>
   </energy>
  </scstep>
  <scstep>
   <time name="dav">    0.53    0.53</time>
   <time name="total">    1.20    1.21</time>
   <energy>
    <i name="e_fr_energy">    -86.29145085 </i>
    <i name="e_wo_entrp">    -86.29145085 </i>
    <i name="e_0_energy">    -86.29145085 </i>
   </energy>
  </scstep>
  <scstep>
   <time name="dav">    0.61    0.61</time>
   <time name="total">    1.28    1.29</time>
   <energy>
    <i name="e_fr_energy">    -86.29166917 </i>
    <i name="e_wo_entrp">    -86.29166917 </i>
    <i name="e_0_energy">    -86.29166917 </i>
   </energy>
  </scstep>
  <scstep>
   <time name="dav">    0.53    0.53</time>
   <time name="total">    1.20    1.21</time>
   <energy>
    <i name="e_fr_energy">    -86.29089533 </i>
    <i name="e_wo_entrp">    -86.29089533 </i>
    <i name="e_0_energy">    -86.29089533 </i>
   </energy>
  </scstep>
  <scstep>
   <time name="dav">    0.57    0.57</time>
   <time name="total">    1.24    1.25</time>
   <energy>
    <i name="e_fr_energy">    -86.29144073 </i>
    <i name="e_wo_entrp">    -86.29144073 </i>
    <i name="e_0_energy">    -86.29144073 </i>
   </energy>
  </scstep>
  <scstep>
   <time name="dav">    0.60    0.60</time>
   <time name="total">    1.27    1.29</time>
   <energy>
    <i name="e_fr_energy">    -86.29166575 </i>
    <i name="e_wo_entrp">    -86.29166575 </i>
    <i name="e_0_energy">    -86.29166575 </i>
   </energy>
  </scstep>
  <scstep>
   <time name="dav">    0.53    0.53</time>
   <time name="total">    1.20    1.21</time>
   <energy>
    <i name="e_fr_energy">    -86.29096117 </i>
    <i name="e_wo_entrp">    -86.29096117 </i>
    <i name="e_0_energy">    -86.29096117 </i>
   </energy>
  </scstep>
  <scstep>
   <time name="dav">    0.53    0.53</time>
   <time name="total">    1.20    1.21</time>
   <energy>
    <i name="e_fr_energy">    -86.29146541 </i>
    <i name="e_wo_entrp">    -86.29146541 </i>
    <i name="e_0_energy">    -86.29146541 </i>
   </energy>
  </scstep>
  <scstep>
   <time name="dav">    0.61    0.61</time>
   <time name="total">    1.28    1.29</time>
   <energy>
    <i name="e_fr_energy">    -86.29164534 </i>
    <i name="e_wo_entrp">    -86.29164534 </i>
    <i name="e_0_energy">    -86.29164534 </i>
   </energy>
  </scstep>
  <scstep>
   <time name="dav">    0.53    0.53</time>
   <time name="total">    1.20    1.21</time>
   <energy>
    <i name="e_fr_energy">    -86.29094929 </i>
    <i name="e_wo_entrp">    -86.29094929 </i>
    <i name="e_0_energy">    -86.29094929 </i>
   </energy>
  </scstep>
  <scstep>
   <time name="dav">    0.53    0.53</time>
   <time name="total">    1.20    1.22</time>
   <energy>
    <i name="e_fr_energy">    -86.29144698 </i>
    <i name="e_wo_entrp">    -86.29144698 </i>
    <i name="e_0_energy">    -86.29144698 </i>
   </energy>
  </scstep>
  <scstep>
   <time name="dav">    0.59    0.59</time>
   <time name="total">    1.26    1.27</time>
   <energy>
    <i name="e_fr_energy">    -86.29148903 </i>
    <i name="e_wo_entrp">    -86.29148903 </i>
    <i name="e_0_energy">    -86.29148903 </i>
   </energy>
  </scstep>
  <scstep>
   <time name="dav">    0.54    0.54</time>
   <time name="total">    1.21    1.22</time>
   <energy>
    <i name="e_fr_energy">    -86.29169738 </i>
    <i name="e_wo_entrp">    -86.29169738 </i>
    <i name="e_0_energy">    -86.29169738 </i>
   </energy>
  </scstep>
  <scstep>
   <time name="dav">    0.53    0.53</time>
   <time name="total">    1.20    1.21</time>
   <energy>
    <i name="e_fr_energy">    -86.29091773 </i>
    <i name="e_wo_entrp">    -86.29091773 </i>
    <i name="e_0_energy">    -86.29091773 </i>
   </energy>
  </scstep>
  <scstep>
   <time name="dav">    0.53    0.53</time>
   <time name="total">    1.20    1.21</time>
   <energy>
    <i name="e_fr_energy">    -86.29146915 </i>
    <i name="e_wo_entrp">    -86.29146915 </i>
    <i name="e_0_energy">    -86.29146915 </i>
   </energy>
  </scstep>
  <scstep>
   <time name="dav">    0.60    0.60</time>
   <time name="total">    1.27    1.28</time>
   <energy>
    <i name="e_fr_energy">    -86.29168060 </i>
    <i name="e_wo_entrp">    -86.29168060 </i>
    <i name="e_0_energy">    -86.29168060 </i>
   </energy>
  </scstep>
  <scstep>
   <time name="dav">    0.53    0.53</time>
   <time name="total">    1.20    1.21</time>
   <energy>
    <i name="e_fr_energy">    -86.29098056 </i>
    <i name="e_wo_entrp">    -86.29098056 </i>
    <i name="e_0_energy">    -86.29098056 </i>
   </energy>
  </scstep>
  <scstep>
   <time name="dav">    0.53    0.53</time>
   <time name="total">    1.20    1.21</time>
   <energy>
    <i name="e_fr_energy">    -86.29145051 </i>
    <i name="e_wo_entrp">    -86.29145051 </i>
    <i name="e_0_energy">    -86.29145051 </i>
   </energy>
  </scstep>
  <scstep>
   <time name="dav">    0.64    0.64</time>
   <time name="total">    1.31    1.32</time>
   <energy>
    <i name="e_fr_energy">    -86.29166099 </i>
    <i name="e_wo_entrp">    -86.29166099 </i>
    <i name="e_0_energy">    -86.29166099 </i>
   </energy>
  </scstep>
  <scstep>
   <time name="dav">    0.53    0.53</time>
   <time name="total">    1.20    1.21</time>
   <energy>
    <i name="e_fr_energy">    -86.29098794 </i>
    <i name="e_wo_entrp">    -86.29098794 </i>
    <i name="e_0_energy">    -86.29098794 </i>
   </energy>
  </scstep>
  <scstep>
   <time name="dav">    0.53    0.53</time>
   <time name="total">    1.20    1.21</time>
   <energy>
    <i name="e_fr_energy">    -86.29147816 </i>
    <i name="e_wo_entrp">    -86.29147816 </i>
    <i name="e_0_energy">    -86.29147816 </i>
   </energy>
  </scstep>
  <scstep>
   <time name="dav">    0.61    0.61</time>
   <time name="total">    1.28    1.29</time>
   <energy>
    <i name="e_fr_energy">    -86.29167030 </i>
    <i name="e_wo_entrp">    -86.29167030 </i>
    <i name="e_0_energy">    -86.29167030 </i>
   </energy>
  </scstep>
  <scstep>
   <time name="dav">    0.53    0.53</time>
   <time name="total">    1.20    1.21</time>
   <energy>
    <i name="e_fr_energy">    -86.29094682 </i>
    <i name="e_wo_entrp">    -86.29094682 </i>
    <i name="e_0_energy">    -86.29094682 </i>
   </energy>
  </scstep>
  <scstep>
   <time name="dav">    0.53    0.53</time>
   <time name="total">    1.20    1.21</time>
   <energy>
    <i name="e_fr_energy">    -86.29144917 </i>
    <i name="e_wo_entrp">    -86.29144917 </i>
    <i name="e_0_energy">    -86.29144917 </i>
   </energy>
  </scstep>
  <scstep>
   <time name="dav">    0.60    0.60</time>
   <time name="total">    1.27    1.28</time>
   <energy>
    <i name="e_fr_energy">    -86.29166839 </i>
    <i name="e_wo_entrp">    -86.29166839 </i>
    <i name="e_0_energy">    -86.29166839 </i>
   </energy>
  </scstep>
  <scstep>
   <time name="dav">    0.53    0.53</time>
   <time name="total">    1.21    1.22</time>
   <energy>
    <i name="e_fr_energy">    -86.29098077 </i>
    <i name="e_wo_entrp">    -86.29098077 </i>
    <i name="e_0_energy">    -86.29098077 </i>
   </energy>
  </scstep>
  <scstep>
   <time name="dav">    0.54    0.54</time>
   <time name="total">    1.20    1.22</time>
   <energy>
    <i name="e_fr_energy">    -86.29146149 </i>
    <i name="e_wo_entrp">    -86.29146149 </i>
    <i name="e_0_energy">    -86.29146149 </i>
   </energy>
  </scstep>
  <scstep>
   <time name="dav">    0.61    0.61</time>
   <time name="total">    1.28    1.29</time>
   <energy>
    <i name="e_fr_energy">    -86.29165857 </i>
    <i name="e_wo_entrp">    -86.29165857 </i>
    <i name="e_0_energy">    -86.29165857 </i>
   </energy>
  </scstep>
  <scstep>
   <time name="dav">    0.53    0.53</time>
   <time name="total">    1.20    1.21</time>
   <energy>
    <i name="e_fr_energy">    -86.29097431 </i>
    <i name="e_wo_entrp">    -86.29097431 </i>
    <i name="e_0_energy">    -86.29097431 </i>
   </energy>
  </scstep>
  <scstep>
   <time name="dav">    0.53    0.53</time>
   <time name="total">    1.20    1.21</time>
   <energy>
    <i name="e_fr_energy">    -86.29145708 </i>
    <i name="e_wo_entrp">    -86.29145708 </i>
    <i name="e_0_energy">    -86.29145708 </i>
   </energy>
  </scstep>
  <scstep>
   <time name="dav">    0.61    0.61</time>
   <time name="total">    1.27    1.28</time>
   <energy>
    <i name="e_fr_energy">    -86.29165906 </i>
    <i name="e_wo_entrp">    -86.29165906 </i>
    <i name="e_0_energy">    -86.29165906 </i>
   </energy>
  </scstep>
  <scstep>
   <time name="dav">    0.53    0.53</time>
   <time name="total">    1.20    1.21</time>
   <energy>
    <i name="e_fr_energy">    -86.29096653 </i>
    <i name="e_wo_entrp">    -86.29096653 </i>
    <i name="e_0_energy">    -86.29096653 </i>
   </energy>
  </scstep>
  <scstep>
   <time name="dav">    0.55    0.55</time>
   <time name="total">    1.21    1.22</time>
   <energy>
    <i name="e_fr_energy">    -86.29145178 </i>
    <i name="e_wo_entrp">    -86.29145178 </i>
    <i name="e_0_energy">    -86.29145178 </i>
   </energy>
  </scstep>
  <scstep>
   <time name="dav">    0.61    0.61</time>
   <time name="total">    1.27    1.28</time>
   <energy>
    <i name="e_fr_energy">    -86.29166102 </i>
    <i name="e_wo_entrp">    -86.29166102 </i>
    <i name="e_0_energy">    -86.29166102 </i>
   </energy>
  </scstep>
  <scstep>
   <time name="dav">    0.54    0.54</time>
   <time name="total">    1.21    1.23</time>
   <energy>
    <i name="e_fr_energy">    -86.29097663 </i>
    <i name="e_wo_entrp">    -86.29097663 </i>
    <i name="e_0_energy">    -86.29097663 </i>
   </energy>
  </scstep>
  <scstep>
   <time name="dav">    0.53    0.53</time>
   <time name="total">    1.20    1.21</time>
   <energy>
    <i name="e_fr_energy">    -86.29145110 </i>
    <i name="e_wo_entrp">    -86.29145110 </i>
    <i name="e_0_energy">    -86.29145110 </i>
   </energy>
  </scstep>
  <scstep>
   <time name="dav">    0.66    0.66</time>
   <time name="total">    1.34    1.34</time>
   <energy>
    <i name="e_fr_energy">    -86.29166055 </i>
    <i name="e_wo_entrp">    -86.29166055 </i>
    <i name="e_0_energy">    -86.29166055 </i>
   </energy>
  </scstep>
  <scstep>
   <time name="dav">    0.53    0.53</time>
   <time name="total">    1.20    1.22</time>
   <energy>
    <i name="e_fr_energy">    -86.29097533 </i>
    <i name="e_wo_entrp">    -86.29097533 </i>
    <i name="e_0_energy">    -86.29097533 </i>
   </energy>
  </scstep>
  <scstep>
   <time name="dav">    0.53    0.53</time>
   <time name="total">    1.20    1.21</time>
   <energy>
    <i name="e_fr_energy">    -86.29144720 </i>
    <i name="e_wo_entrp">    -86.29144720 </i>
    <i name="e_0_energy">    -86.29144720 </i>
   </energy>
  </scstep>
  <scstep>
   <time name="dav">    0.60    0.60</time>
   <time name="total">    1.27    1.28</time>
   <energy>
    <i name="e_fr_energy">    -86.29165822 </i>
    <i name="e_wo_entrp">    -86.29165822 </i>
    <i name="e_0_energy">    -86.29165822 </i>
   </energy>
  </scstep>
  <scstep>
[...]
        <r>  0.0000  0.0126  0.0126  0.0126  0.0000  0.0000  0.0000  0.0000  0.0000 </r>
        <r>  0.0000  0.0126  0.0126  0.0126  0.0000  0.0000  0.0000  0.0000  0.0000 </r>
        <r>  0.0000  0.0126  0.0126  0.0126  0.0000  0.0000  0.0000  0.0000  0.0000 </r>
        <r>  0.0000  0.0813  0.0000  0.0000  0.0000  0.0000  0.0000  0.0000  0.0000 </r>
        <r>  0.0000  0.0000  0.0813  0.0000  0.0000  0.0000  0.0000  0.0000  0.0000 </r>
        <r>  0.0000  0.0813  0.0000  0.0000  0.0000  0.0000  0.0000  0.0000  0.0000 </r>
        <r>  0.0000  0.0000  0.0000  0.0813  0.0000  0.0000  0.0000  0.0000  0.0000 </r>
        <r>  0.0000  0.0000  0.0000  0.0813  0.0000  0.0000  0.0000  0.0000  0.0000 </r>
        <r>  0.0000  0.0000  0.0813  0.0000  0.0000  0.0000  0.0000  0.0000  0.0000 </r>
       </set>
       <set comment="band 30">
        <r>  0.0106  0.0000  0.0000  0.0000  0.0017  0.0174  0.0016  0.0017  0.0048 </r>
        <r>  0.0106  0.0000  0.0000  0.0000  0.0017  0.0174  0.0016  0.0017  0.0048 </r>
        <r>  0.0106  0.0000  0.0000  0.0000  0.0017  0.0174  0.0016  0.0017  0.0048 </r>
        <r>  0.0106  0.0000  0.0000  0.0000  0.0017  0.0174  0.0016  0.0017  0.0048 </r>
        <r>  0.0000  0.0000  0.1402  0.0000  0.0000  0.0000  0.0000  0.0000  0.0000 </r>
        <r>  0.0000  0.1402  0.0000  0.0000  0.0000  0.0000  0.0000  0.0000  0.0000 </r>
        <r>  0.0000  0.0000  0.1402  0.0000  0.0000  0.0000  0.0000  0.0000  0.0000 </r>
        <r>  0.0049  0.0000  0.0000  0.0000  0.0000  0.0000  0.0000  0.0000  0.0000 </r>
        <r>  0.0049  0.0000  0.0000  0.0000  0.0000  0.0000  0.0000  0.0000  0.0000 </r>
        <r>  0.0000  0.1402  0.0000  0.0000  0.0000  0.0000  0.0000  0.0000  0.0000 </r>
       </set>
       <set comment="band 31">
        <r>  0.0106  0.0000  0.0000  0.0000  0.0017  0.0017  0.0016  0.0174  0.0048 </r>
        <r>  0.0106  0.0000  0.0000  0.0000  0.0017  0.0017  0.0016  0.0174  0.0048 </r>
        <r>  0.0106  0.0000  0.0000  0.0000  0.0017  0.0017  0.0016  0.0174  0.0048 </r>
        <r>  0.0106  0.0000  0.0000  0.0000  0.0017  0.0017  0.0016  0.0174  0.0048 </r>
        <r>  0.0049  0.0000  0.0000  0.0000  0.0000  0.0000  0.0000  0.0000  0.0000 </r>
        <r>  0.0000  0.0000  0.0000  0.1402  0.0000  0.0000  0.0000  0.0000  0.0000 </r>
        <r>  0.0049  0.0000  0.0000  0.0000  0.0000  0.0000  0.0000  0.0000  0.0000 </r>
        <r>  0.0000  0.0000  0.1402  0.0000  0.0000  0.0000  0.0000  0.0000  0.0000 </r>
        <r>  0.0000  0.0000  0.1402  0.0000  0.0000  0.0000  0.0000  0.0000  0.0000 </r>
        <r>  0.0000  0.0000  0.0000  0.1402  0.0000  0.0000  0.0000  0.0000  0.0000 </r>
       </set>
       <set comment="band 32">
        <r>  0.0106  0.0000  0.0000  0.0000  0.0174  0.0017  0.0063  0.0017  0.0000 </r>
        <r>  0.0106  0.0000  0.0000  0.0000  0.0174  0.0017  0.0063  0.0017  0.0000 </r>
        <r>  0.0106  0.0000  0.0000  0.0000  0.0174  0.0017  0.0063  0.0017  0.0000 </r>
        <r>  0.0106  0.0000  0.0000  0.0000  0.0174  0.0017  0.0063  0.0017  0.0000 </r>
        <r>  0.0000  0.0000  0.0000  0.1402  0.0000  0.0000  0.0000  0.0000  0.0000 </r>
        <r>  0.0049  0.0000  0.0000  0.0000  0.0000  0.0000  0.0000  0.0000  0.0000 </r>
        <r>  0.0000  0.0000  0.0000  0.1402  0.0000  0.0000  0.0000  0.0000  0.0000 </r>
        <r>  0.0000  0.1402  0.0000  0.0000  0.0000  0.0000  0.0000  0.0000  0.0000 </r>
        <r>  0.0000  0.1402  0.0000  0.0000  0.0000  0.0000  0.0000  0.0000  0.0000 </r>
        <r>  0.0049  0.0000  0.0000  0.0000  0.0000  0.0000  0.0000  0.0000  0.0000 </r>
       </set>
       <set comment="band 33">
        <r>  0.0000  0.0018  0.0018  0.0176  0.0000  0.0000  0.0000  0.0000  0.0000 </r>
        <r>  0.0000  0.0018  0.0018  0.0176  0.0000  0.0000  0.0000  0.0000  0.0000 </r>
        <r>  0.0000  0.0018  0.0018  0.0176  0.0000  0.0000  0.0000  0.0000  0.0000 </r>
        <r>  0.0000  0.0018  0.0018  0.0176  0.0000  0.0000  0.0000  0.0000  0.0000 </r>
        <r>  0.0000  0.0000  0.1510  0.0000  0.0000  0.0000  0.0000  0.0000  0.0000 </r>
        <r>  0.0000  0.1510  0.0000  0.0000  0.0000  0.0000  0.0000  0.0000  0.0000 </r>
        <r>  0.0000  0.0000  0.1510  0.0000  0.0000  0.0000  0.0000  0.0000  0.0000 </r>
        <r>  0.0047  0.0000  0.0000  0.0000  0.0000  0.0000  0.0000  0.0000  0.0000 </r>
        <r>  0.0047  0.0000  0.0000  0.0000  0.0000  0.0000  0.0000  0.0000  0.0000 </r>
        <r>  0.0000  0.1510  0.0000  0.0000  0.0000  0.0000  0.0000  0.0000  0.0000 </r>
       </set>
       <set comment="band 34">
        <r>  0.0000  0.0176  0.0018  0.0018  0.0000  0.0000  0.0000  0.0000  0.0000 </r>
        <r>  0.0000  0.0176  0.0018  0.0018  0.0000  0.0000  0.0000  0.0000  0.0000 </r>
        <r>  0.0000  0.0176  0.0018  0.0018  0.0000  0.0000  0.0000  0.0000  0.0000 </r>
        <r>  0.0000  0.0176  0.0018  0.0018  0.0000  0.0000  0.0000  0.0000  0.0000 </r>
        <r>  0.0047  0.0000  0.0000  0.0000  0.0000  0.0000  0.0000  0.0000  0.0000 </r>
        <r>  0.0000  0.0000  0.0000  0.1510  0.0000  0.0000  0.0000  0.0000  0.0000 </r>
        <r>  0.0047  0.0000  0.0000  0.0000  0.0000  0.0000  0.0000  0.0000  0.0000 </r>
        <r>  0.0000  0.0000  0.1510  0.0000  0.0000  0.0000  0.0000  0.0000  0.0000 </r>
        <r>  0.0000  0.0000  0.1510  0.0000  0.0000  0.0000  0.0000  0.0000  0.0000 </r>
        <r>  0.0000  0.0000  0.0000  0.1510  0.0000  0.0000  0.0000  0.0000  0.0000 </r>
       </set>
       <set comment="band 35">
        <r>  0.0000  0.0018  0.0176  0.0018  0.0000  0.0000  0.0000  0.0000  0.0000 </r>
        <r>  0.0000  0.0018  0.0176  0.0018  0.0000  0.0000  0.0000  0.0000  0.0000 </r>
        <r>  0.0000  0.0018  0.0176  0.0018  0.0000  0.0000  0.0000  0.0000  0.0000 </r>
        <r>  0.0000  0.0018  0.0176  0.0018  0.0000  0.0000  0.0000  0.0000  0.0000 </r>
        <r>  0.0000  0.0000  0.0000  0.1510  0.0000  0.0000  0.0000  0.0000  0.0000 </r>
        <r>  0.0047  0.0000  0.0000  0.0000  0.0000  0.0000  0.0000  0.0000  0.0000 </r>
        <r>  0.0000  0.0000  0.0000  0.1510  0.0000  0.0000  0.0000  0.0000  0.0000 </r>
        <r>  0.0000  0.1510  0.0000  0.0000  0.0000  0.0000  0.0000  0.0000  0.0000 </r>
        <r>  0.0000  0.1510  0.0000  0.0000  0.0000  0.0000  0.0000  0.0000  0.0000 </r>
        <r>  0.0047  0.0000  0.0000  0.0000  0.0000  0.0000  0.0000  0.0000  0.0000 </r>
       </set>
       <set comment="band 36">
        <r>  0.0000  0.0097  0.0000  0.0107  0.0000  0.0000  0.0000  0.0000  0.0000 </r>
        <r>  0.0000  0.0097  0.0000  0.0107  0.0000  0.0000  0.0000  0.0000  0.0000 </r>
        <r>  0.0000  0.0097  0.0000  0.0107  0.0000  0.0000  0.0000  0.0000  0.0000 </r>
        <r>  0.0000  0.0097  0.0000  0.0107  0.0000  0.0000  0.0000  0.0000  0.0000 </r>
        <r>  0.0000  0.1616  0.0000  0.0000  0.0000  0.0000  0.0000  0.0000  0.0000 </r>
        <r>  0.0000  0.0000  0.0003  0.0000  0.0000  0.0000  0.0000  0.0000  0.0000 </r>
        <r>  0.0000  0.1616  0.0000  0.0000  0.0000  0.0000  0.0000  0.0000  0.0000 </r>
        <r>  0.0000  0.0000  0.0000  0.1770  0.0000  0.0000  0.0000  0.0000  0.0000 </r>
        <r>  0.0000  0.0000  0.0000  0.1770  0.0000  0.0000  0.0000  0.0000  0.0000 </r>
        <r>  0.0000  0.0000  0.0003  0.0000  0.0000  0.0000  0.0000  0.0000  0.0000 </r>
       </set>
       <set comment="band 37">
        <r>  0.0000  0.0039  0.0136  0.0029  0.0000  0.0000  0.0000  0.0000  0.0000 </r>
        <r>  0.0000  0.0039  0.0136  0.0029  0.0000  0.0000  0.0000  0.0000  0.0000 </r>
        <r>  0.0000  0.0039  0.0136  0.0029  0.0000  0.0000  0.0000  0.0000  0.0000 </r>
        <r>  0.0000  0.0039  0.0136  0.0029  0.0000  0.0000  0.0000  0.0000  0.0000 </r>
        <r>  0.0000  0.0643  0.0000  0.0000  0.0000  0.0000  0.0000  0.0000  0.0000 </r>
        <r>  0.0000  0.0000  0.2256  0.0000  0.0000  0.0000  0.0000  0.0000  0.0000 </r>
        <r>  0.0000  0.0643  0.0000  0.0000  0.0000  0.0000  0.0000  0.0000  0.0000 </r>
        <r>  0.0000  0.0000  0.0000  0.0490  0.0000  0.0000  0.0000  0.0000  0.0000 </r>
        <r>  0.0000  0.0000  0.0000  0.0490  0.0000  0.0000  0.0000  0.0000  0.0000 </r>
        <r>  0.0000  0.0000  0.2256  0.0000  0.0000  0.0000  0.0000  0.0000  0.0000 </r>
       </set>
       <set comment="band 38">
        <r>  0.0000  0.0100  0.0000  0.0100  0.0000  0.0000  0.0000  0.0000  0.0000 </r>
        <r>  0.0000  0.0100  0.0000  0.0100  0.0000  0.0000  0.0000  0.0000  0.0000 </r>
        <r>  0.0000  0.0100  0.0000  0.0100  0.0000  0.0000  0.0000  0.0000  0.0000 </r>
        <r>  0.0000  0.0100  0.0000  0.0100  0.0000  0.0000  0.0000  0.0000  0.0000 </r>
        <r>  0.0000  0.0000  0.0000  0.1708  0.0000  0.0000  0.0000  0.0000  0.0000 </r>
        <r>  0.0000  0.0000  0.0000  0.0000  0.0000  0.0000  0.0000  0.0000  0.0000 </r>
        <r>  0.0000  0.0000  0.0000  0.1708  0.0000  0.0000  0.0000  0.0000  0.0000 </r>
        <r>  0.0000  0.1708  0.0000  0.0000  0.0000  0.0000  0.0000  0.0000  0.0000 </r>
        <r>  0.0000  0.1708  0.0000  0.0000  0.0000  0.0000  0.0000  0.0000  0.0000 </r>
        <r>  0.0000  0.0000  0.0000  0.0000  0.0000  0.0000  0.0000  0.0000  0.0000 </r>
       </set>
       <set comment="band 39">
        <r>  0.0000  0.0000  0.0100  0.0100  0.0000  0.0000  0.0000  0.0000  0.0000 </r>
        <r>  0.0000  0.0000  0.0100  0.0100  0.0000  0.0000  0.0000  0.0000  0.0000 </r>
        <r>  0.0000  0.0000  0.0100  0.0100  0.0000  0.0000  0.0000  0.0000  0.0000 </r>
        <r>  0.0000  0.0000  0.0100  0.0100  0.0000  0.0000  0.0000  0.0000  0.0000 </r>
        <r>  0.0000  0.0000  0.0000  0.0000  0.0000  0.0000  0.0000  0.0000  0.0000 </r>
        <r>  0.0000  0.0000  0.0000  0.1708  0.0000  0.0000  0.0000  0.0000  0.0000 </r>
        <r>  0.0000  0.0000  0.0000  0.0000  0.0000  0.0000  0.0000  0.0000  0.0000 </r>
        <r>  0.0000  0.0000  0.1708  0.0000  0.0000  0.0000  0.0000  0.0000  0.0000 </r>
        <r>  0.0000  0.0000  0.1708  0.0000  0.0000  0.0000  0.0000  0.0000  0.0000 </r>
        <r>  0.0000  0.0000  0.0000  0.1708  0.0000  0.0000  0.0000  0.0000  0.0000 </r>
       </set>
       <set comment="band 40">
        <r>  0.0000  0.0100  0.0100  0.0000  0.0000  0.0000  0.0000  0.0000  0.0000 </r>
        <r>  0.0000  0.0100  0.0100  0.0000  0.0000  0.0000  0.0000  0.0000  0.0000 </r>
        <r>  0.0000  0.0100  0.0100  0.0000  0.0000  0.0000  0.0000  0.0000  0.0000 </r>
        <r>  0.0000  0.0100  0.0100  0.0000  0.0000  0.0000  0.0000  0.0000  0.0000 </r>
        <r>  0.0000  0.0000  0.1708  0.0000  0.0000  0.0000  0.0000  0.0000  0.0000 </r>
        <r>  0.0000  0.1708  0.0000  0.0000  0.0000  0.0000  0.0000  0.0000  0.0000 </r>
        <r>  0.0000  0.0000  0.1708  0.0000  0.0000  0.0000  0.0000  0.0000  0.0000 </r>
        <r>  0.0000  0.0000  0.0000  0.0000  0.0000  0.0000  0.0000  0.0000  0.0000 </r>
        <r>  0.0000  0.0000  0.0000  0.0000  0.0000  0.0000  0.0000  0.0000  0.0000 </r>
        <r>  0.0000  0.1708  0.0000  0.0000  0.0000  0.0000  0.0000  0.0000  0.0000 </r>
       </set>
       <set comment="band 41">
        <r>  0.0007  0.0000  0.0000  0.0000  0.0314  0.0314  0.0000  0.0314  0.0000 </r>
        <r>  0.0007  0.0000  0.0000  0.0000  0.0314  0.0314  0.0000  0.0314  0.0000 </r>
        <r>  0.0007  0.0000  0.0000  0.0000  0.0314  0.0314  0.0000  0.0314  0.0000 </r>
        <r>  0.0007  0.0000  0.0000  0.0000  0.0314  0.0314  0.0000  0.0314  0.0000 </r>
        <r>  0.0000  0.0404  0.0000  0.0000  0.0000  0.0000  0.0000  0.0000  0.0000 </r>
        <r>  0.0000  0.0000  0.0404  0.0000  0.0000  0.0000  0.0000  0.0000  0.0000 </r>
        <r>  0.0000  0.0404  0.0000  0.0000  0.0000  0.0000  0.0000  0.0000  0.0000 </r>
        <r>  0.0000  0.0000  0.0000  0.0404  0.0000  0.0000  0.0000  0.0000  0.0000 </r>
        <r>  0.0000  0.0000  0.0000  0.0404  0.0000  0.0000  0.0000  0.0000  0.0000 </r>
        <r>  0.0000  0.0000  0.0404  0.0000  0.0000  0.0000  0.0000  0.0000  0.0000 </r>
       </set>
       <set comment="band 42">
        <r>  0.0171  0.0000  0.0000  0.0000  0.0059  0.0252  0.0220  0.0059  0.0661 </r>
        <r>  0.0171  0.0000  0.0000  0.0000  0.0059  0.0252  0.0220  0.0059  0.0661 </r>
        <r>  0.0171  0.0000  0.0000  0.0000  0.0059  0.0252  0.0220  0.0059  0.0661 </r>
        <r>  0.0171  0.0000  0.0000  0.0000  0.0059  0.0252  0.0220  0.0059  0.0661 </r>
        <r>  0.0000  0.0000  0.0126  0.0000  0.0000  0.0000  0.0000  0.0000  0.0000 </r>
        <r>  0.0000  0.0126  0.0000  0.0000  0.0000  0.0000  0.0000  0.0000  0.0000 </r>
        <r>  0.0000  0.0000  0.0126  0.0000  0.0000  0.0000  0.0000  0.0000  0.0000 </r>
        <r>  0.0079  0.0000  0.0000  0.0000  0.0000  0.0000  0.0000  0.0000  0.0000 </r>
        <r>  0.0079  0.0000  0.0000  0.0000  0.0000  0.0000  0.0000  0.0000  0.0000 </r>
        <r>  0.0000  0.0126  0.0000  0.0000  0.0000  0.0000  0.0000  0.0000  0.0000 </r>
       </set>
       <set comment="band 43">
        <r>  0.0171  0.0000  0.0000  0.0000  0.0059  0.0059  0.0220  0.0252  0.0661 </r>
        <r>  0.0171  0.0000  0.0000  0.0000  0.0059  0.0059  0.0220  0.0252  0.0661 </r>
        <r>  0.0171  0.0000  0.0000  0.0000  0.0059  0.0059  0.0220  0.0252  0.0661 </r>
        <r>  0.0171  0.0000  0.0000  0.0000  0.0059  0.0059  0.0220  0.0252  0.0661 </r>
        <r>  0.0079  0.0000  0.0000  0.0000  0.0000  0.0000  0.0000  0.0000  0.0000 </r>
        <r>  0.0000  0.0000  0.0000  0.0126  0.0000  0.0000  0.0000  0.0000  0.0000 </r>
        <r>  0.0079  0.0000  0.0000  0.0000  0.0000  0.0000  0.0000  0.0000  0.0000 </r>
        <r>  0.0000  0.0000  0.0126  0.0000  0.0000  0.0000  0.0000  0.0000  0.0000 </r>
        <r>  0.0000  0.0000  0.0126  0.0000  0.0000  0.0000  0.0000  0.0000  0.0000 </r>
        <r>  0.0000  0.0000  0.0000  0.0126  0.0000  0.0000  0.0000  0.0000  0.0000 </r>
       </set>
       <set comment="band 44">
        <r>  0.0171  0.0000  0.0000  0.0000  0.0252  0.0059  0.0882  0.0059  0.0000 </r>
        <r>  0.0171  0.0000  0.0000  0.0000  0.0252  0.0059  0.0882  0.0059  0.0000 </r>
        <r>  0.0171  0.0000  0.0000  0.0000  0.0252  0.0059  0.0882  0.0059  0.0000 </r>
        <r>  0.0171  0.0000  0.0000  0.0000  0.0252  0.0059  0.0882  0.0059  0.0000 </r>
        <r>  0.0000  0.0000  0.0000  0.0126  0.0000  0.0000  0.0000  0.0000  0.0000 </r>
        <r>  0.0079  0.0000  0.0000  0.0000  0.0000  0.0000  0.0000  0.0000  0.0000 </r>
        <r>  0.0000  0.0000  0.0000  0.0126  0.0000  0.0000  0.0000  0.0000  0.0000 </r>
        <r>  0.0000  0.0126  0.0000  0.0000  0.0000  0.0000  0.0000  0.0000  0.0000 </r>
        <r>  0.0000  0.0126  0.0000  0.0000  0.0000  0.0000  0.0000  0.0000  0.0000 </r>
        <r>  0.0079  0.0000  0.0000  0.0000  0.0000  0.0000  0.0000  0.0000  0.0000 </r>
       </set>
       <set comment="band 45">
        <r>  0.0000  0.0129  0.0129  0.0129  0.0000  0.0000  0.0000  0.0000  0.0000 </r>
        <r>  0.0000  0.0129  0.0129  0.0129  0.0000  0.0000  0.0000  0.0000  0.0000 </r>
        <r>  0.0000  0.0129  0.0129  0.0129  0.0000  0.0000  0.0000  0.0000  0.0000 </r>
        <r>  0.0000  0.0129  0.0129  0.0129  0.0000  0.0000  0.0000  0.0000  0.0000 </r>
        <r>  0.0000  0.0396  0.0000  0.0000  0.0000  0.0000  0.0000  0.0000  0.0000 </r>
        <r>  0.0000  0.0000  0.0396  0.0000  0.0000  0.0000  0.0000  0.0000  0.0000 </r>
        <r>  0.0000  0.0396  0.0000  0.0000  0.0000  0.0000  0.0000  0.0000  0.0000 </r>
        <r>  0.0000  0.0000  0.0000  0.0396  0.0000  0.0000  0.0000  0.0000  0.0000 </r>
        <r>  0.0000  0.0000  0.0000  0.0396  0.0000  0.0000  0.0000  0.0000  0.0000 </r>
        <r>  0.0000  0.0000  0.0396  0.0000  0.0000  0.0000  0.0000  0.0000  0.0000 </r>
       </set>
       <set comment="band 46">
        <r>  0.0000  0.0000  0.0000  0.0000  0.0000  0.0137  0.0000  0.0137  0.1668 </r>
        <r>  0.0000  0.0000  0.0000  0.0000  0.0000  0.0137  0.0000  0.0137  0.1668 </r>
        <r>  0.0000  0.0000  0.0000  0.0000  0.0000  0.0137  0.0000  0.0137  0.1668 </r>
        <r>  0.0000  0.0000  0.0000  0.0000  0.0000  0.0137  0.0000  0.0137  0.1668 </r>
        <r>  0.0000  0.0000  0.0000  0.0063  0.0000  0.0000  0.0000  0.0000  0.0000 </r>
        <r>  0.0000  0.0000  0.0000  0.0000  0.0000  0.0000  0.0000  0.0000  0.0000 </r>
        <r>  0.0000  0.0000  0.0000  0.0063  0.0000  0.0000  0.0000  0.0000  0.0000 </r>
        <r>  0.0000  0.0063  0.0000  0.0000  0.0000  0.0000  0.0000  0.0000  0.0000 </r>
        <r>  0.0000  0.0063  0.0000  0.0000  0.0000  0.0000  0.0000  0.0000  0.0000 </r>
        <r>  0.0000  0.0000  0.0000  0.0000  0.0000  0.0000  0.0000  0.0000  0.0000 </r>
       </set>
       <set comment="band 47">
        <r>  0.0000  0.0000  0.0000  0.0000  0.0137  0.0000  0.1251  0.0137  0.0417 </r>
        <r>  0.0000  0.0000  0.0000  0.0000  0.0137  0.0000  0.1251  0.0137  0.0417 </r>
        <r>  0.0000  0.0000  0.0000  0.0000  0.0137  0.0000  0.1251  0.0137  0.0417 </r>
        <r>  0.0000  0.0000  0.0000  0.0000  0.0137  0.0000  0.1251  0.0137  0.0417 </r>
        <r>  0.0000  0.0000  0.0063  0.0000  0.0000  0.0000  0.0000  0.0000  0.0000 </r>
        <r>  0.0000  0.0063  0.0000  0.0000  0.0000  0.0000  0.0000  0.0000  0.0000 </r>
        <r>  0.0000  0.0000  0.0063  0.0000  0.0000  0.0000  0.0000  0.0000  0.0000 </r>
        <r>  0.0000  0.0000  0.0000  0.0000  0.0000  0.0000  0.0000  0.0000  0.0000 </r>
        <r>  0.0000  0.0000  0.0000  0.0000  0.0000  0.0000  0.0000  0.0000  0.0000 </r>
        <r>  0.0000  0.0063  0.0000  0.0000  0.0000  0.0000  0.0000  0.0000  0.0000 </r>
       </set>
       <set comment="band 48">
        <r>  0.0000  0.0000  0.0000  0.0000  0.0137  0.0137  0.1251  0.0000  0.0417 </r>
        <r>  0.0000  0.0000  0.0000  0.0000  0.0137  0.0137  0.1251  0.0000  0.0417 </r>
        <r>  0.0000  0.0000  0.0000  0.0000  0.0137  0.0137  0.1251  0.0000  0.0417 </r>
        <r>  0.0000  0.0000  0.0000  0.0000  0.0137  0.0137  0.1251  0.0000  0.0417 </r>
        <r>  0.0000  0.0000  0.0000  0.0000  0.0000  0.0000  0.0000  0.0000  0.0000 </r>
        <r>  0.0000  0.0000  0.0000  0.0063  0.0000  0.0000  0.0000  0.0000  0.0000 </r>
        <r>  0.0000  0.0000  0.0000  0.0000  0.0000  0.0000  0.0000  0.0000  0.0000 </r>
        <r>  0.0000  0.0000  0.0063  0.0000  0.0000  0.0000  0.0000  0.0000  0.0000 </r>
        <r>  0.0000  0.0000  0.0063  0.0000  0.0000  0.0000  0.0000  0.0000  0.0000 </r>
        <r>  0.0000  0.0000  0.0000  0.0063  0.0000  0.0000  0.0000  0.0000  0.0000 </r>
       </set>
      </set>
     </set>
    </set>
   </array>
  </projected>
 </calculation>
 <structure name="finalpos" >
  <crystal>
   <varray name="basis" >
    <v>       5.31091996       0.00000000       0.00000000 </v>
    <v>       0.00000000       5.31091996       0.00000000 </v>
    <v>       0.00000000       0.00000000       5.31091996 </v>
   </varray>
   <i name="volume">    149.79912240 </i>
   <varray name="rec_basis" >
    <v>       0.18829130       0.00000000       0.00000000 </v>
    <v>       0.00000000       0.18829130       0.00000000 </v>
    <v>       0.00000000       0.00000000       0.18829130 </v>
   </varray>
  </crystal>
  <varray name="positions" >
   <v>       0.25000000       0.25000000       0.75000000 </v>
   <v>       0.75000000       0.25000000       0.25000000 </v>
   <v>       0.25000000       0.75000000       0.25000000 </v>
   <v>       0.75000000       0.75000000       0.75000000 </v>
   <v>       0.50000000       0.00000000       0.50000000 </v>
   <v>       0.50000000       0.50000000       0.00000000 </v>
   <v>       0.00000000       0.50000000       0.00000000 </v>
   <v>       0.00000000       0.50000000       0.50000000 </v>
   <v>       0.50000000       0.00000000       0.00000000 </v>
   <v>       0.00000000       0.00000000       0.50000000 </v>
  </varray>
 </structure>
</modeling>
