<?xml version="1.0" encoding="ISO-8859-1"?>
<modeling>
 <generator>
  <i name="program" type="string">vasp </i>
  <i name="version" type="string">5.4.4.18Apr17-6-g9f103f2a35  </i>
  <i name="subversion" type="string">(build Sep 10 2019 12:14:21) complex            parallel </i>
  <i name="platform" type="string">LinuxIFC </i>
  <i name="date" type="string">2020 10 23 </i>
  <i name="time" type="string">11:41:13 </i>
 </generator>
 <incar>
  <i type="string" name="PREC">accurate</i>
  <i type="string" name="ALGO"> All</i>
  <i type="int" name="ISPIN">     2</i>
  <i type="int" name="ICHARG">     1</i>
  <i type="int" name="NELM">   200</i>
  <i type="int" name="IBRION">     2</i>
  <i name="EDIFF">      0.00001000</i>
  <i name="EDIFFG">     -0.02000000</i>
  <i type="int" name="NSW">    99</i>
  <i type="int" name="ISIF">     3</i>
  <i name="ENCUT">    680.00000000</i>
  <i name="ENAUG">   1360.00000000</i>
  <v name="MAGMOM">      0.60000000</v>
  <i type="string" name="LREAL"> Auto</i>
  <i type="int" name="ISMEAR">     2</i>
  <i name="SIGMA">      1.50000000</i>
  <i name="KSPACING">      0.22000000</i>
  <i type="logical" name="LWAVE"> F  </i>
  <i type="logical" name="LCHARG"> T  </i>
  <i type="logical" name="LVTOT"> T  </i>
  <i type="int" name="LORBIT">    11</i>
  <i type="logical" name="LELF"> T  </i>
  <i type="logical" name="LASPH"> T  </i>
  <i type="logical" name="LAECHG"> T  </i>
  <v type="int" name="KPOINT_BSE">    -1     0     0     0</v>
  <i type="int" name="NELM">   200</i>
  <i type="string" name="METAGGA"> R2scan</i>
  <i type="logical" name="LASPH"> T  </i>
  <i type="int" name="LMIXTAU">    -1</i>
 </incar>
 <structure name="primitive_cell" >
  <crystal>
   <varray name="basis" >
    <v>       0.00000000       2.00724200       2.00724200 </v>
    <v>       2.00724200       0.00000000       2.00724200 </v>
    <v>       2.00724200       2.00724200       0.00000000 </v>
   </varray>
   <i name="volume">     16.17443812 </i>
   <varray name="rec_basis" >
    <v>      -0.24909802       0.24909802       0.24909802 </v>
    <v>       0.24909802      -0.24909802       0.24909802 </v>
    <v>       0.24909802       0.24909802      -0.24909802 </v>
   </varray>
  </crystal>
  <varray name="positions" >
   <v>       0.00000000       0.00000000       0.00000000 </v>
  </varray>
 </structure>
 <varray name="primitive_index" >
  <v type="int" >        1 </v>
 </varray>
 <kpoints>
  <generation param="Gamma">
   <v type="int" name="divisions">      13       13       13 </v>
   <v name="usershift">      0.00000000       0.00000000       0.00000000 </v>
   <v name="genvec1">      0.07692308       0.00000000       0.00000000 </v>
   <v name="genvec2">      0.00000000       0.07692308       0.00000000 </v>
   <v name="genvec3">      0.00000000       0.00000000       0.07692308 </v>
   <v name="shift">      0.00000000       0.00000000       0.00000000 </v>
  </generation>
  <varray name="kpointlist" >
   <v>       0.00000000       0.00000000       0.00000000 </v>
   <v>       0.07692308       0.00000000       0.00000000 </v>
   <v>       0.15384615       0.00000000       0.00000000 </v>
   <v>       0.23076923       0.00000000       0.00000000 </v>
   <v>       0.30769231       0.00000000       0.00000000 </v>
   <v>       0.38461538       0.00000000       0.00000000 </v>
   <v>       0.46153846       0.00000000       0.00000000 </v>
   <v>       0.07692308       0.07692308       0.00000000 </v>
   <v>       0.15384615       0.07692308       0.00000000 </v>
   <v>       0.23076923       0.07692308       0.00000000 </v>
   <v>       0.30769231       0.07692308       0.00000000 </v>
   <v>       0.38461538       0.07692308       0.00000000 </v>
   <v>       0.46153846       0.07692308       0.00000000 </v>
   <v>      -0.46153846       0.07692308       0.00000000 </v>
   <v>      -0.38461538       0.07692308       0.00000000 </v>
   <v>      -0.30769231       0.07692308       0.00000000 </v>
   <v>      -0.23076923       0.07692308       0.00000000 </v>
   <v>      -0.15384615       0.07692308       0.00000000 </v>
   <v>      -0.07692308       0.07692308       0.00000000 </v>
   <v>       0.15384615       0.15384615       0.00000000 </v>
   <v>       0.23076923       0.15384615       0.00000000 </v>
   <v>       0.30769231       0.15384615       0.00000000 </v>
   <v>       0.38461538       0.15384615       0.00000000 </v>
   <v>       0.46153846       0.15384615       0.00000000 </v>
   <v>      -0.46153846       0.15384615       0.00000000 </v>
   <v>      -0.38461538       0.15384615       0.00000000 </v>
   <v>      -0.30769231       0.15384615       0.00000000 </v>
   <v>      -0.23076923       0.15384615       0.00000000 </v>
   <v>      -0.15384615       0.15384615       0.00000000 </v>
   <v>       0.23076923       0.23076923       0.00000000 </v>
   <v>       0.30769231       0.23076923       0.00000000 </v>
   <v>       0.38461538       0.23076923       0.00000000 </v>
   <v>       0.46153846       0.23076923       0.00000000 </v>
   <v>      -0.46153846       0.23076923       0.00000000 </v>
   <v>      -0.38461538       0.23076923       0.00000000 </v>
   <v>      -0.30769231       0.23076923       0.00000000 </v>
   <v>      -0.23076923       0.23076923       0.00000000 </v>
   <v>       0.30769231       0.30769231       0.00000000 </v>
   <v>       0.38461538       0.30769231       0.00000000 </v>
   <v>       0.46153846       0.30769231       0.00000000 </v>
   <v>      -0.46153846       0.30769231       0.00000000 </v>
   <v>      -0.38461538       0.30769231       0.00000000 </v>
   <v>      -0.30769231       0.30769231       0.00000000 </v>
   <v>       0.38461538       0.38461538       0.00000000 </v>
   <v>       0.46153846       0.38461538       0.00000000 </v>
   <v>      -0.46153846       0.38461538       0.00000000 </v>
   <v>      -0.38461538       0.38461538       0.00000000 </v>
   <v>       0.46153846       0.46153846       0.00000000 </v>
   <v>      -0.46153846       0.46153846       0.00000000 </v>
   <v>       0.23076923       0.15384615       0.07692308 </v>
   <v>       0.30769231       0.15384615       0.07692308 </v>
   <v>       0.38461538       0.15384615       0.07692308 </v>
   <v>       0.46153846       0.15384615       0.07692308 </v>
   <v>      -0.46153846       0.15384615       0.07692308 </v>
   <v>       0.30769231       0.23076923       0.07692308 </v>
   <v>       0.38461538       0.23076923       0.07692308 </v>
   <v>       0.46153846       0.23076923       0.07692308 </v>
   <v>      -0.46153846       0.23076923       0.07692308 </v>
   <v>      -0.38461538       0.23076923       0.07692308 </v>
   <v>      -0.30769231       0.23076923       0.07692308 </v>
   <v>      -0.23076923       0.23076923       0.07692308 </v>
   <v>      -0.15384615       0.23076923       0.07692308 </v>
   <v>       0.38461538       0.30769231       0.07692308 </v>
   <v>       0.46153846       0.30769231       0.07692308 </v>
   <v>      -0.46153846       0.30769231       0.07692308 </v>
   <v>      -0.38461538       0.30769231       0.07692308 </v>
   <v>      -0.30769231       0.30769231       0.07692308 </v>
   <v>      -0.23076923       0.30769231       0.07692308 </v>
   <v>       0.46153846       0.38461538       0.07692308 </v>
   <v>      -0.46153846       0.38461538       0.07692308 </v>
   <v>      -0.38461538       0.38461538       0.07692308 </v>
   <v>      -0.30769231       0.38461538       0.07692308 </v>
   <v>      -0.46153846       0.46153846       0.07692308 </v>
   <v>      -0.38461538       0.46153846       0.07692308 </v>
   <v>       0.46153846       0.30769231       0.15384615 </v>
   <v>      -0.46153846       0.30769231       0.15384615 </v>
   <v>      -0.38461538       0.30769231       0.15384615 </v>
   <v>      -0.46153846       0.38461538       0.15384615 </v>
   <v>      -0.38461538       0.38461538       0.15384615 </v>
   <v>      -0.30769231       0.38461538       0.15384615 </v>
   <v>      -0.23076923       0.38461538       0.15384615 </v>
   <v>      -0.38461538       0.46153846       0.15384615 </v>
   <v>      -0.30769231       0.46153846       0.15384615 </v>
   <v>      -0.30769231       0.46153846       0.23076923 </v>
  </varray>
  <varray name="weights" >
   <v>       0.00045517 </v>
   <v>       0.00364133 </v>
   <v>       0.00364133 </v>
   <v>       0.00364133 </v>
   <v>       0.00364133 </v>
   <v>       0.00364133 </v>
   <v>       0.00364133 </v>
   <v>       0.00273100 </v>
   <v>       0.01092399 </v>
   <v>       0.01092399 </v>
   <v>       0.01092399 </v>
   <v>       0.01092399 </v>
   <v>       0.01092399 </v>
   <v>       0.01092399 </v>
   <v>       0.01092399 </v>
   <v>       0.01092399 </v>
   <v>       0.01092399 </v>
   <v>       0.01092399 </v>
   <v>       0.00546199 </v>
   <v>       0.00273100 </v>
   <v>       0.01092399 </v>
   <v>       0.01092399 </v>
   <v>       0.01092399 </v>
   <v>       0.01092399 </v>
   <v>       0.01092399 </v>
   <v>       0.01092399 </v>
   <v>       0.01092399 </v>
   <v>       0.01092399 </v>
   <v>       0.00546199 </v>
   <v>       0.00273100 </v>
   <v>       0.01092399 </v>
   <v>       0.01092399 </v>
   <v>       0.01092399 </v>
   <v>       0.01092399 </v>
   <v>       0.01092399 </v>
   <v>       0.01092399 </v>
   <v>       0.00546199 </v>
   <v>       0.00273100 </v>
   <v>       0.01092399 </v>
   <v>       0.01092399 </v>
   <v>       0.01092399 </v>
   <v>       0.01092399 </v>
   <v>       0.00546199 </v>
   <v>       0.00273100 </v>
   <v>       0.01092399 </v>
   <v>       0.01092399 </v>
   <v>       0.00546199 </v>
   <v>       0.00273100 </v>
   <v>       0.00546199 </v>
   <v>       0.01092399 </v>
   <v>       0.02184797 </v>
   <v>       0.02184797 </v>
   <v>       0.02184797 </v>
   <v>       0.02184797 </v>
   <v>       0.01092399 </v>
   <v>       0.02184797 </v>
   <v>       0.02184797 </v>
   <v>       0.02184797 </v>
   <v>       0.02184797 </v>
   <v>       0.02184797 </v>
   <v>       0.02184797 </v>
   <v>       0.01092399 </v>
   <v>       0.01092399 </v>
   <v>       0.02184797 </v>
   <v>       0.02184797 </v>
   <v>       0.02184797 </v>
   <v>       0.02184797 </v>
   <v>       0.01092399 </v>
   <v>       0.01092399 </v>
   <v>       0.02184797 </v>
   <v>       0.02184797 </v>
   <v>       0.01092399 </v>
   <v>       0.01092399 </v>
   <v>       0.01092399 </v>
   <v>       0.01092399 </v>
   <v>       0.02184797 </v>
   <v>       0.02184797 </v>
   <v>       0.01092399 </v>
   <v>       0.02184797 </v>
   <v>       0.02184797 </v>
   <v>       0.01092399 </v>
   <v>       0.01092399 </v>
   <v>       0.01092399 </v>
   <v>       0.01092399 </v>
  </varray>
 </kpoints>
 <parameters>
  <separator name="general" >
   <i type="string" name="SYSTEM">unknown system</i>
   <i type="logical" name="LCOMPAT"> F  </i>
  </separator>
  <separator name="electronic" >
   <i type="string" name="PREC">accura</i>
   <i name="ENMAX">    680.00000000</i>
   <i name="ENAUG">   1360.00000000</i>
   <i name="EDIFF">      0.00001000</i>
   <i type="int" name="IALGO">    58</i>
   <i type="int" name="IWAVPR">    11</i>
   <i type="int" name="NBANDS">     5</i>
   <i name="NELECT">      3.00000000</i>
   <i type="int" name="TURBO">     0</i>
   <i type="int" name="IRESTART">     0</i>
   <i type="int" name="NREBOOT">     0</i>
   <i type="int" name="NMIN">     0</i>
   <i name="EREF">      0.00000000</i>
   <separator name="electronic smearing" >
    <i type="int" name="ISMEAR">     2</i>
    <i name="SIGMA">      1.50000000</i>
    <i name="KSPACING">      0.22000000</i>
    <i type="logical" name="KGAMMA"> T  </i>
   </separator>
   <separator name="electronic projectors" >
    <i type="logical" name="LREAL"> T  </i>
    <v name="ROPT">     -0.00025000</v>
    <i type="int" name="LMAXPAW">  -100</i>
    <i type="int" name="LMAXMIX">     2</i>
    <i type="logical" name="NLSPLINE"> F  </i>
   </separator>
   <separator name="electronic startup" >
    <i type="int" name="ISTART">     0</i>
    <i type="int" name="ICHARG">     1</i>
    <i type="int" name="INIWAV">     1</i>
   </separator>
   <separator name="electronic spin" >
    <i type="int" name="ISPIN">     2</i>
    <i type="logical" name="LNONCOLLINEAR"> F  </i>
    <v name="MAGMOM">      0.60000000</v>
    <i name="NUPDOWN">     -1.00000000</i>
    <i type="logical" name="LSORBIT"> F  </i>
    <v name="SAXIS">      0.00000000      0.00000000      1.00000000</v>
    <i type="logical" name="LSPIRAL"> F  </i>
    <v name="QSPIRAL">      0.00000000      0.00000000      0.00000000</v>
    <i type="logical" name="LZEROZ"> F  </i>
   </separator>
   <separator name="electronic exchange-correlation" >
    <i type="logical" name="LASPH"> T  </i>
    <i type="logical" name="LMETAGGA"> F  </i>
   </separator>
   <separator name="electronic convergence" >
    <i type="int" name="NELM">   200</i>
    <i type="int" name="NELMDL">    -5</i>
    <i type="int" name="NELMIN">     2</i>
    <i name="ENINI">    680.00000000</i>
    <separator name="electronic convergence detail" >
     <i type="logical" name="LDIAG"> T  </i>
     <i type="logical" name="LSUBROT"> F  </i>
     <i name="WEIMIN">      0.00100000</i>
     <i name="EBREAK">      0.00000050</i>
     <i name="DEPER">      0.30000000</i>
     <i type="int" name="NRMM">     4</i>
     <i name="TIME">      0.40000000</i>
    </separator>
   </separator>
   <separator name="electronic mixer" >
    <i name="AMIX">      0.40000000</i>
    <i name="BMIX">      1.00000000</i>
    <i name="AMIN">      0.10000000</i>
    <i name="AMIX_MAG">      1.60000000</i>
    <i name="BMIX_MAG">      1.00000000</i>
    <separator name="electronic mixer details" >
     <i type="int" name="IMIX">     4</i>
     <i type="logical" name="MIXFIRST"> F  </i>
     <i type="int" name="MAXMIX">   -45</i>
     <i name="WC">    100.00000000</i>
     <i type="int" name="INIMIX">     1</i>
     <i type="int" name="MIXPRE">     1</i>
     <i type="int" name="MREMOVE">     5</i>
    </separator>
   </separator>
   <separator name="electronic dipolcorrection" >
    <i type="logical" name="LDIPOL"> F  </i>
    <i type="logical" name="LMONO"> F  </i>
    <i type="int" name="IDIPOL">     0</i>
    <i name="EPSILON">      1.00000000</i>
    <v name="DIPOL">   -100.00000000   -100.00000000   -100.00000000</v>
    <i name="EFIELD">      0.00000000</i>
   </separator>
  </separator>
  <separator name="grids" >
   <i type="int" name="NGX">    24</i>
   <i type="int" name="NGY">    24</i>
   <i type="int" name="NGZ">    24</i>
   <i type="int" name="NGXF">    48</i>
   <i type="int" name="NGYF">    48</i>
   <i type="int" name="NGZF">    48</i>
   <i type="logical" name="ADDGRID"> F  </i>
  </separator>
  <separator name="ionic" >
   <i type="int" name="NSW">    99</i>
   <i type="int" name="IBRION">     2</i>
   <i type="int" name="MDALGO">     0</i>
   <i type="int" name="ISIF">     3</i>
   <i name="PSTRESS">      0.00000000</i>
   <i name="EDIFFG">     -0.02000000</i>
   <i type="int" name="NFREE">     1</i>
   <i name="POTIM">      0.50000000</i>
   <i name="SMASS">     -3.00000000</i>
   <i name="SCALEE">      1.00000000</i>
  </separator>
  <separator name="ionic md" >
   <i name="TEBEG">      0.00010000</i>
   <i name="TEEND">      0.00010000</i>
   <i type="int" name="NBLOCK">     1</i>
   <i type="int" name="KBLOCK">    99</i>
   <i type="int" name="NPACO">   256</i>
   <i name="APACO">     16.00000000</i>
  </separator>
  <separator name="symmetry" >
   <i type="int" name="ISYM">     2</i>
   <i name="SYMPREC">      0.00001000</i>
  </separator>
  <separator name="dos" >
   <i type="int" name="LORBIT">    11</i>
   <v name="RWIGS">     -1.00000000</v>
   <i type="int" name="NEDOS">   301</i>
   <i name="EMIN">     10.00000000</i>
   <i name="EMAX">    -10.00000000</i>
   <i name="EFERMI">      0.00000000</i>
  </separator>
  <separator name="writing" >
   <i type="int" name="NWRITE">     2</i>
   <i type="logical" name="LWAVE"> F  </i>
   <i type="logical" name="LDOWNSAMPLE"> F  </i>
   <i type="logical" name="LCHARG"> T  </i>
   <i type="logical" name="LPARD"> F  </i>
   <i type="logical" name="LVTOT"> T  </i>
   <i type="logical" name="LVHAR"> F  </i>
   <i type="logical" name="LELF"> T  </i>
   <i type="logical" name="LOPTICS"> F  </i>
   <v name="STM">      0.00000000      0.00000000      0.00000000      0.00000000      0.00000000      0.00000000      0.00000000</v>
  </separator>
  <separator name="performance" >
   <i type="int" name="NPAR">     1</i>
   <i type="int" name="NSIM">     4</i>
   <i type="int" name="NBLK">    -1</i>
   <i type="logical" name="LPLANE"> T  </i>
   <i type="logical" name="LSCALAPACK"> F  </i>
   <i type="logical" name="LSCAAWARE"> F  </i>
   <i type="logical" name="LSCALU"> F  </i>
   <i type="logical" name="LASYNC"> F  </i>
   <i type="logical" name="LORBITALREAL"> F  </i>
  </separator>
  <separator name="miscellaneous" >
   <i type="int" name="IDIOT">     3</i>
   <i type="int" name="ISPECIAL">     0</i>
   <i type="logical" name="LMUSIC"> F  </i>
   <v name="POMASS">     26.98100000</v>
   <v name="DARWINR">      0.00000000</v>
   <v name="DARWINV">      1.00000000</v>
   <i type="logical" name="LCORR"> T  </i>
  </separator>
  <i type="logical" name="GGA_COMPAT"> T  </i>
  <i type="logical" name="LBERRY"> F  </i>
  <i type="int" name="ICORELEVEL">     0</i>
  <i type="logical" name="LDAU"> F  </i>
  <i type="int" name="I_CONSTRAINED_M">     0</i>
  <separator name="electronic exchange-correlation" >
   <i type="string" name="GGA">--</i>
   <i type="int" name="VOSKOWN">     0</i>
   <i type="logical" name="LHFCALC"> F  </i>
   <i type="string" name="PRECFOCK"></i>
   <i type="logical" name="LSYMGRAD"> F  </i>
   <i type="logical" name="LHFONE"> F  </i>
   <i type="logical" name="LRHFCALC"> F  </i>
   <i type="logical" name="LTHOMAS"> F  </i>
   <i type="logical" name="LMODELHF"> F  </i>
   <i name="ENCUT4O">     -1.00000000</i>
   <i type="int" name="EXXOEP">     0</i>
   <i type="int" name="FOURORBIT">     0</i>
   <i name="AEXX">      0.00000000</i>
   <i name="HFALPHA">      0.00000000</i>
   <i name="MCALPHA">      0.00000000</i>
   <i name="ALDAX">      1.00000000</i>
   <i name="AGGAX">      1.00000000</i>
   <i name="ALDAC">      1.00000000</i>
   <i name="AGGAC">      1.00000000</i>
   <i type="int" name="NKREDX">     1</i>
   <i type="int" name="NKREDY">     1</i>
   <i type="int" name="NKREDZ">     1</i>
   <i type="logical" name="SHIFTRED"> F  </i>
   <i type="logical" name="ODDONLY"> F  </i>
   <i type="logical" name="EVENONLY"> F  </i>
   <i type="int" name="LMAXFOCK">     0</i>
   <i type="int" name="NMAXFOCKAE">     0</i>
   <i type="logical" name="LFOCKAEDFT"> F  </i>
   <i name="HFSCREEN">      0.00000000</i>
   <i name="HFSCREENC">      0.00000000</i>
   <i type="int" name="NBANDSGWLOW">     0</i>
  </separator>
  <separator name="vdW DFT" >
   <i type="logical" name="LUSE_VDW"> F  </i>
   <i name="Zab_VDW">     -0.84910000</i>
   <i name="PARAM1">      0.12340000</i>
   <i name="PARAM2">      1.00000000</i>
   <i name="PARAM3">      0.00000000</i>
  </separator>
  <separator name="model GW" >
   <i type="int" name="MODEL_GW">     0</i>
   <i name="MODEL_EPS0">      9.70466287</i>
   <i name="MODEL_ALPHA">      1.00000000</i>
  </separator>
  <separator name="linear response parameters" >
   <i type="logical" name="LEPSILON"> F  </i>
   <i type="logical" name="LRPA"> F  </i>
   <i type="logical" name="LNABLA"> F  </i>
   <i type="logical" name="LVEL"> F  </i>
   <i type="int" name="KINTER">     0</i>
   <i name="CSHIFT">      0.10000000</i>
   <i name="OMEGAMAX">     -1.00000000</i>
   <i name="DEG_THRESHOLD">      0.00200000</i>
   <i name="RTIME">     -0.10000000</i>
   <i name="WPLASMAI">      0.00000000</i>
   <v name="DFIELD">      0.00000000      0.00000000      0.00000000</v>
   <v name="WPLASMA">      0.00000000      0.00000000      0.00000000      0.00000000      0.00000000      0.00000000      0.00000000      0.00000000      0.00000000</v>
  </separator>
  <separator name="orbital magnetization" >
   <i type="logical" name="NUCIND"> F  </i>
   <v name="MAGPOS">      0.00000000      0.00000000      0.00000000</v>
   <i type="logical" name="LNICSALL"> T  </i>
   <i type="logical" name="ORBITALMAG"> F  </i>
   <i type="logical" name="LMAGBLOCH"> F  </i>
   <i type="logical" name="LCHIMAG"> F  </i>
   <i type="logical" name="LGAUGE"> T  </i>
   <i type="int" name="MAGATOM">     0</i>
   <v name="MAGDIPOL">      0.00000000      0.00000000      0.00000000</v>
   <v name="AVECCONST">      0.00000000      0.00000000      0.00000000</v>
  </separator>
  <separator name="response functions" >
   <i type="logical" name="LADDER"> F  </i>
   <i type="logical" name="LRPAFORCE"> F  </i>
   <i type="logical" name="LFXC"> F  </i>
   <i type="logical" name="LHARTREE"> T  </i>
   <i type="int" name="IBSE">     0</i>
   <v type="int" name="KPOINT">    -1     0     0     0</v>
   <i type="logical" name="LTCTE"> F  </i>
   <i type="logical" name="LTETE"> F  </i>
   <i type="logical" name="LTRIPLET"> F  </i>
   <i type="logical" name="LFXCEPS"> F  </i>
   <i type="logical" name="LFXHEG"> F  </i>
   <i type="int" name="NATURALO">     2</i>
   <i type="logical" name="L2ORDER"> F  </i>
   <i type="logical" name="LMP2LT"> F  </i>
   <i type="logical" name="LUSEW"> F  </i>
   <i name="ENCUTGW">     -2.00000000</i>
   <i name="ENCUTGWSOFT">     -2.00000000</i>
   <i name="ENCUTLF">     -1.00000000</i>
   <i type="int" name="LMAXMP2">    -1</i>
   <i name="SCISSOR">      0.00000000</i>
   <i type="int" name="NOMEGA">     0</i>
   <i type="int" name="NOMEGAR">     0</i>
   <i type="int" name="NBANDSGW">    -1</i>
   <i type="int" name="NBANDSO">    -1</i>
   <i type="int" name="NBANDSV">    -1</i>
   <i type="int" name="NELM">   200</i>
   <i type="int" name="NELMHF">     1</i>
   <i type="int" name="DIM">     3</i>
   <i type="int" name="ANTIRES">     0</i>
   <i name="OMEGAMAX">    -30.00000000</i>
   <i name="OMEGAMIN">    -30.00000000</i>
   <i name="OMEGATL">   -200.00000000</i>
   <i type="int" name="OMEGAGRID">   140</i>
   <i name="CSHIFT">     -0.10000000</i>
   <i type="logical" name="SELFENERGY"> F  </i>
   <i type="logical" name="LSPECTRAL"> F  </i>
   <i type="logical" name="LSPECTRALGW"> F  </i>
   <i type="logical" name="LSINGLES"> F  </i>
   <i type="logical" name="LFERMIGW"> F  </i>
   <i type="logical" name="ODDONLYGW"> F  </i>
   <i type="logical" name="EVENONLYGW"> F  </i>
   <i type="int" name="NKREDLFX">     1</i>
   <i type="int" name="NKREDLFY">     1</i>
   <i type="int" name="NKREDLFZ">     1</i>
   <i type="int" name="MAXMEM">  2800</i>
   <i type="int" name="TELESCOPE">     0</i>
   <i type="int" name="TAUPAR">     1</i>
   <i type="int" name="OMEGAPAR">    -1</i>
   <i name="LAMBDA">      1.00000000</i>
  </separator>
  <separator name="External order field" >
   <i name="OFIELD_KAPPA">      0.00000000</i>
   <v name="OFIELD_K">      0.00000000      0.00000000      0.00000000</v>
   <i name="OFIELD_Q6_NEAR">      0.00000000</i>
   <i name="OFIELD_Q6_FAR">      0.00000000</i>
   <i name="OFIELD_A">      0.00000000</i>
  </separator>
 </parameters>
 <atominfo>
  <atoms>       1 </atoms>
  <types>       1 </types>
  <array name="atoms" >
   <dimension dim="1">ion</dimension>
   <field type="string">element</field>
   <field type="int">atomtype</field>
   <set>
    <rc><c>Al</c><c>   1</c></rc>
   </set>
  </array>
  <array name="atomtypes" >
   <dimension dim="1">type</dimension>
   <field type="int">atomspertype</field>
   <field type="string">element</field>
   <field>mass</field>
   <field>valence</field>
   <field type="string">pseudopotential</field>
   <set>
    <rc><c>   1</c><c>Al</c><c>     26.98100000</c><c>      3.00000000</c><c>  PAW_PBE Al 04Jan2001                  </c></rc>
   </set>
  </array>
 </atominfo>
 <structure name="initialpos" >
  <crystal>
   <varray name="basis" >
    <v>       0.00000000       2.00724200       2.00724200 </v>
    <v>       2.00724200       0.00000000       2.00724200 </v>
    <v>       2.00724200       2.00724200       0.00000000 </v>
   </varray>
   <i name="volume">     16.17443812 </i>
   <varray name="rec_basis" >
    <v>      -0.24909802       0.24909802       0.24909802 </v>
    <v>       0.24909802      -0.24909802       0.24909802 </v>
    <v>       0.24909802       0.24909802      -0.24909802 </v>
   </varray>
  </crystal>
  <varray name="positions" >
   <v>       0.00000000       0.00000000       0.00000000 </v>
  </varray>
 </structure>
 <calculation>
  <scstep>
   <time name="total">    1.00    1.00</time>
   <energy>
    <i name="alphaZ">     -0.20766161 </i>
    <i name="ewald">    -74.00569319 </i>
    <i name="hartreedc">     -0.10690667 </i>
    <i name="XCdc">    -26.08813459 </i>
    <i name="pawpsdc">    151.60438866 </i>
    <i name="pawaedc">   -119.66555382 </i>
    <i name="eentropy">      0.00421294 </i>
    <i name="bandstr">     13.89907963 </i>
    <i name="atom">     53.53856935 </i>
    <i name="e_fr_energy">     -1.02769930 </i>
    <i name="e_wo_entrp">     -1.03191224 </i>
    <i name="e_0_energy">     -1.02875253 </i>
   </energy>
  </scstep>
  <scstep>
   <time name="total">    1.02    1.03</time>
   <energy>
    <i name="e_fr_energy">     -3.71642106 </i>
    <i name="e_wo_entrp">     -3.71373917 </i>
    <i name="e_0_energy">     -3.71575059 </i>
   </energy>
  </scstep>
  <scstep>
   <time name="total">    1.06    1.07</time>
   <energy>
    <i name="e_fr_energy">     -3.74445630 </i>
    <i name="e_wo_entrp">     -3.74173118 </i>
    <i name="e_0_energy">     -3.74377502 </i>
   </energy>
  </scstep>
  <scstep>
   <time name="total">    0.98    0.99</time>
   <energy>
    <i name="e_fr_energy">     -3.74453372 </i>
    <i name="e_wo_entrp">     -3.74180263 </i>
    <i name="e_0_energy">     -3.74385094 </i>
   </energy>
  </scstep>
  <scstep>
   <time name="total">    1.11    1.12</time>
   <energy>
    <i name="e_fr_energy">     -3.74453424 </i>
    <i name="e_wo_entrp">     -3.74180308 </i>
    <i name="e_0_energy">     -3.74385145 </i>
   </energy>
  </scstep>
  <scstep>
   <time name="total">    1.42    1.44</time>
   <energy>
    <i name="alphaZ">     -0.20766161 </i>
    <i name="ewald">    -74.00569319 </i>
    <i name="hartreedc">     -0.10787508 </i>
    <i name="XCdc">    -26.08948365 </i>
    <i name="pawpsdc">    145.66973180 </i>
    <i name="pawaedc">   -113.73100938 </i>
    <i name="eentropy">     -0.00273090 </i>
    <i name="bandstr">     11.19161266 </i>
    <i name="atom">     53.53856935 </i>
    <i name="e_fr_energy">     -3.74454025 </i>
    <i name="e_wo_entrp">     -3.74180935 </i>
    <i name="e_0_energy">     -3.74385752 </i>
   </energy>
  </scstep>
  <structure>
   <crystal>
    <varray name="basis" >
     <v>       0.00000000       2.00724200       2.00724200 </v>
     <v>       2.00724200       0.00000000       2.00724200 </v>
     <v>       2.00724200       2.00724200       0.00000000 </v>
    </varray>
    <i name="volume">     16.17443812 </i>
    <varray name="rec_basis" >
     <v>      -0.24909802       0.24909802       0.24909802 </v>
     <v>       0.24909802      -0.24909802       0.24909802 </v>
     <v>       0.24909802       0.24909802      -0.24909802 </v>
    </varray>
   </crystal>
   <varray name="positions" >
    <v>       0.00000000       0.00000000       0.00000000 </v>
   </varray>
  </structure>
  <varray name="forces" >
   <v>       0.00000000       0.00000000       0.00000000 </v>
  </varray>
  <varray name="stress" >
   <v>      15.38054013       0.00000000       0.00000000 </v>
   <v>      -0.00000000      15.38054013       0.00000000 </v>
   <v>      -0.00000000      -0.00000000      15.38054013 </v>
  </varray>
  <energy>
   <i name="e_fr_energy">     -3.74454025 </i>
   <i name="e_wo_entrp">     -3.74385752 </i>
   <i name="e_0_energy">     -0.00273090 </i>
  </energy>
  <time name="totalsc">    8.82    8.90</time>
 </calculation>
 <calculation>
  <scstep>
   <time name="total">    1.20    1.20</time>
   <energy>
    <i name="alphaZ">     -0.20306408 </i>
    <i name="ewald">    -73.45546163 </i>
    <i name="hartreedc">     -0.10631530 </i>
    <i name="XCdc">    -26.12787497 </i>
    <i name="pawpsdc">    142.13351398 </i>
    <i name="pawaedc">   -110.18455103 </i>
    <i name="eentropy">     -0.00275487 </i>
    <i name="bandstr">     10.66420595 </i>
    <i name="atom">     53.53856935 </i>
    <i name="e_fr_energy">     -3.74370863 </i>
    <i name="e_wo_entrp">     -3.74095376 </i>
    <i name="e_0_energy">     -3.74301991 </i>
   </energy>
  </scstep>
  <scstep>
   <time name="total">    1.20    1.21</time>
   <energy>
    <i name="e_fr_energy">     -3.74578027 </i>
    <i name="e_wo_entrp">     -3.74301120 </i>
    <i name="e_0_energy">     -3.74508801 </i>
   </energy>
  </scstep>
  <scstep>
   <time name="total">    1.16    1.17</time>
   <energy>
    <i name="e_fr_energy">     -3.74608357 </i>
    <i name="e_wo_entrp">     -3.74331266 </i>
    <i name="e_0_energy">     -3.74539084 </i>
   </energy>
  </scstep>
  <scstep>
   <time name="total">    1.16    1.16</time>
   <energy>
    <i name="e_fr_energy">     -3.74613547 </i>
    <i name="e_wo_entrp">     -3.74336421 </i>
    <i name="e_0_energy">     -3.74544265 </i>
   </energy>
  </scstep>
  <scstep>
   <time name="total">    1.32    1.33</time>
   <energy>
    <i name="alphaZ">     -0.20306408 </i>
    <i name="ewald">    -73.45546163 </i>
    <i name="hartreedc">     -0.10442128 </i>
    <i name="XCdc">    -26.13486563 </i>
    <i name="pawpsdc">    139.71921809 </i>
    <i name="pawaedc">   -107.77671860 </i>
    <i name="eentropy">     -0.00277143 </i>
    <i name="bandstr">     10.67337726 </i>
    <i name="atom">     53.53856935 </i>
    <i name="e_fr_energy">     -3.74613778 </i>
    <i name="e_wo_entrp">     -3.74336635 </i>
    <i name="e_0_energy">     -3.74544492 </i>
   </energy>
  </scstep>
  <structure>
   <crystal>
    <varray name="basis" >
     <v>      -0.00000000       2.02227761       2.02227761 </v>
     <v>       2.02227761       0.00000000       2.02227761 </v>
     <v>       2.02227761       2.02227761       0.00000000 </v>
    </varray>
    <i name="volume">     16.54064033 </i>
    <varray name="rec_basis" >
     <v>      -0.24724597       0.24724597       0.24724597 </v>
     <v>       0.24724597      -0.24724597       0.24724597 </v>
     <v>       0.24724597       0.24724597      -0.24724597 </v>
    </varray>
   </crystal>
   <varray name="positions" >
    <v>      -0.00000000       0.00000000       0.00000000 </v>
   </varray>
  </structure>
  <varray name="forces" >
   <v>       0.00000000       0.00000000      -0.00000000 </v>
  </varray>
  <varray name="stress" >
   <v>      -0.89988586      -0.00000000       0.00000000 </v>
   <v>      -0.00000000      -0.89988586       0.00000000 </v>
   <v>      -0.00000000      -0.00000000      -0.89988586 </v>
  </varray>
  <energy>
   <i name="e_fr_energy">     -3.74613778 </i>
   <i name="e_wo_entrp">     -3.74544492 </i>
   <i name="e_0_energy">     -0.00277143 </i>
  </energy>
  <time name="totalsc">    7.69    7.73</time>
  <eigenvalues>
   <array>
    <dimension dim="1">band</dimension>
    <dimension dim="2">kpoint</dimension>
    <dimension dim="3">spin</dimension>
    <field>eigene</field>
    <field>occ</field>
    <set>
     <set comment="spin 1">
      <set comment="kpoint 1">
       <r>   -3.1431    1.0000 </r>
       <r>   20.5799    0.0000 </r>
       <r>   20.5799    0.0000 </r>
       <r>   20.5799    0.0000 </r>
       <r>   22.0533    0.0000 </r>
      </set>
      <set comment="kpoint 2">
       <r>   -2.9825    1.0000 </r>
       <r>   18.2211    0.0000 </r>
       <r>   20.0680    0.0000 </r>
       <r>   20.0681    0.0000 </r>
       <r>   22.7212    0.0000 </r>
      </set>
      <set comment="kpoint 3">
       <r>   -2.5019    1.0000 </r>
       <r>   15.1172    0.0000 </r>
       <r>   19.3997    0.0000 </r>
       <r>   19.3997    0.0000 </r>
       <r>   22.5793    0.0000 </r>
      </set>
      <set comment="kpoint 4">
       <r>   -1.7045    1.0000 </r>
       <r>   12.1257    0.0008 </r>
       <r>   18.9402    0.0000 </r>
       <r>   18.9402    0.0000 </r>
       <r>   22.3466    0.0000 </r>
      </set>
      <set comment="kpoint 5">
       <r>   -0.5955    1.0000 </r>
       <r>    9.3434   -0.0509 </r>
       <r>   18.7351    0.0000 </r>
       <r>   18.7352    0.0000 </r>
       <r>   21.7183    0.0000 </r>
      </set>
      <set comment="kpoint 6">
       <r>    0.8180    1.0000 </r>
       <r>    6.8057    1.0377 </r>
       <r>   18.7951    0.0000 </r>
       <r>   18.7956    0.0000 </r>
       <r>   20.5928    0.0000 </r>
      </set>
      <set comment="kpoint 7">
       <r>    2.5254    1.0000 </r>
       <r>    4.5344    0.9964 </r>
       <r>   19.1231    0.0000 </r>
       <r>   19.1274    0.0000 </r>
       <r>   19.7262    0.0000 </r>
      </set>
      <set comment="kpoint 8">
       <r>   -2.9290    1.0000 </r>
       <r>   19.0183    0.0000 </r>
       <r>   19.0183    0.0000 </r>
       <r>   19.3147    0.0000 </r>
       <r>   21.5592    0.0000 </r>
      </set>
      <set comment="kpoint 9">
       <r>   -2.5552    1.0000 </r>
       <r>   16.2193    0.0000 </r>
       <r>   18.1867    0.0000 </r>
       <r>   19.4068    0.0000 </r>
       <r>   21.8807    0.0000 </r>
      </set>
      <set comment="kpoint 10">
       <r>   -1.8636    1.0000 </r>
       <r>   13.2109    0.0000 </r>
       <r>   17.6133    0.0000 </r>
       <r>   19.0796    0.0000 </r>
       <r>   21.2928    0.0000 </r>
      </set>
      <set comment="kpoint 11">
       <r>   -0.8588    1.0000 </r>
       <r>   10.3677   -0.0047 </r>
       <r>   17.3072    0.0000 </r>
       <r>   18.8371    0.0000 </r>
       <r>   19.8095    0.0000 </r>
      </set>
      <set comment="kpoint 12">
       <r>    0.4528    1.0000 </r>
       <r>    7.7528    0.6521 </r>
       <r>   17.2716    0.0000 </r>
       <r>   18.5375    0.0000 </r>
       <r>   18.8525    0.0000 </r>
      </set>
      <set comment="kpoint 13">
       <r>    2.0622    1.0000 </r>
       <r>    5.3943    0.9994 </r>
       <r>   17.5078    0.0000 </r>
       <r>   17.5641    0.0000 </r>
       <r>   19.1058    0.0000 </r>
      </set>
      <set comment="kpoint 14">
       <r>    3.2850    0.9998 </r>
       <r>    3.9836    0.9988 </r>
       <r>   16.8567    0.0000 </r>
       <r>   18.0168    0.0000 </r>
       <r>   19.6465    0.0000 </r>
      </set>
      <set comment="kpoint 15">
       <r>    1.4934    1.0000 </r>
       <r>    6.1498    1.0364 </r>
       <r>   16.4291    0.0000 </r>
       <r>   18.7970    0.0000 </r>
       <r>   20.4619    0.0000 </r>
      </set>
      <set comment="kpoint 16">
       <r>   -0.0180    1.0000 </r>
       <r>    8.5947    0.1146 </r>
       <r>   16.2838    0.0000 </r>
       <r>   19.8277    0.0000 </r>
       <r>   20.4722    0.0000 </r>
      </set>
      <set comment="kpoint 17">
       <r>   -1.2281    1.0000 </r>
       <r>   11.2847    0.0042 </r>
       <r>   16.4227    0.0000 </r>
       <r>   20.5053    0.0000 </r>
       <r>   21.1991    0.0000 </r>
      </set>
      <set comment="kpoint 18">
       <r>   -2.1292    1.0000 </r>
       <r>   14.1707    0.0000 </r>
       <r>   16.8577    0.0000 </r>
       <r>   20.8409    0.0000 </r>
       <r>   22.5479    0.0000 </r>
      </set>
      <set comment="kpoint 19">
       <r>   -2.7153    1.0000 </r>
       <r>   16.9277    0.0000 </r>
       <r>   17.8146    0.0000 </r>
       <r>   20.9962    0.0000 </r>
       <r>   22.3015    0.0000 </r>
      </set>
      <set comment="kpoint 20">
       <r>   -2.2888    1.0000 </r>
       <r>   17.2386    0.0000 </r>
       <r>   17.2386    0.0000 </r>
       <r>   17.4270    0.0000 </r>
       <r>   20.4536    0.0000 </r>
      </set>
      <set comment="kpoint 21">
       <r>   -1.7044    1.0000 </r>
       <r>   14.4974    0.0000 </r>
       <r>   16.5620    0.0000 </r>
       <r>   17.8359    0.0000 </r>
       <r>   19.1918    0.0000 </r>
      </set>
      <set comment="kpoint 22">
       <r>   -0.8061    1.0000 </r>
       <r>   11.6494    0.0024 </r>
       <r>   16.1584    0.0000 </r>
       <r>   17.4690    0.0000 </r>
       <r>   17.8277    0.0000 </r>
      </set>
      <set comment="kpoint 23">
       <r>    0.4002    1.0000 </r>
       <r>    8.9802   -0.0130 </r>
       <r>   16.0279    0.0000 </r>
       <r>   16.1408    0.0000 </r>
       <r>   17.7369    0.0000 </r>
      </set>
      <set comment="kpoint 24">
       <r>    1.9063    1.0000 </r>
       <r>    6.5479    1.0516 </r>
       <r>   15.0437    0.0000 </r>
       <r>   16.1709    0.0000 </r>
       <r>   17.9294    0.0000 </r>
      </set>
      <set comment="kpoint 25">
       <r>    3.6878    0.9994 </r>
       <r>    4.3929    0.9971 </r>
       <r>   14.2284    0.0000 </r>
       <r>   16.5879    0.0000 </r>
       <r>   18.4021    0.0000 </r>
      </set>
      <set comment="kpoint 26">
       <r>    2.4739    1.0000 </r>
       <r>    5.7890    1.0143 </r>
       <r>   13.7046    0.0000 </r>
       <r>   17.2789    0.0000 </r>
       <r>   19.1580    0.0000 </r>
      </set>
      <set comment="kpoint 27">
       <r>    0.8698    1.0000 </r>
       <r>    8.1226    0.3946 </r>
       <r>   13.4832    0.0000 </r>
       <r>   18.2419    0.0000 </r>
       <r>   20.1878    0.0000 </r>
      </set>
      <set comment="kpoint 28">
       <r>   -0.4378    1.0000 </r>
       <r>   10.6637    0.0027 </r>
       <r>   13.6011    0.0000 </r>
       <r>   19.4684    0.0000 </r>
       <r>   21.4682    0.0000 </r>
      </set>
      <set comment="kpoint 29">
       <r>   -1.4396    1.0000 </r>
       <r>   13.0333    0.0000 </r>
       <r>   14.4033    0.0000 </r>
       <r>   20.9246    0.0000 </r>
       <r>   22.2406    0.0000 </r>
      </set>
      <set comment="kpoint 30">
       <r>   -1.2282    1.0000 </r>
       <r>   15.7873    0.0000 </r>
       <r>   15.7873    0.0000 </r>
       <r>   15.7973    0.0000 </r>
       <r>   17.1660    0.0000 </r>
      </set>
      <set comment="kpoint 31">
       <r>   -0.4381    1.0000 </r>
       <r>   13.1326    0.0000 </r>
       <r>   15.2881    0.0000 </r>
       <r>   15.3878    0.0000 </r>
       <r>   16.5145    0.0000 </r>
      </set>
      <set comment="kpoint 32">
       <r>    0.6603    1.0000 </r>
       <r>   10.4636   -0.0016 </r>
       <r>   13.8983    0.0000 </r>
       <r>   15.0637    0.0000 </r>
       <r>   16.6291    0.0000 </r>
      </set>
      <set comment="kpoint 33">
       <r>    2.0588    1.0000 </r>
       <r>    7.9804    0.4941 </r>
       <r>   12.6867    0.0001 </r>
       <r>   15.1135    0.0000 </r>
       <r>   16.7887    0.0000 </r>
      </set>
      <set comment="kpoint 34">
       <r>    3.7427    0.9993 </r>
       <r>    5.7432    1.0120 </r>
       <r>   11.7664    0.0019 </r>
       <r>   15.4377    0.0000 </r>
       <r>   17.1905    0.0000 </r>
      </set>
      <set comment="kpoint 35">
       <r>    3.7505    0.9993 </r>
       <r>    5.7196    1.0108 </r>
       <r>   11.1536    0.0047 </r>
       <r>   16.0367    0.0000 </r>
       <r>   17.8718    0.0000 </r>
      </set>
      <set comment="kpoint 36">
       <r>    2.0617    1.0000 </r>
       <r>    7.8907    0.5572 </r>
       <r>   10.8955    0.0048 </r>
       <r>   16.9105    0.0000 </r>
       <r>   18.8319    0.0000 </r>
      </set>
      <set comment="kpoint 37">
       <r>    0.6613    1.0000 </r>
       <r>    9.8786   -0.0310 </r>
       <r>   11.3826    0.0037 </r>
       <r>   18.0571    0.0000 </r>
       <r>   20.0497    0.0000 </r>
      </set>
      <set comment="kpoint 38">
       <r>    0.2426    1.0000 </r>
       <r>   13.4992    0.0000 </r>
       <r>   14.5475    0.0000 </r>
       <r>   14.6950    0.0000 </r>
       <r>   14.6950    0.0000 </r>
      </set>
      <set comment="kpoint 39">
       <r>    1.2306    1.0000 </r>
       <r>   11.8337    0.0016 </r>
       <r>   12.2107    0.0006 </r>
       <r>   14.3772    0.0000 </r>
       <r>   15.5155    0.0000 </r>
      </set>
      <set comment="kpoint 40">
       <r>    2.5168    1.0000 </r>
       <r>    9.6421   -0.0451 </r>
       <r>   10.6059    0.0018 </r>
       <r>   14.3341    0.0000 </r>
       <r>   15.8283    0.0000 </r>
      </set>
      <set comment="kpoint 41">
       <r>    4.0835    0.9985 </r>
       <r>    7.3704    0.8755 </r>
       <r>    9.5722   -0.0482 </r>
       <r>   14.5654    0.0000 </r>
       <r>   16.1934    0.0000 </r>
      </set>
      <set comment="kpoint 42">
       <r>    5.2990    0.9975 </r>
       <r>    5.9147    1.0215 </r>
       <r>    8.9028    0.0046 </r>
       <r>   15.0715    0.0000 </r>
       <r>   16.8023    0.0000 </r>
      </set>
      <set comment="kpoint 43">
       <r>    3.5485    0.9996 </r>
       <r>    7.5129    0.8013 </r>
       <r>    8.9946   -0.0159 </r>
       <r>   15.8531    0.0000 </r>
       <r>   17.6858    0.0000 </r>
      </set>
      <set comment="kpoint 44">
       <r>    2.1050    1.0000 </r>
       <r>   10.1596   -0.0141 </r>
       <r>   13.7066    0.0000 </r>
       <r>   13.9668    0.0000 </r>
       <r>   13.9668    0.0000 </r>
      </set>
      <set comment="kpoint 45">
       <r>    3.2704    0.9998 </r>
       <r>    8.7303    0.0581 </r>
       <r>   11.5753    0.0027 </r>
       <r>   13.8310    0.0000 </r>
       <r>   14.9128    0.0000 </r>
      </set>
      <set comment="kpoint 46">
       <r>    4.6820    0.9957 </r>
       <r>    7.6343    0.7290 </r>
       <r>    9.3131   -0.0501 </r>
       <r>   13.9696    0.0000 </r>
       <r>   15.4212    0.0000 </r>
      </set>
      <set comment="kpoint 47">
       <r>    5.9397    1.0231 </r>
       <r>    6.9885    1.0078 </r>
       <r>    7.5287    0.7925 </r>
       <r>   14.3828    0.0000 </r>
       <r>   15.9916    0.0000 </r>
      </set>
      <set comment="kpoint 48">
       <r>    4.2804    0.9977 </r>
       <r>    7.2431    0.9307 </r>
       <r>   13.2846    0.0000 </r>
       <r>   13.6029    0.0000 </r>
       <r>   13.6029    0.0000 </r>
      </set>
      <set comment="kpoint 49">
       <r>    5.1548    0.9958 </r>
       <r>    6.4773    1.0512 </r>
       <r>   11.3762    0.0037 </r>
       <r>   13.6491    0.0000 </r>
       <r>   14.7110    0.0000 </r>
      </set>
      <set comment="kpoint 50">
       <r>   -2.0760    1.0000 </r>
       <r>   14.9960    0.0000 </r>
       <r>   16.1091    0.0000 </r>
       <r>   19.9776    0.0000 </r>
       <r>   21.1141    0.0000 </r>
      </set>
      <set comment="kpoint 51">
       <r>   -1.2810    1.0000 </r>
       <r>   12.4247    0.0003 </r>
       <r>   15.2398    0.0000 </r>
       <r>   19.4951    0.0000 </r>
       <r>   20.1244    0.0000 </r>
      </set>
      <set comment="kpoint 52">
       <r>   -0.1753    1.0000 </r>
       <r>    9.7090   -0.0415 </r>
       <r>   14.9618    0.0000 </r>
       <r>   18.0546    0.0000 </r>
       <r>   20.0411    0.0000 </r>
      </set>
      <set comment="kpoint 53">
       <r>    1.2337    1.0000 </r>
       <r>    7.1959    0.9483 </r>
       <r>   14.9967    0.0000 </r>
       <r>   16.8792    0.0000 </r>
       <r>   20.1423    0.0000 </r>
      </set>
      <set comment="kpoint 54">
       <r>    2.9346    1.0000 </r>
       <r>    4.9378    0.9951 </r>
       <r>   15.3065    0.0000 </r>
       <r>   15.9987    0.0000 </r>
       <r>   20.4795    0.0000 </r>
      </set>
      <set comment="kpoint 55">
       <r>   -1.0170    1.0000 </r>
       <r>   13.4304    0.0000 </r>
       <r>   14.6403    0.0000 </r>
       <r>   17.3722    0.0000 </r>
       <r>   18.5269    0.0000 </r>
      </set>
      <set comment="kpoint 56">
       <r>   -0.0184    1.0000 </r>
       <r>   11.0486    0.0049 </r>
       <r>   13.9123    0.0000 </r>
       <r>   15.8110    0.0000 </r>
       <r>   18.9081    0.0000 </r>
      </set>
      <set comment="kpoint 57">
       <r>    1.2846    1.0000 </r>
       <r>    8.5153    0.1533 </r>
       <r>   13.7776    0.0000 </r>
       <r>   14.5501    0.0000 </r>
       <r>   19.0397    0.0000 </r>
      </set>
      <set comment="kpoint 58">
       <r>    2.8818    1.0000 </r>
       <r>    6.1903    1.0389 </r>
       <r>   13.4070    0.0000 </r>
       <r>   14.1335    0.0000 </r>
       <r>   19.3450    0.0000 </r>
      </set>
      <set comment="kpoint 59">
       <r>    4.0924    0.9984 </r>
       <r>    4.7932    0.9953 </r>
       <r>   12.7270    0.0001 </r>
       <r>   14.6161    0.0000 </r>
       <r>   19.9010    0.0000 </r>
      </set>
      <set comment="kpoint 60">
       <r>    2.3189    1.0000 </r>
       <r>    6.9222    1.0209 </r>
       <r>   12.3198    0.0005 </r>
       <r>   15.4208    0.0000 </r>
       <r>   20.7131    0.0000 </r>
      </set>
      <set comment="kpoint 61">
       <r>    0.8175    1.0000 </r>
       <r>    9.2797   -0.0488 </r>
       <r>   12.2557    0.0006 </r>
       <r>   16.5125    0.0000 </r>
       <r>   21.7074    0.0000 </r>
      </set>
      <set comment="kpoint 62">
       <r>   -0.3853    1.0000 </r>
       <r>   11.4573    0.0033 </r>
       <r>   12.9066    0.0001 </r>
       <r>   17.8780    0.0000 </r>
       <r>   21.5755    0.0000 </r>
      </set>
      <set comment="kpoint 63">
       <r>    0.4516    1.0000 </r>
       <r>   12.2492    0.0006 </r>
       <r>   13.3669    0.0000 </r>
       <r>   13.8770    0.0000 </r>
       <r>   17.3814    0.0000 </r>
      </set>
      <set comment="kpoint 64">
       <r>    1.6453    1.0000 </r>
       <r>   10.0547   -0.0200 </r>
       <r>   12.2314    0.0006 </r>
       <r>   13.0630    0.0000 </r>
       <r>   17.9699    0.0000 </r>
      </set>
      <set comment="kpoint 65">
       <r>    3.1322    0.9999 </r>
       <r>    7.7126    0.6788 </r>
       <r>   11.1595    0.0047 </r>
       <r>   13.1049    0.0000 </r>
       <r>   18.3034    0.0000 </r>
      </set>
      <set comment="kpoint 66">
       <r>    4.8765    0.9951 </r>
       <r>    5.6007    1.0057 </r>
       <r>   10.3547   -0.0052 </r>
       <r>   13.5140    0.0000 </r>
       <r>   18.8066    0.0000 </r>
      </set>
      <set comment="kpoint 67">
       <r>    3.6996    0.9994 </r>
       <r>    6.8949    1.0256 </r>
       <r>    9.8983   -0.0298 </r>
       <r>   14.2278    0.0000 </r>
       <r>   19.5585    0.0000 </r>
      </set>
      <set comment="kpoint 68">
       <r>    2.1127    1.0000 </r>
       <r>    8.6952    0.0715 </r>
       <r>   10.1941   -0.0123 </r>
       <r>   15.2310    0.0000 </r>
       <r>   20.5624    0.0000 </r>
      </set>
      <set comment="kpoint 69">
       <r>    2.3111    1.0000 </r>
       <r>   10.3443   -0.0056 </r>
       <r>   11.4594    0.0033 </r>
       <r>   12.8101    0.0001 </r>
       <r>   16.6076    0.0000 </r>
      </set>
      <set comment="kpoint 70">
       <r>    3.6779    0.9995 </r>
       <r>    9.0613   -0.0275 </r>
       <r>    9.5476   -0.0491 </r>
       <r>   12.4310    0.0003 </r>
       <r>   17.3939    0.0000 </r>
      </set>
      <set comment="kpoint 71">
       <r>    5.2810    0.9973 </r>
       <r>    7.2784    0.9165 </r>
       <r>    8.3213    0.2638 </r>
       <r>   12.7071    0.0001 </r>
       <r>   17.9246    0.0000 </r>
      </set>
      <set comment="kpoint 72">
       <r>    5.3594    0.9986 </r>
       <r>    6.7258    1.0451 </r>
       <r>    8.1816    0.3544 </r>
       <r>   13.3184    0.0000 </r>
       <r>   18.6217    0.0000 </r>
      </set>
      <set comment="kpoint 73">
       <r>    4.4814    0.9967 </r>
       <r>    7.4438    0.8388 </r>
       <r>   11.0639    0.0049 </r>
       <r>   12.4191    0.0004 </r>
       <r>   16.2191    0.0000 </r>
      </set>
      <set comment="kpoint 74">
       <r>    5.5471    1.0037 </r>
       <r>    6.8837    1.0273 </r>
       <r>    9.2923   -0.0493 </r>
       <r>   12.2333    0.0006 </r>
       <r>   17.2003    0.0000 </r>
      </set>
      <set comment="kpoint 75">
       <r>    1.0768    1.0000 </r>
       <r>   10.2739   -0.0085 </r>
       <r>   11.7303    0.0020 </r>
       <r>   14.3321    0.0000 </r>
       <r>   20.5089    0.0000 </r>
      </set>
      <set comment="kpoint 76">
       <r>    2.4711    1.0000 </r>
       <r>    8.2853    0.2864 </r>
       <r>   11.2518    0.0043 </r>
       <r>   13.1348    0.0000 </r>
       <r>   21.1857    0.0000 </r>
      </set>
      <set comment="kpoint 77">
       <r>    4.1494    0.9982 </r>
       <r>    6.1209    1.0346 </r>
       <r>   11.4544    0.0033 </r>
       <r>   12.2758    0.0005 </r>
       <r>   21.6084    0.0000 </r>
      </set>
      <set comment="kpoint 78">
       <r>    2.9275    1.0000 </r>
       <r>    9.4846   -0.0508 </r>
       <r>   10.6426    0.0024 </r>
       <r>   11.3280    0.0040 </r>
       <r>   19.7555    0.0000 </r>
      </set>
      <set comment="kpoint 79">
       <r>    4.4888    0.9967 </r>
       <r>    7.6821    0.6986 </r>
       <r>    9.8648   -0.0319 </r>
       <r>   10.8265    0.0044 </r>
       <r>   20.6496    0.0000 </r>
      </set>
      <set comment="kpoint 80">
       <r>    5.6799    1.0090 </r>
       <r>    6.3112    1.0455 </r>
       <r>    9.2688   -0.0482 </r>
       <r>   11.2195    0.0044 </r>
       <r>   21.3038    0.0000 </r>
      </set>
      <set comment="kpoint 81">
       <r>    3.9484    0.9989 </r>
       <r>    7.9069    0.5458 </r>
       <r>    9.3693   -0.0514 </r>
       <r>   12.0183    0.0011 </r>
       <r>   22.1080    0.0000 </r>
      </set>
      <set comment="kpoint 82">
       <r>    5.0829    0.9954 </r>
       <r>    8.0311    0.4583 </r>
       <r>    9.0900   -0.0317 </r>
       <r>   10.6519    0.0026 </r>
       <r>   19.3731    0.0000 </r>
      </set>
      <set comment="kpoint 83">
       <r>    6.3326    1.0465 </r>
       <r>    7.3602    0.8803 </r>
       <r>    7.8461    0.5884 </r>
       <r>   10.5584    0.0008 </r>
       <r>   20.4656    0.0000 </r>
      </set>
      <set comment="kpoint 84">
       <r>    6.0786    1.0319 </r>
       <r>    7.5130    0.8012 </r>
       <r>    8.6619    0.0850 </r>
       <r>    9.4647   -0.0512 </r>
       <r>   22.8973    0.0000 </r>
      </set>
     </set>
     <set comment="spin 2">
      <set comment="kpoint 1">
       <r>   -3.1431    1.0000 </r>
       <r>   20.5799    0.0000 </r>
       <r>   20.5799    0.0000 </r>
       <r>   20.5799    0.0000 </r>
       <r>   22.0533    0.0000 </r>
      </set>
      <set comment="kpoint 2">
       <r>   -2.9825    1.0000 </r>
       <r>   18.2211    0.0000 </r>
       <r>   20.0680    0.0000 </r>
       <r>   20.0681    0.0000 </r>
       <r>   22.7188    0.0000 </r>
      </set>
      <set comment="kpoint 3">
       <r>   -2.5019    1.0000 </r>
       <r>   15.1172    0.0000 </r>
       <r>   19.3997    0.0000 </r>
       <r>   19.3997    0.0000 </r>
       <r>   22.5793    0.0000 </r>
      </set>
      <set comment="kpoint 4">
       <r>   -1.7045    1.0000 </r>
       <r>   12.1257    0.0008 </r>
       <r>   18.9402    0.0000 </r>
       <r>   18.9402    0.0000 </r>
       <r>   22.3464    0.0000 </r>
      </set>
      <set comment="kpoint 5">
       <r>   -0.5955    1.0000 </r>
       <r>    9.3434   -0.0509 </r>
       <r>   18.7351    0.0000 </r>
       <r>   18.7352    0.0000 </r>
       <r>   21.7183    0.0000 </r>
      </set>
      <set comment="kpoint 6">
       <r>    0.8180    1.0000 </r>
       <r>    6.8057    1.0377 </r>
       <r>   18.7951    0.0000 </r>
       <r>   18.7957    0.0000 </r>
       <r>   20.5928    0.0000 </r>
      </set>
      <set comment="kpoint 7">
       <r>    2.5254    1.0000 </r>
       <r>    4.5344    0.9964 </r>
       <r>   19.1231    0.0000 </r>
       <r>   19.1276    0.0000 </r>
       <r>   19.7262    0.0000 </r>
      </set>
      <set comment="kpoint 8">
       <r>   -2.9290    1.0000 </r>
       <r>   19.0183    0.0000 </r>
       <r>   19.0183    0.0000 </r>
       <r>   19.3147    0.0000 </r>
       <r>   21.5591    0.0000 </r>
      </set>
      <set comment="kpoint 9">
       <r>   -2.5552    1.0000 </r>
       <r>   16.2193    0.0000 </r>
       <r>   18.1867    0.0000 </r>
       <r>   19.4068    0.0000 </r>
       <r>   21.8806    0.0000 </r>
      </set>
      <set comment="kpoint 10">
       <r>   -1.8636    1.0000 </r>
       <r>   13.2109    0.0000 </r>
       <r>   17.6133    0.0000 </r>
       <r>   19.0796    0.0000 </r>
       <r>   21.2927    0.0000 </r>
      </set>
      <set comment="kpoint 11">
       <r>   -0.8588    1.0000 </r>
       <r>   10.3677   -0.0047 </r>
       <r>   17.3072    0.0000 </r>
       <r>   18.8371    0.0000 </r>
       <r>   19.8095    0.0000 </r>
      </set>
      <set comment="kpoint 12">
       <r>    0.4528    1.0000 </r>
       <r>    7.7528    0.6521 </r>
       <r>   17.2716    0.0000 </r>
       <r>   18.5375    0.0000 </r>
       <r>   18.8525    0.0000 </r>
      </set>
      <set comment="kpoint 13">
       <r>    2.0622    1.0000 </r>
       <r>    5.3943    0.9994 </r>
       <r>   17.5078    0.0000 </r>
       <r>   17.5641    0.0000 </r>
       <r>   19.1058    0.0000 </r>
      </set>
      <set comment="kpoint 14">
       <r>    3.2850    0.9998 </r>
       <r>    3.9836    0.9988 </r>
       <r>   16.8567    0.0000 </r>
       <r>   18.0168    0.0000 </r>
       <r>   19.6465    0.0000 </r>
      </set>
      <set comment="kpoint 15">
       <r>    1.4934    1.0000 </r>
       <r>    6.1498    1.0364 </r>
       <r>   16.4291    0.0000 </r>
       <r>   18.7970    0.0000 </r>
       <r>   20.4620    0.0000 </r>
      </set>
      <set comment="kpoint 16">
       <r>   -0.0180    1.0000 </r>
       <r>    8.5947    0.1146 </r>
       <r>   16.2838    0.0000 </r>
       <r>   19.8276    0.0000 </r>
       <r>   20.4722    0.0000 </r>
      </set>
      <set comment="kpoint 17">
       <r>   -1.2281    1.0000 </r>
       <r>   11.2847    0.0042 </r>
       <r>   16.4227    0.0000 </r>
       <r>   20.5053    0.0000 </r>
       <r>   21.1991    0.0000 </r>
      </set>
      <set comment="kpoint 18">
       <r>   -2.1292    1.0000 </r>
       <r>   14.1707    0.0000 </r>
       <r>   16.8577    0.0000 </r>
       <r>   20.8409    0.0000 </r>
       <r>   22.5481    0.0000 </r>
      </set>
      <set comment="kpoint 19">
       <r>   -2.7153    1.0000 </r>
       <r>   16.9277    0.0000 </r>
       <r>   17.8146    0.0000 </r>
       <r>   20.9962    0.0000 </r>
       <r>   22.3016    0.0000 </r>
      </set>
      <set comment="kpoint 20">
       <r>   -2.2888    1.0000 </r>
       <r>   17.2386    0.0000 </r>
       <r>   17.2386    0.0000 </r>
       <r>   17.4270    0.0000 </r>
       <r>   20.4546    0.0000 </r>
      </set>
      <set comment="kpoint 21">
       <r>   -1.7044    1.0000 </r>
       <r>   14.4974    0.0000 </r>
       <r>   16.5620    0.0000 </r>
       <r>   17.8359    0.0000 </r>
       <r>   19.1917    0.0000 </r>
      </set>
      <set comment="kpoint 22">
       <r>   -0.8061    1.0000 </r>
       <r>   11.6494    0.0024 </r>
       <r>   16.1584    0.0000 </r>
       <r>   17.4690    0.0000 </r>
       <r>   17.8277    0.0000 </r>
      </set>
      <set comment="kpoint 23">
       <r>    0.4002    1.0000 </r>
       <r>    8.9802   -0.0130 </r>
       <r>   16.0279    0.0000 </r>
       <r>   16.1408    0.0000 </r>
       <r>   17.7369    0.0000 </r>
      </set>
      <set comment="kpoint 24">
       <r>    1.9063    1.0000 </r>
       <r>    6.5479    1.0516 </r>
       <r>   15.0437    0.0000 </r>
       <r>   16.1709    0.0000 </r>
       <r>   17.9294    0.0000 </r>
      </set>
      <set comment="kpoint 25">
       <r>    3.6878    0.9994 </r>
       <r>    4.3929    0.9971 </r>
       <r>   14.2284    0.0000 </r>
       <r>   16.5879    0.0000 </r>
       <r>   18.4021    0.0000 </r>
      </set>
      <set comment="kpoint 26">
       <r>    2.4739    1.0000 </r>
       <r>    5.7890    1.0143 </r>
       <r>   13.7046    0.0000 </r>
       <r>   17.2789    0.0000 </r>
       <r>   19.1580    0.0000 </r>
      </set>
      <set comment="kpoint 27">
       <r>    0.8698    1.0000 </r>
       <r>    8.1226    0.3946 </r>
       <r>   13.4832    0.0000 </r>
       <r>   18.2419    0.0000 </r>
       <r>   20.1877    0.0000 </r>
      </set>
      <set comment="kpoint 28">
       <r>   -0.4378    1.0000 </r>
       <r>   10.6637    0.0027 </r>
       <r>   13.6011    0.0000 </r>
       <r>   19.4684    0.0000 </r>
       <r>   21.4676    0.0000 </r>
      </set>
      <set comment="kpoint 29">
       <r>   -1.4396    1.0000 </r>
       <r>   13.0333    0.0000 </r>
       <r>   14.4033    0.0000 </r>
       <r>   20.9246    0.0000 </r>
       <r>   22.2422    0.0000 </r>
      </set>
      <set comment="kpoint 30">
       <r>   -1.2282    1.0000 </r>
       <r>   15.7873    0.0000 </r>
       <r>   15.7873    0.0000 </r>
       <r>   15.7973    0.0000 </r>
       <r>   17.1660    0.0000 </r>
      </set>
      <set comment="kpoint 31">
       <r>   -0.4381    1.0000 </r>
       <r>   13.1326    0.0000 </r>
       <r>   15.2881    0.0000 </r>
       <r>   15.3878    0.0000 </r>
       <r>   16.5145    0.0000 </r>
      </set>
      <set comment="kpoint 32">
       <r>    0.6603    1.0000 </r>
       <r>   10.4636   -0.0016 </r>
       <r>   13.8983    0.0000 </r>
       <r>   15.0637    0.0000 </r>
       <r>   16.6291    0.0000 </r>
      </set>
      <set comment="kpoint 33">
       <r>    2.0588    1.0000 </r>
       <r>    7.9804    0.4941 </r>
       <r>   12.6867    0.0001 </r>
       <r>   15.1135    0.0000 </r>
       <r>   16.7887    0.0000 </r>
      </set>
      <set comment="kpoint 34">
       <r>    3.7427    0.9993 </r>
       <r>    5.7432    1.0120 </r>
       <r>   11.7664    0.0019 </r>
       <r>   15.4377    0.0000 </r>
       <r>   17.1905    0.0000 </r>
      </set>
      <set comment="kpoint 35">
       <r>    3.7505    0.9993 </r>
       <r>    5.7196    1.0108 </r>
       <r>   11.1536    0.0047 </r>
       <r>   16.0367    0.0000 </r>
       <r>   17.8718    0.0000 </r>
      </set>
      <set comment="kpoint 36">
       <r>    2.0617    1.0000 </r>
       <r>    7.8907    0.5572 </r>
       <r>   10.8955    0.0048 </r>
       <r>   16.9105    0.0000 </r>
       <r>   18.8319    0.0000 </r>
      </set>
      <set comment="kpoint 37">
       <r>    0.6613    1.0000 </r>
       <r>    9.8785   -0.0310 </r>
       <r>   11.3826    0.0037 </r>
       <r>   18.0571    0.0000 </r>
       <r>   20.0497    0.0000 </r>
      </set>
      <set comment="kpoint 38">
       <r>    0.2426    1.0000 </r>
       <r>   13.4992    0.0000 </r>
       <r>   14.5475    0.0000 </r>
       <r>   14.6950    0.0000 </r>
       <r>   14.6950    0.0000 </r>
      </set>
      <set comment="kpoint 39">
       <r>    1.2306    1.0000 </r>
       <r>   11.8337    0.0016 </r>
       <r>   12.2107    0.0006 </r>
       <r>   14.3772    0.0000 </r>
       <r>   15.5155    0.0000 </r>
      </set>
      <set comment="kpoint 40">
       <r>    2.5168    1.0000 </r>
       <r>    9.6421   -0.0451 </r>
       <r>   10.6059    0.0018 </r>
       <r>   14.3341    0.0000 </r>
       <r>   15.8283    0.0000 </r>
      </set>
      <set comment="kpoint 41">
       <r>    4.0835    0.9985 </r>
       <r>    7.3704    0.8755 </r>
       <r>    9.5722   -0.0482 </r>
       <r>   14.5654    0.0000 </r>
       <r>   16.1934    0.0000 </r>
      </set>
      <set comment="kpoint 42">
       <r>    5.2990    0.9975 </r>
       <r>    5.9147    1.0215 </r>
       <r>    8.9028    0.0046 </r>
       <r>   15.0715    0.0000 </r>
       <r>   16.8023    0.0000 </r>
      </set>
      <set comment="kpoint 43">
       <r>    3.5485    0.9996 </r>
       <r>    7.5129    0.8013 </r>
       <r>    8.9946   -0.0159 </r>
       <r>   15.8531    0.0000 </r>
       <r>   17.6858    0.0000 </r>
      </set>
      <set comment="kpoint 44">
       <r>    2.1050    1.0000 </r>
       <r>   10.1596   -0.0141 </r>
       <r>   13.7066    0.0000 </r>
       <r>   13.9668    0.0000 </r>
       <r>   13.9668    0.0000 </r>
      </set>
      <set comment="kpoint 45">
       <r>    3.2704    0.9998 </r>
       <r>    8.7303    0.0581 </r>
       <r>   11.5753    0.0027 </r>
       <r>   13.8310    0.0000 </r>
       <r>   14.9128    0.0000 </r>
      </set>
      <set comment="kpoint 46">
       <r>    4.6820    0.9957 </r>
       <r>    7.6343    0.7290 </r>
       <r>    9.3131   -0.0501 </r>
       <r>   13.9696    0.0000 </r>
       <r>   15.4212    0.0000 </r>
      </set>
      <set comment="kpoint 47">
       <r>    5.9397    1.0231 </r>
       <r>    6.9885    1.0078 </r>
       <r>    7.5287    0.7925 </r>
       <r>   14.3828    0.0000 </r>
       <r>   15.9916    0.0000 </r>
      </set>
      <set comment="kpoint 48">
       <r>    4.2804    0.9977 </r>
       <r>    7.2431    0.9307 </r>
       <r>   13.2845    0.0000 </r>
       <r>   13.6029    0.0000 </r>
       <r>   13.6029    0.0000 </r>
      </set>
      <set comment="kpoint 49">
       <r>    5.1548    0.9958 </r>
       <r>    6.4773    1.0512 </r>
       <r>   11.3762    0.0037 </r>
       <r>   13.6491    0.0000 </r>
       <r>   14.7110    0.0000 </r>
      </set>
      <set comment="kpoint 50">
       <r>   -2.0760    1.0000 </r>
       <r>   14.9960    0.0000 </r>
       <r>   16.1091    0.0000 </r>
       <r>   19.9776    0.0000 </r>
       <r>   21.1142    0.0000 </r>
      </set>
      <set comment="kpoint 51">
       <r>   -1.2810    1.0000 </r>
       <r>   12.4247    0.0003 </r>
       <r>   15.2398    0.0000 </r>
       <r>   19.4951    0.0000 </r>
       <r>   20.1244    0.0000 </r>
      </set>
      <set comment="kpoint 52">
       <r>   -0.1753    1.0000 </r>
       <r>    9.7090   -0.0415 </r>
       <r>   14.9618    0.0000 </r>
       <r>   18.0546    0.0000 </r>
       <r>   20.0411    0.0000 </r>
      </set>
      <set comment="kpoint 53">
       <r>    1.2337    1.0000 </r>
       <r>    7.1959    0.9483 </r>
       <r>   14.9967    0.0000 </r>
       <r>   16.8792    0.0000 </r>
       <r>   20.1423    0.0000 </r>
      </set>
      <set comment="kpoint 54">
       <r>    2.9346    1.0000 </r>
       <r>    4.9378    0.9951 </r>
       <r>   15.3065    0.0000 </r>
       <r>   15.9987    0.0000 </r>
       <r>   20.4786    0.0000 </r>
      </set>
      <set comment="kpoint 55">
       <r>   -1.0170    1.0000 </r>
       <r>   13.4304    0.0000 </r>
       <r>   14.6403    0.0000 </r>
       <r>   17.3722    0.0000 </r>
       <r>   18.5269    0.0000 </r>
      </set>
      <set comment="kpoint 56">
       <r>   -0.0184    1.0000 </r>
       <r>   11.0486    0.0049 </r>
       <r>   13.9123    0.0000 </r>
       <r>   15.8110    0.0000 </r>
       <r>   18.9081    0.0000 </r>
      </set>
      <set comment="kpoint 57">
       <r>    1.2846    1.0000 </r>
       <r>    8.5153    0.1533 </r>
       <r>   13.7776    0.0000 </r>
       <r>   14.5501    0.0000 </r>
       <r>   19.0397    0.0000 </r>
      </set>
      <set comment="kpoint 58">
       <r>    2.8818    1.0000 </r>
       <r>    6.1903    1.0389 </r>
       <r>   13.4070    0.0000 </r>
       <r>   14.1335    0.0000 </r>
       <r>   19.3450    0.0000 </r>
      </set>
      <set comment="kpoint 59">
       <r>    4.0924    0.9984 </r>
       <r>    4.7932    0.9953 </r>
       <r>   12.7270    0.0001 </r>
       <r>   14.6161    0.0000 </r>
       <r>   19.9010    0.0000 </r>
      </set>
      <set comment="kpoint 60">
       <r>    2.3189    1.0000 </r>
       <r>    6.9222    1.0209 </r>
       <r>   12.3198    0.0005 </r>
       <r>   15.4208    0.0000 </r>
       <r>   20.7130    0.0000 </r>
      </set>
      <set comment="kpoint 61">
       <r>    0.8175    1.0000 </r>
       <r>    9.2797   -0.0488 </r>
       <r>   12.2557    0.0006 </r>
       <r>   16.5125    0.0000 </r>
       <r>   21.7206    0.0000 </r>
      </set>
      <set comment="kpoint 62">
       <r>   -0.3853    1.0000 </r>
       <r>   11.4573    0.0033 </r>
       <r>   12.9066    0.0001 </r>
       <r>   17.8780    0.0000 </r>
       <r>   21.5755    0.0000 </r>
      </set>
      <set comment="kpoint 63">
       <r>    0.4516    1.0000 </r>
       <r>   12.2492    0.0006 </r>
       <r>   13.3669    0.0000 </r>
       <r>   13.8770    0.0000 </r>
       <r>   17.3814    0.0000 </r>
      </set>
      <set comment="kpoint 64">
       <r>    1.6453    1.0000 </r>
       <r>   10.0547   -0.0200 </r>
       <r>   12.2314    0.0006 </r>
       <r>   13.0630    0.0000 </r>
       <r>   17.9699    0.0000 </r>
      </set>
      <set comment="kpoint 65">
       <r>    3.1322    0.9999 </r>
       <r>    7.7126    0.6788 </r>
       <r>   11.1595    0.0047 </r>
       <r>   13.1049    0.0000 </r>
       <r>   18.3034    0.0000 </r>
      </set>
      <set comment="kpoint 66">
       <r>    4.8765    0.9951 </r>
       <r>    5.6007    1.0057 </r>
       <r>   10.3547   -0.0052 </r>
       <r>   13.5140    0.0000 </r>
       <r>   18.8066    0.0000 </r>
      </set>
      <set comment="kpoint 67">
       <r>    3.6996    0.9994 </r>
       <r>    6.8949    1.0256 </r>
       <r>    9.8983   -0.0298 </r>
       <r>   14.2278    0.0000 </r>
       <r>   19.5585    0.0000 </r>
      </set>
      <set comment="kpoint 68">
       <r>    2.1127    1.0000 </r>
       <r>    8.6952    0.0716 </r>
       <r>   10.1941   -0.0123 </r>
       <r>   15.2310    0.0000 </r>
       <r>   20.5624    0.0000 </r>
      </set>
      <set comment="kpoint 69">
       <r>    2.3111    1.0000 </r>
       <r>   10.3443   -0.0056 </r>
       <r>   11.4594    0.0033 </r>
       <r>   12.8101    0.0001 </r>
       <r>   16.6076    0.0000 </r>
      </set>
      <set comment="kpoint 70">
       <r>    3.6779    0.9995 </r>
       <r>    9.0613   -0.0275 </r>
       <r>    9.5476   -0.0491 </r>
       <r>   12.4310    0.0003 </r>
       <r>   17.3939    0.0000 </r>
      </set>
      <set comment="kpoint 71">
       <r>    5.2810    0.9973 </r>
       <r>    7.2784    0.9165 </r>
       <r>    8.3213    0.2638 </r>
       <r>   12.7071    0.0001 </r>
       <r>   17.9246    0.0000 </r>
      </set>
      <set comment="kpoint 72">
       <r>    5.3594    0.9986 </r>
       <r>    6.7258    1.0451 </r>
       <r>    8.1816    0.3544 </r>
       <r>   13.3184    0.0000 </r>
       <r>   18.6217    0.0000 </r>
      </set>
      <set comment="kpoint 73">
       <r>    4.4814    0.9967 </r>
       <r>    7.4438    0.8388 </r>
       <r>   11.0639    0.0049 </r>
       <r>   12.4191    0.0004 </r>
       <r>   16.2191    0.0000 </r>
      </set>
      <set comment="kpoint 74">
       <r>    5.5471    1.0037 </r>
       <r>    6.8837    1.0273 </r>
       <r>    9.2923   -0.0493 </r>
       <r>   12.2333    0.0006 </r>
       <r>   17.2003    0.0000 </r>
      </set>
      <set comment="kpoint 75">
       <r>    1.0768    1.0000 </r>
       <r>   10.2739   -0.0085 </r>
       <r>   11.7303    0.0020 </r>
       <r>   14.3321    0.0000 </r>
       <r>   20.5089    0.0000 </r>
      </set>
      <set comment="kpoint 76">
       <r>    2.4711    1.0000 </r>
       <r>    8.2853    0.2864 </r>
       <r>   11.2518    0.0043 </r>
       <r>   13.1348    0.0000 </r>
       <r>   21.1857    0.0000 </r>
      </set>
      <set comment="kpoint 77">
       <r>    4.1494    0.9982 </r>
       <r>    6.1209    1.0346 </r>
       <r>   11.4544    0.0033 </r>
       <r>   12.2758    0.0005 </r>
       <r>   21.6002    0.0000 </r>
      </set>
      <set comment="kpoint 78">
       <r>    2.9275    1.0000 </r>
       <r>    9.4846   -0.0508 </r>
       <r>   10.6426    0.0024 </r>
       <r>   11.3280    0.0040 </r>
       <r>   19.7555    0.0000 </r>
      </set>
      <set comment="kpoint 79">
       <r>    4.4888    0.9967 </r>
       <r>    7.6821    0.6986 </r>
       <r>    9.8648   -0.0319 </r>
       <r>   10.8265    0.0044 </r>
       <r>   20.6496    0.0000 </r>
      </set>
      <set comment="kpoint 80">
       <r>    5.6799    1.0090 </r>
       <r>    6.3112    1.0455 </r>
       <r>    9.2688   -0.0482 </r>
       <r>   11.2195    0.0044 </r>
       <r>   21.3038    0.0000 </r>
      </set>
      <set comment="kpoint 81">
       <r>    3.9484    0.9989 </r>
       <r>    7.9069    0.5458 </r>
       <r>    9.3693   -0.0514 </r>
       <r>   12.0183    0.0011 </r>
       <r>   22.1081    0.0000 </r>
      </set>
      <set comment="kpoint 82">
       <r>    5.0829    0.9954 </r>
       <r>    8.0311    0.4583 </r>
       <r>    9.0900   -0.0317 </r>
       <r>   10.6519    0.0026 </r>
       <r>   19.3730    0.0000 </r>
      </set>
      <set comment="kpoint 83">
       <r>    6.3326    1.0465 </r>
       <r>    7.3602    0.8803 </r>
       <r>    7.8461    0.5884 </r>
       <r>   10.5584    0.0008 </r>
       <r>   20.4657    0.0000 </r>
      </set>
      <set comment="kpoint 84">
       <r>    6.0786    1.0319 </r>
       <r>    7.5130    0.8012 </r>
       <r>    8.6619    0.0850 </r>
       <r>    9.4647   -0.0512 </r>
       <r>   22.8914    0.0000 </r>
      </set>
     </set>
    </set>
   </array>
  </eigenvalues>
  <separator name="orbital magnetization" >
   <v name="MAGDIPOLOUT">      0.00000000      0.00000000      0.00000000</v>
  </separator>
  <dos>
   <i name="efermi">      7.97198689 </i>
   <total>
    <array>
     <dimension dim="1">gridpoints</dimension>
     <dimension dim="2">spin</dimension>
     <field>energy</field>
     <field>total</field>
     <field>integrated</field>
     <set>
      <set comment="spin 1">
       <r>   -18.1431     0.0000     0.0000 </r>
       <r>   -17.9563     0.0000     0.0000 </r>
       <r>   -17.7695     0.0000     0.0000 </r>
       <r>   -17.5827     0.0000     0.0000 </r>
       <r>   -17.3959     0.0000     0.0000 </r>
       <r>   -17.2091     0.0000     0.0000 </r>
       <r>   -17.0223     0.0000     0.0000 </r>
       <r>   -16.8355     0.0000     0.0000 </r>
       <r>   -16.6487     0.0000     0.0000 </r>
       <r>   -16.4619     0.0000     0.0000 </r>
       <r>   -16.2751     0.0000     0.0000 </r>
       <r>   -16.0883     0.0000     0.0000 </r>
       <r>   -15.9015     0.0000     0.0000 </r>
       <r>   -15.7147     0.0000     0.0000 </r>
       <r>   -15.5279     0.0000     0.0000 </r>
       <r>   -15.3411     0.0000     0.0000 </r>
       <r>   -15.1543     0.0000     0.0000 </r>
       <r>   -14.9675     0.0000     0.0000 </r>
       <r>   -14.7807     0.0000     0.0000 </r>
       <r>   -14.5939     0.0000     0.0000 </r>
       <r>   -14.4071     0.0000     0.0000 </r>
       <r>   -14.2203     0.0000     0.0000 </r>
       <r>   -14.0335     0.0000     0.0000 </r>
       <r>   -13.8467     0.0000     0.0000 </r>
       <r>   -13.6599     0.0000     0.0000 </r>
       <r>   -13.4731     0.0000     0.0000 </r>
       <r>   -13.2862     0.0000     0.0000 </r>
       <r>   -13.0994     0.0000     0.0000 </r>
       <r>   -12.9126     0.0000     0.0000 </r>
       <r>   -12.7258     0.0000     0.0000 </r>
       <r>   -12.5390     0.0000     0.0000 </r>
       <r>   -12.3522     0.0000     0.0000 </r>
       <r>   -12.1654     0.0000     0.0000 </r>
       <r>   -11.9786     0.0000     0.0000 </r>
       <r>   -11.7918     0.0000     0.0000 </r>
       <r>   -11.6050     0.0000     0.0000 </r>
       <r>   -11.4182     0.0000     0.0000 </r>
       <r>   -11.2314     0.0000     0.0000 </r>
       <r>   -11.0446     0.0000     0.0000 </r>
       <r>   -10.8578     0.0000     0.0000 </r>
       <r>   -10.6710     0.0000     0.0000 </r>
       <r>   -10.4842     0.0000     0.0000 </r>
       <r>   -10.2974     0.0000     0.0000 </r>
       <r>   -10.1106     0.0000     0.0000 </r>
       <r>    -9.9238     0.0000     0.0000 </r>
       <r>    -9.7370     0.0000     0.0000 </r>
       <r>    -9.5502     0.0000     0.0000 </r>
       <r>    -9.3634     0.0000     0.0000 </r>
       <r>    -9.1766     0.0000     0.0000 </r>
       <r>    -8.9898     0.0000     0.0000 </r>
       <r>    -8.8030     0.0000     0.0000 </r>
       <r>    -8.6162     0.0000     0.0000 </r>
       <r>    -8.4294     0.0000     0.0000 </r>
       <r>    -8.2426     0.0000     0.0000 </r>
       <r>    -8.0558     0.0000     0.0000 </r>
       <r>    -7.8690     0.0000     0.0000 </r>
       <r>    -7.6822     0.0000     0.0000 </r>
       <r>    -7.4954     0.0000     0.0000 </r>
       <r>    -7.3086     0.0000     0.0000 </r>
       <r>    -7.1218     0.0000     0.0000 </r>
       <r>    -6.9350     0.0000     0.0000 </r>
       <r>    -6.7482     0.0001     0.0000 </r>
       <r>    -6.5614     0.0001     0.0001 </r>
       <r>    -6.3746     0.0002     0.0001 </r>
       <r>    -6.1878     0.0002     0.0001 </r>
       <r>    -6.0010     0.0002     0.0002 </r>
       <r>    -5.8142     0.0003     0.0002 </r>
       <r>    -5.6274     0.0002     0.0003 </r>
       <r>    -5.4406     0.0001     0.0003 </r>
       <r>    -5.2538    -0.0001     0.0003 </r>
       <r>    -5.0670    -0.0005     0.0002 </r>
       <r>    -4.8802    -0.0009    -0.0000 </r>
       <r>    -4.6934    -0.0015    -0.0003 </r>
       <r>    -4.5066    -0.0020    -0.0007 </r>
       <r>    -4.3198    -0.0023    -0.0011 </r>
       <r>    -4.1330    -0.0023    -0.0015 </r>
       <r>    -3.9462    -0.0016    -0.0018 </r>
       <r>    -3.7594    -0.0000    -0.0018 </r>
       <r>    -3.5726     0.0026    -0.0013 </r>
       <r>    -3.3858     0.0064    -0.0002 </r>
       <r>    -3.1990     0.0113     0.0020 </r>
       <r>    -3.0122     0.0174     0.0052 </r>
       <r>    -2.8254     0.0243     0.0098 </r>
       <r>    -2.6386     0.0318     0.0157 </r>
       <r>    -2.4518     0.0395     0.0231 </r>
       <r>    -2.2650     0.0472     0.0319 </r>
       <r>    -2.0782     0.0544     0.0421 </r>
       <r>    -1.8914     0.0611     0.0535 </r>
       <r>    -1.7046     0.0672     0.0660 </r>
       <r>    -1.5178     0.0726     0.0796 </r>
       <r>    -1.3310     0.0775     0.0941 </r>
       <r>    -1.1442     0.0819     0.1094 </r>
       <r>    -0.9574     0.0859     0.1254 </r>
       <r>    -0.7706     0.0896     0.1421 </r>
       <r>    -0.5838     0.0931     0.1595 </r>
       <r>    -0.3970     0.0965     0.1776 </r>
       <r>    -0.2102     0.0999     0.1962 </r>
       <r>    -0.0234     0.1032     0.2155 </r>
       <r>     0.1634     0.1065     0.2354 </r>
       <r>     0.3502     0.1097     0.2559 </r>
       <r>     0.5370     0.1128     0.2770 </r>
       <r>     0.7238     0.1159     0.2986 </r>
       <r>     0.9106     0.1189     0.3208 </r>
       <r>     1.0974     0.1218     0.3436 </r>
       <r>     1.2842     0.1248     0.3669 </r>
       <r>     1.4710     0.1278     0.3908 </r>
       <r>     1.6578     0.1307     0.4152 </r>
       <r>     1.8446     0.1337     0.4401 </r>
       <r>     2.0314     0.1366     0.4657 </r>
       <r>     2.2182     0.1393     0.4917 </r>
       <r>     2.4050     0.1419     0.5182 </r>
       <r>     2.5919     0.1444     0.5452 </r>
       <r>     2.7787     0.1469     0.5726 </r>
       <r>     2.9655     0.1495     0.6005 </r>
       <r>     3.1523     0.1522     0.6290 </r>
       <r>     3.3391     0.1553     0.6580 </r>
       <r>     3.5259     0.1585     0.6876 </r>
       <r>     3.7127     0.1618     0.7178 </r>
       <r>     3.8995     0.1650     0.7486 </r>
       <r>     4.0863     0.1681     0.7800 </r>
       <r>     4.2731     0.1710     0.8120 </r>
       <r>     4.4599     0.1736     0.8444 </r>
       <r>     4.6467     0.1762     0.8773 </r>
       <r>     4.8335     0.1787     0.9107 </r>
       <r>     5.0203     0.1811     0.9445 </r>
       <r>     5.2071     0.1832     0.9788 </r>
       <r>     5.3939     0.1847     1.0133 </r>
       <r>     5.5807     0.1854     1.0479 </r>
       <r>     5.7675     0.1851     1.0825 </r>
       <r>     5.9543     0.1842     1.1169 </r>
       <r>     6.1411     0.1828     1.1510 </r>
       <r>     6.3279     0.1816     1.1849 </r>
       <r>     6.5147     0.1812     1.2188 </r>
       <r>     6.7015     0.1822     1.2528 </r>
       <r>     6.8883     0.1845     1.2873 </r>
       <r>     7.0751     0.1879     1.3224 </r>
       <r>     7.2619     0.1920     1.3583 </r>
       <r>     7.4487     0.1960     1.3949 </r>
       <r>     7.6355     0.1992     1.4321 </r>
       <r>     7.8223     0.2014     1.4697 </r>
       <r>     8.0091     0.2025     1.5075 </r>
       <r>     8.1959     0.2030     1.5454 </r>
       <r>     8.3827     0.2034     1.5834 </r>
       <r>     8.5695     0.2044     1.6216 </r>
       <r>     8.7563     0.2064     1.6602 </r>
       <r>     8.9431     0.2093     1.6993 </r>
       <r>     9.1299     0.2128     1.7390 </r>
       <r>     9.3167     0.2165     1.7795 </r>
       <r>     9.5035     0.2197     1.8205 </r>
       <r>     9.6903     0.2222     1.8620 </r>
       <r>     9.8771     0.2239     1.9038 </r>
       <r>    10.0639     0.2248     1.9458 </r>
       <r>    10.2507     0.2255     1.9880 </r>
       <r>    10.4375     0.2263     2.0302 </r>
       <r>    10.6243     0.2275     2.0727 </r>
       <r>    10.8111     0.2292     2.1155 </r>
       <r>    10.9979     0.2313     2.1587 </r>
       <r>    11.1847     0.2338     2.2024 </r>
       <r>    11.3715     0.2366     2.2466 </r>
       <r>    11.5583     0.2394     2.2913 </r>
       <r>    11.7451     0.2425     2.3366 </r>
       <r>    11.9319     0.2458     2.3826 </r>
       <r>    12.1187     0.2495     2.4292 </r>
       <r>    12.3055     0.2535     2.4765 </r>
       <r>    12.4923     0.2577     2.5247 </r>
       <r>    12.6791     0.2619     2.5736 </r>
       <r>    12.8659     0.2660     2.6233 </r>
       <r>    13.0527     0.2696     2.6736 </r>
       <r>    13.2395     0.2727     2.7246 </r>
       <r>    13.4263     0.2752     2.7760 </r>
       <r>    13.6131     0.2771     2.8277 </r>
       <r>    13.7999     0.2785     2.8798 </r>
       <r>    13.9867     0.2794     2.9319 </r>
       <r>    14.1735     0.2800     2.9842 </r>
       <r>    14.3603     0.2801     3.0366 </r>
       <r>    14.5471     0.2797     3.0888 </r>
       <r>    14.7339     0.2787     3.1409 </r>
       <r>    14.9207     0.2772     3.1926 </r>
       <r>    15.1075     0.2751     3.2440 </r>
       <r>    15.2943     0.2727     3.2950 </r>
       <r>    15.4811     0.2700     3.3454 </r>
       <r>    15.6679     0.2673     3.3953 </r>
       <r>    15.8547     0.2650     3.4448 </r>
       <r>    16.0415     0.2630     3.4940 </r>
       <r>    16.2283     0.2616     3.5428 </r>
       <r>    16.4151     0.2607     3.5915 </r>
       <r>    16.6019     0.2604     3.6402 </r>
       <r>    16.7887     0.2605     3.6888 </r>
       <r>    16.9755     0.2609     3.7376 </r>
       <r>    17.1623     0.2615     3.7864 </r>
       <r>    17.3491     0.2622     3.8354 </r>
       <r>    17.5359     0.2627     3.8845 </r>
       <r>    17.7227     0.2632     3.9337 </r>
       <r>    17.9095     0.2637     3.9829 </r>
       <r>    18.0963     0.2643     4.0323 </r>
       <r>    18.2832     0.2652     4.0818 </r>
       <r>    18.4700     0.2666     4.1316 </r>
       <r>    18.6568     0.2685     4.1818 </r>
       <r>    18.8436     0.2708     4.2323 </r>
       <r>    19.0304     0.2733     4.2834 </r>
       <r>    19.2172     0.2755     4.3349 </r>
       <r>    19.4040     0.2770     4.3866 </r>
       <r>    19.5908     0.2771     4.4384 </r>
       <r>    19.7776     0.2754     4.4898 </r>
       <r>    19.9644     0.2717     4.5406 </r>
       <r>    20.1512     0.2656     4.5902 </r>
       <r>    20.3380     0.2572     4.6382 </r>
[...]
       </set>
      </set>
      <set comment="kpoint 58">
       <set comment="band 1">
        <r>  0.1497  0.0230  0.0781  0.0085  0.0000  0.0000  0.0000  0.0000  0.0000 </r>
       </set>
       <set comment="band 2">
        <r>  0.1186  0.0450  0.0070  0.0830  0.0000  0.0000  0.0000  0.0000  0.0000 </r>
       </set>
       <set comment="band 3">
        <r>  0.0361  0.0418  0.1118  0.0010  0.0000  0.0000  0.0000  0.0000  0.0000 </r>
       </set>
       <set comment="band 4">
        <r>  0.1089  0.0403  0.0451  0.1334  0.0000  0.0000  0.0000  0.0000  0.0000 </r>
       </set>
       <set comment="band 5">
        <r>  0.0614  0.0961  0.0221  0.0282  0.0000  0.0000  0.0000  0.0000  0.0000 </r>
       </set>
      </set>
      <set comment="kpoint 59">
       <set comment="band 1">
        <r>  0.0925  0.0515  0.0167  0.0800  0.0000  0.0000  0.0000  0.0000  0.0000 </r>
       </set>
       <set comment="band 2">
        <r>  0.1764  0.0155  0.0799  0.0027  0.0000  0.0000  0.0000  0.0000  0.0000 </r>
       </set>
       <set comment="band 3">
        <r>  0.0729  0.0371  0.1195  0.0046  0.0000  0.0000  0.0000  0.0000  0.0000 </r>
       </set>
       <set comment="band 4">
        <r>  0.0771  0.0403  0.0127  0.1565  0.0000  0.0000  0.0000  0.0000  0.0000 </r>
       </set>
       <set comment="band 5">
        <r>  0.0582  0.1253  0.0148  0.0162  0.0000  0.0000  0.0000  0.0000  0.0000 </r>
       </set>
      </set>
      <set comment="kpoint 60">
       <set comment="band 1">
        <r>  0.1632  0.0336  0.0038  0.0614  0.0000  0.0000  0.0000  0.0000  0.0000 </r>
       </set>
       <set comment="band 2">
        <r>  0.0995  0.0288  0.1071  0.0120  0.0000  0.0000  0.0000  0.0000  0.0000 </r>
       </set>
       <set comment="band 3">
        <r>  0.0895  0.0489  0.0980  0.0139  0.0000  0.0000  0.0000  0.0000  0.0000 </r>
       </set>
       <set comment="band 4">
        <r>  0.0628  0.0316  0.0046  0.1723  0.0000  0.0000  0.0000  0.0000  0.0000 </r>
       </set>
       <set comment="band 5">
        <r>  0.0471  0.1585  0.0093  0.0097  0.0000  0.0000  0.0000  0.0000  0.0000 </r>
       </set>
      </set>
      <set comment="kpoint 61">
       <set comment="band 1">
        <r>  0.1928  0.0242  0.0010  0.0485  0.0000  0.0000  0.0000  0.0000  0.0000 </r>
       </set>
       <set comment="band 2">
        <r>  0.0520  0.0251  0.1358  0.0115  0.0000  0.0000  0.0000  0.0000  0.0000 </r>
       </set>
       <set comment="band 3">
        <r>  0.1069  0.0726  0.0598  0.0281  0.0000  0.0000  0.0000  0.0000  0.0000 </r>
       </set>
       <set comment="band 4">
        <r>  0.0505  0.0238  0.0011  0.1842  0.0000  0.0000  0.0000  0.0000  0.0000 </r>
       </set>
       <set comment="band 5">
        <r>  0.0231  0.2078  0.0103  0.0108  0.0000  0.0000  0.0000  0.0000  0.0000 </r>
       </set>
      </set>
      <set comment="kpoint 62">
       <set comment="band 1">
        <r>  0.2158  0.0161  0.0000  0.0367  0.0000  0.0000  0.0000  0.0000  0.0000 </r>
       </set>
       <set comment="band 2">
        <r>  0.0000  0.0000  0.1830  0.0000  0.0000  0.0000  0.0000  0.0000  0.0000 </r>
       </set>
       <set comment="band 3">
        <r>  0.1259  0.1195  0.0000  0.0521  0.0000  0.0000  0.0000  0.0000  0.0000 </r>
       </set>
       <set comment="band 4">
        <r>  0.0385  0.0177  0.0000  0.1925  0.0000  0.0000  0.0000  0.0000  0.0000 </r>
       </set>
       <set comment="band 5">
        <r>  0.0000  0.0000  0.0876  0.0000  0.0000  0.0000  0.0000  0.0000  0.0000 </r>
       </set>
      </set>
      <set comment="kpoint 63">
       <set comment="band 1">
        <r>  0.1986  0.0039  0.0650  0.0000  0.0000  0.0000  0.0000  0.0000  0.0000 </r>
       </set>
       <set comment="band 2">
        <r>  0.0000  0.0000  0.0000  0.1732  0.0000  0.0000  0.0000  0.0000  0.0000 </r>
       </set>
       <set comment="band 3">
        <r>  0.0090  0.1619  0.0131  0.0000  0.0000  0.0000  0.0000  0.0000  0.0000 </r>
       </set>
       <set comment="band 4">
        <r>  0.1464  0.0524  0.1647  0.0000  0.0000  0.0000  0.0000  0.0000  0.0000 </r>
       </set>
       <set comment="band 5">
        <r>  0.0000  0.0000  0.0000  0.1432  0.0000  0.0000  0.0000  0.0000  0.0000 </r>
       </set>
      </set>
      <set comment="kpoint 64">
       <set comment="band 1">
        <r>  0.1747  0.0083  0.0807  0.0009  0.0000  0.0000  0.0000  0.0000  0.0000 </r>
       </set>
       <set comment="band 2">
        <r>  0.0387  0.0461  0.0017  0.1266  0.0000  0.0000  0.0000  0.0000  0.0000 </r>
       </set>
       <set comment="band 3">
        <r>  0.0407  0.0282  0.1141  0.0054  0.0000  0.0000  0.0000  0.0000  0.0000 </r>
       </set>
       <set comment="band 4">
        <r>  0.1408  0.1034  0.0492  0.0595  0.0000  0.0000  0.0000  0.0000  0.0000 </r>
       </set>
       <set comment="band 5">
        <r>  0.0407  0.0256  0.0099  0.0959  0.0000  0.0000  0.0000  0.0000  0.0000 </r>
       </set>
      </set>
      <set comment="kpoint 65">
       <set comment="band 1">
        <r>  0.1433  0.0140  0.0981  0.0036  0.0000  0.0000  0.0000  0.0000  0.0000 </r>
       </set>
       <set comment="band 2">
        <r>  0.0818  0.0530  0.0016  0.1022  0.0000  0.0000  0.0000  0.0000  0.0000 </r>
       </set>
       <set comment="band 3">
        <r>  0.0909  0.0176  0.1259  0.0000  0.0000  0.0000  0.0000  0.0000  0.0000 </r>
       </set>
       <set comment="band 4">
        <r>  0.1037  0.0813  0.0143  0.1065  0.0000  0.0000  0.0000  0.0000  0.0000 </r>
       </set>
       <set comment="band 5">
        <r>  0.0672  0.0631  0.0097  0.0553  0.0000  0.0000  0.0000  0.0000  0.0000 </r>
       </set>
      </set>
      <set comment="kpoint 66">
       <set comment="band 1">
        <r>  0.0736  0.0283  0.1185  0.0155  0.0000  0.0000  0.0000  0.0000  0.0000 </r>
       </set>
       <set comment="band 2">
        <r>  0.1518  0.0384  0.0007  0.0774  0.0000  0.0000  0.0000  0.0000  0.0000 </r>
       </set>
       <set comment="band 3">
        <r>  0.1182  0.0248  0.1059  0.0030  0.0000  0.0000  0.0000  0.0000  0.0000 </r>
       </set>
       <set comment="band 4">
        <r>  0.0885  0.0614  0.0050  0.1350  0.0000  0.0000  0.0000  0.0000  0.0000 </r>
       </set>
       <set comment="band 5">
        <r>  0.0730  0.0941  0.0053  0.0320  0.0000  0.0000  0.0000  0.0000  0.0000 </r>
       </set>
      </set>
      <set comment="kpoint 67">
       <set comment="band 1">
        <r>  0.1343  0.0441  0.0011  0.0758  0.0000  0.0000  0.0000  0.0000  0.0000 </r>
       </set>
       <set comment="band 2">
        <r>  0.0730  0.0140  0.1503  0.0044  0.0000  0.0000  0.0000  0.0000  0.0000 </r>
       </set>
       <set comment="band 3">
        <r>  0.1493  0.0414  0.0660  0.0110  0.0000  0.0000  0.0000  0.0000  0.0000 </r>
       </set>
       <set comment="band 4">
        <r>  0.0764  0.0459  0.0011  0.1565  0.0000  0.0000  0.0000  0.0000  0.0000 </r>
       </set>
       <set comment="band 5">
        <r>  0.0685  0.1215  0.0016  0.0174  0.0000  0.0000  0.0000  0.0000  0.0000 </r>
       </set>
      </set>
      <set comment="kpoint 68">
       <set comment="band 1">
        <r>  0.1676  0.0336  0.0000  0.0616  0.0000  0.0000  0.0000  0.0000  0.0000 </r>
       </set>
       <set comment="band 2">
        <r>  0.0000  0.0000  0.2069  0.0000  0.0000  0.0000  0.0000  0.0000  0.0000 </r>
       </set>
       <set comment="band 3">
        <r>  0.1914  0.0756  0.0000  0.0274  0.0000  0.0000  0.0000  0.0000  0.0000 </r>
       </set>
       <set comment="band 4">
        <r>  0.0640  0.0337  0.0000  0.1729  0.0000  0.0000  0.0000  0.0000  0.0000 </r>
       </set>
       <set comment="band 5">
        <r>  0.0563  0.1488  0.0000  0.0088  0.0000  0.0000  0.0000  0.0000  0.0000 </r>
       </set>
      </set>
      <set comment="kpoint 69">
       <set comment="band 1">
        <r>  0.1589  0.0035  0.1004  0.0000  0.0000  0.0000  0.0000  0.0000  0.0000 </r>
       </set>
       <set comment="band 2">
        <r>  0.0850  0.0096  0.1270  0.0000  0.0000  0.0000  0.0000  0.0000  0.0000 </r>
       </set>
       <set comment="band 3">
        <r>  0.0000  0.0000  0.0000  0.1773  0.0000  0.0000  0.0000  0.0000  0.0000 </r>
       </set>
       <set comment="band 4">
        <r>  0.1234  0.2148  0.0147  0.0000  0.0000  0.0000  0.0000  0.0000  0.0000 </r>
       </set>
       <set comment="band 5">
        <r>  0.0000  0.0000  0.0000  0.1553  0.0000  0.0000  0.0000  0.0000  0.0000 </r>
       </set>
      </set>
      <set comment="kpoint 70">
       <set comment="band 1">
        <r>  0.1259  0.0072  0.1231  0.0008  0.0000  0.0000  0.0000  0.0000  0.0000 </r>
       </set>
       <set comment="band 2">
        <r>  0.0517  0.0339  0.0869  0.0231  0.0000  0.0000  0.0000  0.0000  0.0000 </r>
       </set>
       <set comment="band 3">
        <r>  0.1155  0.0220  0.0245  0.1076  0.0000  0.0000  0.0000  0.0000  0.0000 </r>
       </set>
       <set comment="band 4">
        <r>  0.1158  0.1284  0.0058  0.0647  0.0000  0.0000  0.0000  0.0000  0.0000 </r>
       </set>
       <set comment="band 5">
        <r>  0.0444  0.0256  0.0024  0.1031  0.0000  0.0000  0.0000  0.0000  0.0000 </r>
       </set>
      </set>
      <set comment="kpoint 71">
       <set comment="band 1">
        <r>  0.0710  0.0104  0.1590  0.0032  0.0000  0.0000  0.0000  0.0000  0.0000 </r>
       </set>
       <set comment="band 2">
        <r>  0.0490  0.0620  0.0035  0.1044  0.0000  0.0000  0.0000  0.0000  0.0000 </r>
       </set>
       <set comment="band 3">
        <r>  0.2105  0.0087  0.0702  0.0004  0.0000  0.0000  0.0000  0.0000  0.0000 </r>
       </set>
       <set comment="band 4">
        <r>  0.1002  0.0876  0.0012  0.1073  0.0000  0.0000  0.0000  0.0000  0.0000 </r>
       </set>
       <set comment="band 5">
        <r>  0.0722  0.0632  0.0011  0.0587  0.0000  0.0000  0.0000  0.0000  0.0000 </r>
       </set>
      </set>
      <set comment="kpoint 72">
       <set comment="band 1">
        <r>  0.0939  0.0556  0.0000  0.0917  0.0000  0.0000  0.0000  0.0000  0.0000 </r>
       </set>
       <set comment="band 2">
        <r>  0.0000  0.0000  0.2261  0.0000  0.0000  0.0000  0.0000  0.0000  0.0000 </r>
       </set>
       <set comment="band 3">
        <r>  0.2558  0.0348  0.0000  0.0055  0.0000  0.0000  0.0000  0.0000  0.0000 </r>
       </set>
       <set comment="band 4">
        <r>  0.0885  0.0636  0.0000  0.1353  0.0000  0.0000  0.0000  0.0000  0.0000 </r>
       </set>
       <set comment="band 5">
        <r>  0.0764  0.0939  0.0000  0.0332  0.0000  0.0000  0.0000  0.0000  0.0000 </r>
       </set>
      </set>
      <set comment="kpoint 73">
       <set comment="band 1">
        <r>  0.0865  0.0024  0.1632  0.0000  0.0000  0.0000  0.0000  0.0000  0.0000 </r>
       </set>
       <set comment="band 2">
        <r>  0.1652  0.0072  0.0770  0.0000  0.0000  0.0000  0.0000  0.0000  0.0000 </r>
       </set>
       <set comment="band 3">
        <r>  0.0000  0.0000  0.0000  0.1793  0.0000  0.0000  0.0000  0.0000  0.0000 </r>
       </set>
       <set comment="band 4">
        <r>  0.1231  0.2229  0.0014  0.0000  0.0000  0.0000  0.0000  0.0000  0.0000 </r>
       </set>
       <set comment="band 5">
        <r>  0.0000  0.0000  0.0000  0.1614  0.0000  0.0000  0.0000  0.0000  0.0000 </r>
       </set>
      </set>
      <set comment="kpoint 74">
       <set comment="band 1">
        <r>  0.0000  0.0000  0.2384  0.0000  0.0000  0.0000  0.0000  0.0000  0.0000 </r>
       </set>
       <set comment="band 2">
        <r>  0.2287  0.0226  0.0000  0.0034  0.0000  0.0000  0.0000  0.0000  0.0000 </r>
       </set>
       <set comment="band 3">
        <r>  0.0696  0.0395  0.0000  0.1291  0.0000  0.0000  0.0000  0.0000  0.0000 </r>
       </set>
       <set comment="band 4">
        <r>  0.1154  0.1311  0.0000  0.0651  0.0000  0.0000  0.0000  0.0000  0.0000 </r>
       </set>
       <set comment="band 5">
        <r>  0.0456  0.0257  0.0000  0.1055  0.0000  0.0000  0.0000  0.0000  0.0000 </r>
       </set>
      </set>
      <set comment="kpoint 75">
       <set comment="band 1">
        <r>  0.1870  0.0152  0.0637  0.0000  0.0000  0.0000  0.0000  0.0000  0.0000 </r>
       </set>
       <set comment="band 2">
        <r>  0.0000  0.0000  0.0000  0.1922  0.0000  0.0000  0.0000  0.0000  0.0000 </r>
       </set>
       <set comment="band 3">
        <r>  0.1340  0.1343  0.0163  0.0000  0.0000  0.0000  0.0000  0.0000  0.0000 </r>
       </set>
       <set comment="band 4">
        <r>  0.0923  0.0049  0.1770  0.0000  0.0000  0.0000  0.0000  0.0000  0.0000 </r>
       </set>
       <set comment="band 5">
        <r>  0.0000  0.0000  0.0000  0.1170  0.0000  0.0000  0.0000  0.0000  0.0000 </r>
       </set>
      </set>
      <set comment="kpoint 76">
       <set comment="band 1">
        <r>  0.1593  0.0227  0.0787  0.0009  0.0000  0.0000  0.0000  0.0000  0.0000 </r>
       </set>
       <set comment="band 2">
        <r>  0.0573  0.0273  0.0037  0.1415  0.0000  0.0000  0.0000  0.0000  0.0000 </r>
       </set>
       <set comment="band 3">
        <r>  0.1004  0.0836  0.0040  0.0606  0.0000  0.0000  0.0000  0.0000  0.0000 </r>
       </set>
       <set comment="band 4">
        <r>  0.1195  0.0092  0.1619  0.0030  0.0000  0.0000  0.0000  0.0000  0.0000 </r>
       </set>
       <set comment="band 5">
        <r>  0.0200  0.0646  0.0111  0.0766  0.0000  0.0000  0.0000  0.0000  0.0000 </r>
       </set>
      </set>
      <set comment="kpoint 77">
       <set comment="band 1">
        <r>  0.1184  0.0324  0.0957  0.0047  0.0000  0.0000  0.0000  0.0000  0.0000 </r>
       </set>
       <set comment="band 2">
        <r>  0.1140  0.0287  0.0019  0.1095  0.0000  0.0000  0.0000  0.0000  0.0000 </r>
       </set>
       <set comment="band 3">
        <r>  0.0414  0.0690  0.0026  0.0813  0.0000  0.0000  0.0000  0.0000  0.0000 </r>
       </set>
       <set comment="band 4">
        <r>  0.1740  0.0074  0.1355  0.0257  0.0000  0.0000  0.0000  0.0000  0.0000 </r>
       </set>
       <set comment="band 5">
        <r>  0.0168  0.1518  0.0170  0.0491  0.0000  0.0000  0.0000  0.0000  0.0000 </r>
       </set>
      </set>
      <set comment="kpoint 78">
       <set comment="band 1">
        <r>  0.1477  0.0139  0.0986  0.0000  0.0000  0.0000  0.0000  0.0000  0.0000 </r>
       </set>
       <set comment="band 2">
        <r>  0.0000  0.0000  0.0000  0.1984  0.0000  0.0000  0.0000  0.0000  0.0000 </r>
       </set>
       <set comment="band 3">
        <r>  0.0042  0.1125  0.0358  0.0000  0.0000  0.0000  0.0000  0.0000  0.0000 </r>
       </set>
       <set comment="band 4">
        <r>  0.2833  0.0325  0.1086  0.0000  0.0000  0.0000  0.0000  0.0000  0.0000 </r>
       </set>
       <set comment="band 5">
        <r>  0.0000  0.0000  0.0000  0.1295  0.0000  0.0000  0.0000  0.0000  0.0000 </r>
       </set>
      </set>
      <set comment="kpoint 79">
       <set comment="band 1">
        <r>  0.1101  0.0200  0.1201  0.0010  0.0000  0.0000  0.0000  0.0000  0.0000 </r>
       </set>
       <set comment="band 2">
        <r>  0.0554  0.0303  0.0000  0.1440  0.0000  0.0000  0.0000  0.0000  0.0000 </r>
       </set>
       <set comment="band 3">
        <r>  0.0495  0.0505  0.0864  0.0078  0.0000  0.0000  0.0000  0.0000  0.0000 </r>
       </set>
       <set comment="band 4">
        <r>  0.2409  0.0438  0.0280  0.0583  0.0000  0.0000  0.0000  0.0000  0.0000 </r>
       </set>
       <set comment="band 5">
        <r>  0.0261  0.0552  0.0025  0.0851  0.0000  0.0000  0.0000  0.0000  0.0000 </r>
       </set>
      </set>
      <set comment="kpoint 80">
       <set comment="band 1">
        <r>  0.0637  0.0447  0.0069  0.1144  0.0000  0.0000  0.0000  0.0000  0.0000 </r>
       </set>
       <set comment="band 2">
        <r>  0.0987  0.0088  0.1475  0.0011  0.0000  0.0000  0.0000  0.0000  0.0000 </r>
       </set>
       <set comment="band 3">
        <r>  0.1308  0.0503  0.0663  0.0000  0.0000  0.0000  0.0000  0.0000  0.0000 </r>
       </set>
       <set comment="band 4">
        <r>  0.1695  0.0337  0.0035  0.1092  0.0000  0.0000  0.0000  0.0000  0.0000 </r>
       </set>
       <set comment="band 5">
        <r>  0.0351  0.1109  0.0013  0.0523  0.0000  0.0000  0.0000  0.0000  0.0000 </r>
       </set>
      </set>
      <set comment="kpoint 81">
       <set comment="band 1">
        <r>  0.1280  0.0310  0.0000  0.0955  0.0000  0.0000  0.0000  0.0000  0.0000 </r>
       </set>
       <set comment="band 2">
        <r>  0.0000  0.0000  0.2141  0.0000  0.0000  0.0000  0.0000  0.0000  0.0000 </r>
       </set>
       <set comment="band 3">
        <r>  0.1891  0.0853  0.0000  0.0031  0.0000  0.0000  0.0000  0.0000  0.0000 </r>
       </set>
       <set comment="band 4">
        <r>  0.1392  0.0205  0.0000  0.1391  0.0000  0.0000  0.0000  0.0000  0.0000 </r>
       </set>
       <set comment="band 5">
        <r>  0.0260  0.1656  0.0000  0.0359  0.0000  0.0000  0.0000  0.0000  0.0000 </r>
       </set>
      </set>
      <set comment="kpoint 82">
       <set comment="band 1">
        <r>  0.0773  0.0094  0.1603  0.0000  0.0000  0.0000  0.0000  0.0000  0.0000 </r>
       </set>
       <set comment="band 2">
        <r>  0.1274  0.0326  0.0720  0.0000  0.0000  0.0000  0.0000  0.0000  0.0000 </r>
       </set>
       <set comment="band 3">
        <r>  0.0000  0.0000  0.0000  0.2015  0.0000  0.0000  0.0000  0.0000  0.0000 </r>
       </set>
       <set comment="band 4">
        <r>  0.2418  0.1195  0.0038  0.0000  0.0000  0.0000  0.0000  0.0000  0.0000 </r>
       </set>
       <set comment="band 5">
        <r>  0.0000  0.0000  0.0000  0.1349  0.0000  0.0000  0.0000  0.0000  0.0000 </r>
       </set>
      </set>
      <set comment="kpoint 83">
       <set comment="band 1">
        <r>  0.0000  0.0000  0.2300  0.0000  0.0000  0.0000  0.0000  0.0000  0.0000 </r>
       </set>
       <set comment="band 2">
        <r>  0.0005  0.0684  0.0000  0.1096  0.0000  0.0000  0.0000  0.0000  0.0000 </r>
       </set>
       <set comment="band 3">
        <r>  0.2632  0.0126  0.0000  0.0385  0.0000  0.0000  0.0000  0.0000  0.0000 </r>
       </set>
       <set comment="band 4">
        <r>  0.1986  0.0644  0.0000  0.0647  0.0000  0.0000  0.0000  0.0000  0.0000 </r>
       </set>
       <set comment="band 5">
        <r>  0.0275  0.0534  0.0000  0.0877  0.0000  0.0000  0.0000  0.0000  0.0000 </r>
       </set>
      </set>
      <set comment="kpoint 84">
       <set comment="band 1">
        <r>  0.0593  0.0219  0.1545  0.0000  0.0000  0.0000  0.0000  0.0000  0.0000 </r>
       </set>
       <set comment="band 2">
        <r>  0.0000  0.0000  0.0000  0.2177  0.0000  0.0000  0.0000  0.0000  0.0000 </r>
       </set>
       <set comment="band 3">
        <r>  0.0095  0.1139  0.0293  0.0000  0.0000  0.0000  0.0000  0.0000  0.0000 </r>
       </set>
       <set comment="band 4">
        <r>  0.4024  0.0009  0.0425  0.0000  0.0000  0.0000  0.0000  0.0000  0.0000 </r>
       </set>
       <set comment="band 5">
        <r>  0.0000  0.0000  0.0000  0.1108  0.0000  0.0000  0.0000  0.0000  0.0000 </r>
       </set>
      </set>
     </set>
    </set>
   </array>
  </projected>
 </calculation>
 <structure name="finalpos" >
  <crystal>
   <varray name="basis" >
    <v>      -0.00000000       2.02227761       2.02227761 </v>
    <v>       2.02227761       0.00000000       2.02227761 </v>
    <v>       2.02227761       2.02227761       0.00000000 </v>
   </varray>
   <i name="volume">     16.54064033 </i>
   <varray name="rec_basis" >
    <v>      -0.24724597       0.24724597       0.24724597 </v>
    <v>       0.24724597      -0.24724597       0.24724597 </v>
    <v>       0.24724597       0.24724597      -0.24724597 </v>
   </varray>
  </crystal>
  <varray name="positions" >
   <v>      -0.00000000       0.00000000       0.00000000 </v>
  </varray>
 </structure>
</modeling>
