
Running Job 1 of 1 mol.qin
qchem mol.qin_251659.0 /tmp/scratch/ 0
/clusterfs/cloudcuckoo/software/qchem/exe/qcprog.exe_s mol.qin_251659.0 /tmp/scratch/
                  Welcome to Q-Chem
     A Quantum Leap Into The Future Of Chemistry


 Q-Chem 5.4, Q-Chem, Inc., Pleasanton, CA (2021)

 E. Epifanovsky,  A. T. B. Gilbert,  Xintian Feng,  Joonho Lee,  Yuezhi Mao,  
 N. Mardirossian,  P. Pokhilko,  A. White,  M. Wormit,  M. P. Coons,  
 A. L. Dempwolff,  Zhengting Gan,  D. Hait,  P. R. Horn,  L. D. Jacobson,  
 I. Kaliman,  J. Kussmann,  A. W. Lange,  Ka Un Lao,  D. S. Levine,  Jie Liu,  
 S. C. McKenzie,  A. F. Morrison,  K. Nanda,  F. Plasser,  D. R. Rehn,  
 M. L. Vidal,  Zhi-Qiang You,  Ying Zhu,  B. Alam,  B. Albrecht,  
 A. Aldossary,  E. Alguire,  J. H. Andersen,  D. Barton,  K. Begam,  A. Behn,  
 Y. A. Bernard,  E. J. Berquist,  H. Burton,  A. Carreras,  K. Carter-Fenk,  
 Romit Chakraborty,  A. D. Chien,  K. D. Closser,  V. Cofer-Shabica,  
 S. Dasgupta,  Jia Deng,  M. de Wergifosse,  M. Diedenhofen,  Hainam Do,  
 S. Ehlert,  Po-Tung Fang,  S. Fatehi,  Qingguo Feng,  T. Friedhoff,  
 J. Gayvert,  Qinghui Ge,  G. Gidofalvi,  M. Goldey,  J. Gomes,  
 C. Gonzalez-Espinoza,  S. Gulania,  A. Gunina,  M. W. D. Hanson-Heine,  
 P. H. P. Harbach,  A. W. Hauser,  M. F. Herbst,  M. Hernandez Vera,  
 M. Hodecker,  Z. C. Holden,  S. Houck,  Xunkun Huang,  Kerwin Hui,  
 B. C. Huynh,  M. Ivanov,  Hyunjun Ji,  Hanjie Jiang,  B. Kaduk,  S. Kaehler,  
 K. Khistyaev,  Jaehoon Kim,  P. Klunzinger,  Z. Koczor-Benda,  
 Joong Hoon Koh,  D. Kosenkov,  L. Koulias,  T. Kowalczyk,  C. M. Krauter,  
 K. Kue,  A. Kunitsa,  T. Kus,  A. Landau,  K. V. Lawler,  D. Lefrancois,  
 S. Lehtola,  Rain Li,  Yi-Pei Li,  Jiashu Liang,  M. Liebenthal,  
 Hung-Hsuan Lin,  You-Sheng Lin,  Fenglai Liu,  Kuan-Yu Liu,  
 M. Loipersberger,  A. Luenser,  A. Manjanath,  P. Manohar,  E. Mansoor,  
 S. F. Manzer,  Shan-Ping Mao,  A. V. Marenich,  T. Markovich,  S. Mason,  
 S. A. Maurer,  P. F. McLaughlin,  M. F. S. J. Menger,  J.-M. Mewes,  
 S. A. Mewes,  P. Morgante,  J. W. Mullinax,  K. J. Oosterbaan,  G. Paran,  
 Alexander C. Paul,  Suranjan K. Paul,  F. Pavosevic,  Zheng Pei,  S. Prager,  
 E. I. Proynov,  E. Ramos,  B. Rana,  A. E. Rask,  A. Rettig,  R. M. Richard,  
 F. Rob,  E. Rossomme,  T. Scheele,  M. Scheurer,  M. Schneider,  
 N. Sergueev,  S. M. Sharada,  W. Skomorowski,  D. W. Small,  C. J. Stein,  
 Yu-Chuan Su,  E. J. Sundstrom,  Zhen Tao,  J. Thirman,  T. Tsuchimochi,  
 N. M. Tubman,  S. P. Veccham,  O. Vydrov,  J. Wenzel,  J. Witte,  A. Yamada,  
 Kun Yao,  S. Yeganeh,  S. R. Yost,  A. Zech,  Igor Ying Zhang,  Xing Zhang,  
 Yu Zhang,  D. Zuev,  A. Aspuru-Guzik,  A. T. Bell,  N. A. Besley,  
 K. B. Bravaya,  B. R. Brooks,  D. Casanova,  Jeng-Da Chai,  S. Coriani,  
 C. J. Cramer,  A. E. DePrince, III,  R. A. DiStasio Jr.,  A. Dreuw,  
 B. D. Dunietz,  T. R. Furlani,  W. A. Goddard III,  S. Grimme,  
 S. Hammes-Schiffer,  T. Head-Gordon,  W. J. Hehre,  Chao-Ping Hsu,  
 T.-C. Jagau,  Yousung Jung,  A. Klamt,  Jing Kong,  D. S. Lambrecht,  
 WanZhen Liang,  N. J. Mayhall,  C. W. McCurdy,  J. B. Neaton,  T. Neudecker,  
 C. Ochsenfeld,  J. A. Parkhill,  R. Peverati,  V. A. Rassolov,  Yihan Shao,  
 L. V. Slipchenko,  R. P. Steele,  J. E. Subotnik,  A. J. W. Thom,  
 A. Tkatchenko,  D. G. Truhlar,  T. Van Voorhis,  T. A. Wesolowski,  
 K. B. Whaley,  H. L. Woodcock III,  P. M. Zimmerman,  S. Faraji,  
 P. M. W. Gill,  M. Head-Gordon,  J. M. Herbert,  A. I. Krylov

 Additional authors since Version 5.4.0: 
 Chandrima Chakravarty,  L. Cunha,  R. Kang,  Yongbin Kim,  S. Kotaru,  
 Shaozhi Li,  Xiangyuan Li,  F. Matz,  A. Molle,  V. Parravicini,  
 Haisheng Ren,  Hengyuan Shen,  Yingli Su,  Hung-Yi Tsai,  C. Utku,  
 Fang Wang,  Jeff Yang,  F. Zeller

 Contributors to earlier versions of Q-Chem not listed above: 
 R. D. Adamson,  B. Austin,  R. Baer,  J. Baker,  G. J. O. Beran,  
 K. Brandhorst,  S. T. Brown,  E. F. C. Byrd,  Arup K. Chakraborty,  
 G. K. L. Chan,  Chun-Min Chang,  Yunqing Chen,  C.-L. Cheng,  
 Siu Hung Chien,  D. M. Chipman,  D. L. Crittenden,  H. Dachsel,  
 R. J. Doerksen,  A. D. Dutoi,  R. G. Edgar,  J. Fosso-Tande,  
 L. Fusti-Molnar,  D. Ghosh,  A. Ghysels,  A. Golubeva-Zadorozhnaya,  
 J. Gonthier,  M. S. Gordon,  S. R. Gwaltney,  G. Hawkins,  J. E. Herr,  
 A. Heyden,  S. Hirata,  E. G. Hohenstein,  G. Kedziora,  F. J. Keil,  
 C. Kelley,  Jihan Kim,  R. A. King,  R. Z. Khaliullin,  P. P. Korambath,  
 W. Kurlancheek,  A. Laurent,  A. M. Lee,  M. S. Lee,  S. V. Levchenko,  
 Ching Yeh Lin,  D. Liotard,  E. Livshits,  R. C. Lochan,  I. Lotan,  
 L. A. Martinez-Martinez,  P. E. Maslen,  N. Nair,  D. P. O'Neill,  
 D. Neuhauser,  E. Neuscamman,  C. M. Oana,  R. Olivares-Amaya,  R. Olson,  
 T. M. Perrine,  B. Peters,  P. A. Pieniazek,  A. Prociuk,  Y. M. Rhee,  
 J. Ritchie,  M. A. Rohrdanz,  E. Rosta,  N. J. Russ,  H. F. Schaefer III,  
 M. W. Schmidt,  N. E. Schultz,  S. Sharma,  N. Shenvi,  C. D. Sherrill,  
 A. C. Simmonett,  A. Sodt,  T. Stein,  D. Stuck,  K. S. Thanthiriwatte,  
 V. Vanovschi,  L. Vogt,  Tao Wang,  A. Warshel,  M. A. Watson,  
 C. F. Williams,  Q. Wu,  X. Xu,  Jun Yang,  W. Zhang,  Yan Zhao

   Please cite Q-Chem as follows:
  "Software for the frontiers of quantum chemistry:
   An overview of developments in the Q-Chem 5 package"
   J. Chem. Phys. 155, 084801 (2021)
   https://doi.org/10.1063/5.0055522 (open access)

 Q-Chem 5.4.2 for Intel X86 EM64T Linux

 Parts of Q-Chem use Armadillo 9.900.5 (Nocturnal Misbehaviour).
 http://arma.sourceforge.net/

 Q-Chem begins on Tue Jun  7 21:02:45 2022  

 Host: 
0

     Scratch files written to /tmp/scratch//
 Dec1321 |scratch|qcdevops|jenkins|workspace|build_RNUM 7600   
 Processing $rem in /clusterfs/cloudcuckoo/software/qchem/config/preferences:
 Processing $rem in /global/home/users/rdguha/.qchemrc:
 Symmetry turned off for PCM/SM12/SMD calculation

 Checking the input file for inconsistencies... 	...done.

--------------------------------------------------------------
User input:
--------------------------------------------------------------
$molecule
-1 1
O     -5.3629537607     -2.3988450102      0.2856767491
H     -5.4351262393     -2.4880549898      1.2390032509
$end

$rem
job_type = freq
basis = def2-tzvpd
max_scf_cycles = 100
gen_scfman = true
xc_grid = 3
thresh = 14
s2thresh = 16
scf_algorithm = diis
resp_charges = true
symmetry = false
sym_ignore = true
method = wb97xd
geom_opt_max_cycles = 200
solvent_method = pcm
geom_opt2 = 3
$end

$pcm
heavypoints 194
hpoints 194
radii uff
theory cpcm
vdwscale 1.1
$end

$solvent
dielectric 80
$end
--------------------------------------------------------------
 ----------------------------------------------------------------
             Standard Nuclear Orientation (Angstroms)
    I     Atom           X                Y                Z
 ----------------------------------------------------------------
    1      O      -5.3629537607    -2.3988450102     0.2856767491
    2      H      -5.4351262393    -2.4880549898     1.2390032509
 ----------------------------------------------------------------
 Nuclear Repulsion Energy =           4.40885594 hartrees
 There are        5 alpha and        5 beta electrons
 Requested basis set is def2-TZVPD
 There are 19 shells and 49 basis functions

 Total QAlloc Memory Limit  96000 MB
 Mega-Array Size       188 MB
 MEM_STATIC part       192 MB
 Discretize the solute cavity surface with Lebedev spheres
	Using 194 Lebedev grid points for each H atom
	Using 194 Lebedev grid points for other atoms
	Atomic van der Waals radii will be scaled by 1.10
 Remove points where switching function is < 1.0e-08
 Keep 287 surface tesserae and discard 101 interior tesserae
 Molecular Surface Area = 51.029 Angst**2

                       Distance Matrix (Angstroms)
             O (  1)
   H (  2)  0.960208
 
 A cutoff of  1.0D-16 yielded    190 shell pairs
 There are      1294 function pairs (      1648 Cartesian)
 Smallest overlap matrix eigenvalue = 2.36E-03
 Guess from superposition of atomic densities
 Warning:  Energy on first SCF cycle will be non-variational
 SAD guess density has 9.000000 electrons

 -----------------------------------------------------------------------
  General SCF calculation program by
  Eric Jon Sundstrom, Paul Horn, Yuezhi Mao, Dmitri Zuev, Alec White,
  David Stuck, Shaama M.S., Shane Yost, Joonho Lee, David Small,
  Daniel Levine, Susi Lehtola, Hugh Burton, Evgeny Epifanovsky,
  Bang C. Huynh
 -----------------------------------------------------------------------
 Exchange:     0.2220 Hartree-Fock + 1.0000 wB97X-D + LR-HF
 Correlation:  1.0000 wB97X-D
 Using SG-3 standard quadrature grid
 Dispersion:   Grimme D
 using 40 threads for integral computing
 -------------------------------------------------------
 OpenMP Integral computing Module                
 Release: version 1.0, May 2013, Q-Chem Inc. Pittsburgh 
 -------------------------------------------------------
 A restricted SCF calculation will be
 performed using DIIS
 SCF converges when DIIS error is below 1.0e-08
 ---------------------------------------
  Cycle       Energy         DIIS error
 ---------------------------------------
    1     -75.5465788072      4.07e-02  
    2     -75.7359629630      2.76e-02  
    3     -75.8592963769      2.02e-02  
    4     -75.9330486456      2.49e-03  
    5     -75.9340996583      5.95e-04  
    6     -75.9341778716      7.54e-05  
    7     -75.9341806993      1.60e-05  
    8     -75.9341810853      2.31e-06  
    9     -75.9341810914      4.57e-07  
   10     -75.9341810915      8.38e-08  
   11     -75.9341810915      1.48e-08  
   12     -75.9341810915      1.56e-09  Convergence criterion met
 ---------------------------------------
 SCF time:   CPU 309.98s  wall 27.00s 

************** Final PCM Free Energy Summary **************
 G_electrostatic  =      -0.13152819 hartree =     -82.53518565 kcal/mol
 G_cavitation     =       0.00000000 hartree =       0.00000000 kcal/mol
 G_dispersion     =       0.00000000 hartree =       0.00000000 kcal/mol
 G_repulsion      =       0.00000000 hartree =       0.00000000 kcal/mol
 --------------------------------------------------
 Non-electrostatic Free Energy =       0.00000000 hartree =       0.00000000 kcal/mol
 Total                         =      -0.13152819 hartree =     -82.53518565 kcal/mol
 --------------------------------------------------
 SCF Energy (H0 + V/2)                       =     -75.93418109 
 Solute Internal Energy (H0)                 =     -75.80265290 
 Total Free Energy (H0 + V/2 + non-elec)     =     -75.93418109 hartree
                                             =  -47649.41780757 kcal/mol
***********************************************************

 SCF   energy in the final basis set =      -75.9341810915
 Total energy in the final basis set =      -75.9341810915
 
 --------------------------------------------------------------
 
                    Orbital Energies (a.u.)
 --------------------------------------------------------------
 
 Alpha MOs
 -- Occupied --
-19.1250  -0.9331  -0.4204  -0.2847  -0.2847
 -- Virtual --
  0.0902   0.1312   0.1351   0.1351   0.2599   0.2871   0.2871   0.3558
  0.4444   0.4444   0.5168   0.5589   0.5589   0.7739   0.7739   0.7808
  0.7886   1.0661   1.7134   1.7134   1.8893   1.8900   1.8900   2.2993
  2.2993   2.5881   2.9101   2.9359   2.9359   3.2148   4.0040   5.3249
  5.3249   5.3574   5.3574   5.6441   5.6441   6.4173   6.5752   6.5757
  6.6871   6.6872   7.1879  43.6642
 --------------------------------------------------------------
 
          Ground-State Mulliken Net Atomic Charges

     Atom                 Charge (a.u.)
  ----------------------------------------
      1 O                    -1.191386
      2 H                     0.191386
  ----------------------------------------
  Sum of atomic charges =    -1.000000

  Building new vdw surfaces
         Merz-Kollman RESP Net Atomic Charges

     Atom                 Charge (a.u.)
  ----------------------------------------
      1 O                    -1.315196
      2 H                     0.315196
  ----------------------------------------
  Sum of atomic charges =    -1.000000

  Related Dipole Moment =    28.0642 (X 25.6501 Y 11.3871 Z  0.0711)

 -----------------------------------------------------------------
                    Cartesian Multipole Moments
 -----------------------------------------------------------------
    Charge (ESU x 10^10)
                -4.8032
    Dipole Moment (Debye)
         X      25.6592      Y      11.3985      Z      -0.0500
       Tot      28.0771
    Quadrupole Moments (Debye-Ang)
        XX    -147.3501     XY     -60.8684     YY     -37.3155
        XZ       0.0174     YZ      -0.1901     ZZ      -6.9940
    Octopole Moments (Debye-Ang^2)
       XXX     897.7520    XXY     349.7554    XYY     199.4980
       YYY     138.2683    XXZ      -2.3834    XYZ       1.6395
       YYZ      -2.4286    XZZ      37.3019    YZZ      16.5223
       ZZZ      -6.5710
    Hexadecapole Moments (Debye-Ang^3)
      XXXX   -5705.4415   XXXY   -2133.7419   XXYY   -1131.6409
      XYYY    -740.1544   YYYY    -525.5596   XXXZ      44.5135
      XXYZ      -3.4154   XYYZ      11.4768   YYYZ      21.3860
      XXZZ    -205.3731   XYZZ     -88.0880   YYZZ     -45.4444
      XZZZ      34.8858   YZZZ      15.3251   ZZZZ     -16.5567
 -----------------------------------------------------------------
 Calculating MO derivatives via CPSCF
 Full subspace dimension requested for CIS/TDDFT
 MAX_CIS_SUBSPACE fits in available memory
 Computing fast CPCM-SWIG hessian.
   1         3           6      0.241016    0.073402
   2         3           6      0.063785    0.023602
   3         3           6      0.009951    0.002911
   4         3           6      0.001532    0.000461
   5         3           6      0.000199    0.000066
   6         5           4      0.000022    0.000008
   7         9           0      0.000000    0.000000    Roots Converged
 Time for AOints: 8.6 s (CPU) 0.4 s (wall)
 ------------------------------------------------------------------------------
                     AOints        : Timing summary (seconds)
 ------------------------------------------------------------------------------
     job step          cpu (% of tot)      sys (% of tot)     wall (% of tot)
 ------------------------------------------------------------------------------
  cpscf_lag         0.6332E+02 (32.4)   0.1710E-03 (35.5)   0.3410E+01 (39.7)
  iterzp            0.1235E+03 (63.2)   0.2910E-03 (60.4)   0.4755E+01 (55.3)
  make_fx           0.0000E+00 ( 0.0)   0.0000E+00 ( 0.0)   0.0000E+00 ( 0.0)
  AOints            0.8610E+01 ( 4.4)   0.2000E-04 ( 4.1)   0.4327E+00 ( 5.0)
 ------------------------------------------------------------------------------
   Grand Totals     0.1955E+03          0.4820E-03          0.8599E+01
 ------------------------------------------------------------------------------
 Calculating analytic Hessian of the SCF energy
 Polarizability Matrix (a.u.)
            1           2           3
    1 -27.6773528   0.0417898  -0.4498094
    2   0.0417898 -27.6602984  -0.5551605
    3  -0.4498094  -0.5551605 -21.7660105
 Call libqints based aoints job 221
atom: 0 element: 8
atom: 1 element: 1
 
 Direct stationary perturbation theory relativistic correction:
 
 rels  =       0.029887557580
 relv  =      -0.110702173092
 rel2e =       0.000000000000
 E_rel =      -0.080814615512
 
 Computing fast CPCM-SWIG hessian
 Gradient time:  CPU 242.06 s  wall 10.17 s
 **********************************************************************
 **                                                                  **
 **                       VIBRATIONAL ANALYSIS                       **
 **                       --------------------                       **
 **                                                                  **
 **        VIBRATIONAL FREQUENCIES (CM**-1) AND NORMAL MODES         **
 **     FORCE CONSTANTS (mDYN/ANGSTROM) AND REDUCED MASSES (AMU)     **
 **                  INFRARED INTENSITIES (KM/MOL)                   **
 **                                                                  **
 **********************************************************************
 

 Mode:                 1
 Frequency:      3859.00
 Force Cnst:      9.3627
 Red. Mass:       1.0671
 IR Active:          YES
 IR Intens:       16.233
 Raman Active:       YES
               X      Y      Z        X      Y      Z        X      Y      Z
 O          0.005  0.006 -0.062
 H         -0.075 -0.093  0.991
 TransDip   0.009  0.012 -0.128

 STANDARD THERMODYNAMIC QUANTITIES AT   298.15 K  AND     1.00 ATM

   This Molecule has  0 Imaginary Frequencies
   Zero point vibrational energy:        5.517 kcal/mol


 Q-Chem warning in module 0, line  397:

  SYM_IGNORE is turned on for a linear molecule

    We detect a C*h symmetry
   Atom    1 Element O  Has Mass   15.99491
   Atom    2 Element H  Has Mass    1.00783
   Molecular Mass:    17.002740 amu
   Principal axes and moments of inertia in amu*Bohr^2:
                             1           2           3
    Eigenvalues --        0.00000     3.12161     3.12161
          X              -0.07516     0.77744     0.62445
          Y              -0.09291    -0.62896     0.77187
          Z               0.99283     0.00000     0.11950
   Rotational Symmetry Number is   1
   The Molecule is a Symmetric Top
   Translational Enthalpy:        0.889 kcal/mol
   Rotational Enthalpy:           0.889 kcal/mol
   Vibrational Enthalpy:          5.517 kcal/mol
   gas constant (RT):             0.592 kcal/mol
   Translational Entropy:        34.437  cal/mol.K
   Rotational Entropy:            6.706  cal/mol.K
   Vibrational Entropy:           0.000  cal/mol.K

   Total Enthalpy:                7.887 kcal/mol
   Total Entropy:                41.142  cal/mol.K
 Total job time:  40.05s(wall), 579.24s(cpu) 
 Tue Jun  7 21:03:25 2022

        *************************************************************
        *                                                           *
        *  Thank you very much for using Q-Chem.  Have a nice day.  *
        *                                                           *
        *************************************************************


