
Running Job 1 of 1 mol.qin
qchem mol.qin_251576.0 /tmp/scratch/ 0
/clusterfs/cloudcuckoo/software/qchem/exe/qcprog.exe_s mol.qin_251576.0 /tmp/scratch/
                  Welcome to Q-Chem
     A Quantum Leap Into The Future Of Chemistry


 Q-Chem 5.4, Q-Chem, Inc., Pleasanton, CA (2021)

 E. Epifanovsky,  A. T. B. Gilbert,  Xintian Feng,  Joonho Lee,  Yuezhi Mao,  
 N. Mardirossian,  P. Pokhilko,  A. White,  M. Wormit,  M. P. Coons,  
 A. L. Dempwolff,  Zhengting Gan,  D. Hait,  P. R. Horn,  L. D. Jacobson,  
 I. Kaliman,  J. Kussmann,  A. W. Lange,  Ka Un Lao,  D. S. Levine,  Jie Liu,  
 S. C. McKenzie,  A. F. Morrison,  K. Nanda,  F. Plasser,  D. R. Rehn,  
 M. L. Vidal,  Zhi-Qiang You,  Ying Zhu,  B. Alam,  B. Albrecht,  
 A. Aldossary,  E. Alguire,  J. H. Andersen,  D. Barton,  K. Begam,  A. Behn,  
 Y. A. Bernard,  E. J. Berquist,  H. Burton,  A. Carreras,  K. Carter-Fenk,  
 Romit Chakraborty,  A. D. Chien,  K. D. Closser,  V. Cofer-Shabica,  
 S. Dasgupta,  Jia Deng,  M. de Wergifosse,  M. Diedenhofen,  Hainam Do,  
 S. Ehlert,  Po-Tung Fang,  S. Fatehi,  Qingguo Feng,  T. Friedhoff,  
 J. Gayvert,  Qinghui Ge,  G. Gidofalvi,  M. Goldey,  J. Gomes,  
 C. Gonzalez-Espinoza,  S. Gulania,  A. Gunina,  M. W. D. Hanson-Heine,  
 P. H. P. Harbach,  A. W. Hauser,  M. F. Herbst,  M. Hernandez Vera,  
 M. Hodecker,  Z. C. Holden,  S. Houck,  Xunkun Huang,  Kerwin Hui,  
 B. C. Huynh,  M. Ivanov,  Hyunjun Ji,  Hanjie Jiang,  B. Kaduk,  S. Kaehler,  
 K. Khistyaev,  Jaehoon Kim,  P. Klunzinger,  Z. Koczor-Benda,  
 Joong Hoon Koh,  D. Kosenkov,  L. Koulias,  T. Kowalczyk,  C. M. Krauter,  
 K. Kue,  A. Kunitsa,  T. Kus,  A. Landau,  K. V. Lawler,  D. Lefrancois,  
 S. Lehtola,  Rain Li,  Yi-Pei Li,  Jiashu Liang,  M. Liebenthal,  
 Hung-Hsuan Lin,  You-Sheng Lin,  Fenglai Liu,  Kuan-Yu Liu,  
 M. Loipersberger,  A. Luenser,  A. Manjanath,  P. Manohar,  E. Mansoor,  
 S. F. Manzer,  Shan-Ping Mao,  A. V. Marenich,  T. Markovich,  S. Mason,  
 S. A. Maurer,  P. F. McLaughlin,  M. F. S. J. Menger,  J.-M. Mewes,  
 S. A. Mewes,  P. Morgante,  J. W. Mullinax,  K. J. Oosterbaan,  G. Paran,  
 Alexander C. Paul,  Suranjan K. Paul,  F. Pavosevic,  Zheng Pei,  S. Prager,  
 E. I. Proynov,  E. Ramos,  B. Rana,  A. E. Rask,  A. Rettig,  R. M. Richard,  
 F. Rob,  E. Rossomme,  T. Scheele,  M. Scheurer,  M. Schneider,  
 N. Sergueev,  S. M. Sharada,  W. Skomorowski,  D. W. Small,  C. J. Stein,  
 Yu-Chuan Su,  E. J. Sundstrom,  Zhen Tao,  J. Thirman,  T. Tsuchimochi,  
 N. M. Tubman,  S. P. Veccham,  O. Vydrov,  J. Wenzel,  J. Witte,  A. Yamada,  
 Kun Yao,  S. Yeganeh,  S. R. Yost,  A. Zech,  Igor Ying Zhang,  Xing Zhang,  
 Yu Zhang,  D. Zuev,  A. Aspuru-Guzik,  A. T. Bell,  N. A. Besley,  
 K. B. Bravaya,  B. R. Brooks,  D. Casanova,  Jeng-Da Chai,  S. Coriani,  
 C. J. Cramer,  A. E. DePrince, III,  R. A. DiStasio Jr.,  A. Dreuw,  
 B. D. Dunietz,  T. R. Furlani,  W. A. Goddard III,  S. Grimme,  
 S. Hammes-Schiffer,  T. Head-Gordon,  W. J. Hehre,  Chao-Ping Hsu,  
 T.-C. Jagau,  Yousung Jung,  A. Klamt,  Jing Kong,  D. S. Lambrecht,  
 WanZhen Liang,  N. J. Mayhall,  C. W. McCurdy,  J. B. Neaton,  T. Neudecker,  
 C. Ochsenfeld,  J. A. Parkhill,  R. Peverati,  V. A. Rassolov,  Yihan Shao,  
 L. V. Slipchenko,  R. P. Steele,  J. E. Subotnik,  A. J. W. Thom,  
 A. Tkatchenko,  D. G. Truhlar,  T. Van Voorhis,  T. A. Wesolowski,  
 K. B. Whaley,  H. L. Woodcock III,  P. M. Zimmerman,  S. Faraji,  
 P. M. W. Gill,  M. Head-Gordon,  J. M. Herbert,  A. I. Krylov

 Additional authors since Version 5.4.0: 
 Chandrima Chakravarty,  L. Cunha,  R. Kang,  Yongbin Kim,  S. Kotaru,  
 Shaozhi Li,  Xiangyuan Li,  F. Matz,  A. Molle,  V. Parravicini,  
 Haisheng Ren,  Hengyuan Shen,  Yingli Su,  Hung-Yi Tsai,  C. Utku,  
 Fang Wang,  Jeff Yang,  F. Zeller

 Contributors to earlier versions of Q-Chem not listed above: 
 R. D. Adamson,  B. Austin,  R. Baer,  J. Baker,  G. J. O. Beran,  
 K. Brandhorst,  S. T. Brown,  E. F. C. Byrd,  Arup K. Chakraborty,  
 G. K. L. Chan,  Chun-Min Chang,  Yunqing Chen,  C.-L. Cheng,  
 Siu Hung Chien,  D. M. Chipman,  D. L. Crittenden,  H. Dachsel,  
 R. J. Doerksen,  A. D. Dutoi,  R. G. Edgar,  J. Fosso-Tande,  
 L. Fusti-Molnar,  D. Ghosh,  A. Ghysels,  A. Golubeva-Zadorozhnaya,  
 J. Gonthier,  M. S. Gordon,  S. R. Gwaltney,  G. Hawkins,  J. E. Herr,  
 A. Heyden,  S. Hirata,  E. G. Hohenstein,  G. Kedziora,  F. J. Keil,  
 C. Kelley,  Jihan Kim,  R. A. King,  R. Z. Khaliullin,  P. P. Korambath,  
 W. Kurlancheek,  A. Laurent,  A. M. Lee,  M. S. Lee,  S. V. Levchenko,  
 Ching Yeh Lin,  D. Liotard,  E. Livshits,  R. C. Lochan,  I. Lotan,  
 L. A. Martinez-Martinez,  P. E. Maslen,  N. Nair,  D. P. O'Neill,  
 D. Neuhauser,  E. Neuscamman,  C. M. Oana,  R. Olivares-Amaya,  R. Olson,  
 T. M. Perrine,  B. Peters,  P. A. Pieniazek,  A. Prociuk,  Y. M. Rhee,  
 J. Ritchie,  M. A. Rohrdanz,  E. Rosta,  N. J. Russ,  H. F. Schaefer III,  
 M. W. Schmidt,  N. E. Schultz,  S. Sharma,  N. Shenvi,  C. D. Sherrill,  
 A. C. Simmonett,  A. Sodt,  T. Stein,  D. Stuck,  K. S. Thanthiriwatte,  
 V. Vanovschi,  L. Vogt,  Tao Wang,  A. Warshel,  M. A. Watson,  
 C. F. Williams,  Q. Wu,  X. Xu,  Jun Yang,  W. Zhang,  Yan Zhao

   Please cite Q-Chem as follows:
  "Software for the frontiers of quantum chemistry:
   An overview of developments in the Q-Chem 5 package"
   J. Chem. Phys. 155, 084801 (2021)
   https://doi.org/10.1063/5.0055522 (open access)

 Q-Chem 5.4.2 for Intel X86 EM64T Linux

 Parts of Q-Chem use Armadillo 9.900.5 (Nocturnal Misbehaviour).
 http://arma.sourceforge.net/

 Q-Chem begins on Tue Jun  7 21:00:28 2022  

 Host: 
0

     Scratch files written to /tmp/scratch//
 Dec1321 |scratch|qcdevops|jenkins|workspace|build_RNUM 7600   
 Processing $rem in /clusterfs/cloudcuckoo/software/qchem/config/preferences:
 Processing $rem in /global/home/users/rdguha/.qchemrc:
 Symmetry turned off for PCM/SM12/SMD calculation

 Checking the input file for inconsistencies... 	...done.

--------------------------------------------------------------
User input:
--------------------------------------------------------------
$molecule
-1 1
O     -5.3617200000     -2.3973200000      0.2693800000
H     -5.4363600000     -2.4895800000      1.2553000000
$end

$rem
job_type = opt
basis = def2-tzvpd
max_scf_cycles = 100
gen_scfman = true
xc_grid = 3
thresh = 14
s2thresh = 16
scf_algorithm = diis
resp_charges = true
symmetry = false
sym_ignore = true
method = wb97xd
geom_opt_max_cycles = 200
solvent_method = pcm
geom_opt2 = 3
$end

$pcm
heavypoints 194
hpoints 194
radii uff
theory cpcm
vdwscale 1.1
$end

$solvent
dielectric 80
$end

$geom_opt
maxiter = 200
$end
--------------------------------------------------------------
 ----------------------------------------------------------------
             Standard Nuclear Orientation (Angstroms)
    I     Atom           X                Y                Z
 ----------------------------------------------------------------
    1      O      -5.3617200000    -2.3973200000     0.2693800000
    2      H      -5.4363600000    -2.4895800000     1.2553000000
 ----------------------------------------------------------------
 Nuclear Repulsion Energy =           4.26310356 hartrees
 There are        5 alpha and        5 beta electrons
 Requested basis set is def2-TZVPD
 There are 19 shells and 49 basis functions

 Total QAlloc Memory Limit  96000 MB
 Mega-Array Size       188 MB
 MEM_STATIC part       192 MB
 -----------------------------------------------------------------------
                STARTING GEOMETRY OPTIMIZER USING LIBOPT3
                by Peter F. McLaughlin, Yu Zhang, Evgeny Epifanovsky
 -----------------------------------------------------------------------
  Checking Topology for Ill-Behaving Coordinates
  Done Checking Topology
              Initial Energy and Gradient Calculation

	Performing Iterative Coordinate Back-Transformation

	  Starting from Previous Position
	  iter:	0	rms: 0.000000	maxdev: 0.000000	 Success!

	Finished Iterative Coordinate Back-Transformation
 ----------------------------------------------------------------
             Standard Nuclear Orientation (Angstroms)
    I     Atom           X                Y                Z
 ----------------------------------------------------------------
    1      O      -5.3617200000    -2.3973200000     0.2693800000
    2      H      -5.4363600000    -2.4895800000     1.2553000000
 ----------------------------------------------------------------
 Nuclear Repulsion Energy =           4.26310356 hartrees
 There are        5 alpha and        5 beta electrons
 Discretize the solute cavity surface with Lebedev spheres
	Using 194 Lebedev grid points for each H atom
	Using 194 Lebedev grid points for other atoms
	Atomic van der Waals radii will be scaled by 1.10
 Remove points where switching function is < 1.0e-08
 Keep 289 surface tesserae and discard 99 interior tesserae
 Molecular Surface Area = 51.345 Angst**2

                       Distance Matrix (Angstroms)
             O (  1)
   H (  2)  0.993036
 
 Requested basis set is def2-TZVPD
 There are 19 shells and 49 basis functions
 A cutoff of  1.0D-16 yielded    190 shell pairs
 There are      1294 function pairs (      1648 Cartesian)
 Smallest overlap matrix eigenvalue = 2.55E-03

 Scale SEOQF with 1.000000e-02/1.000000e-01/1.000000e-01

 Standard Electronic Orientation quadrupole field applied
 Nucleus-field energy     =     0.0000000044 hartrees
 Guess from superposition of atomic densities
 Warning:  Energy on first SCF cycle will be non-variational
 SAD guess density has 9.000000 electrons

 -----------------------------------------------------------------------
  General SCF calculation program by
  Eric Jon Sundstrom, Paul Horn, Yuezhi Mao, Dmitri Zuev, Alec White,
  David Stuck, Shaama M.S., Shane Yost, Joonho Lee, David Small,
  Daniel Levine, Susi Lehtola, Hugh Burton, Evgeny Epifanovsky,
  Bang C. Huynh
 -----------------------------------------------------------------------
 Exchange:     0.2220 Hartree-Fock + 1.0000 wB97X-D + LR-HF
 Correlation:  1.0000 wB97X-D
 Using SG-3 standard quadrature grid
 Dispersion:   Grimme D
 using 40 threads for integral computing
 -------------------------------------------------------
 OpenMP Integral computing Module                
 Release: version 1.0, May 2013, Q-Chem Inc. Pittsburgh 
 -------------------------------------------------------
 A restricted SCF calculation will be
 performed using DIIS
 SCF converges when DIIS error is below 1.0e-08
 ---------------------------------------
  Cycle       Energy         DIIS error
 ---------------------------------------
    1     -75.5251528381      3.84e-02  
    2     -75.7352493559      2.75e-02  
    3     -75.8693700623      1.88e-02  
    4     -75.9319431045      2.64e-03  
    5     -75.9331553144      5.48e-04  
    6     -75.9332232843      7.22e-05  
    7     -75.9332260311      1.58e-05  
    8     -75.9332264001      2.29e-06  
    9     -75.9332264057      4.67e-07  
   10     -75.9332264059      9.05e-08  
   11     -75.9332264059      1.45e-08  
   12     -75.9332264059      1.74e-09  Convergence criterion met
 ---------------------------------------
 SCF time:   CPU 300.30s  wall 30.00s 

************** Final PCM Free Energy Summary **************
 G_electrostatic  =      -0.13145168 hartree =     -82.48717220 kcal/mol
 G_cavitation     =       0.00000000 hartree =       0.00000000 kcal/mol
 G_dispersion     =       0.00000000 hartree =       0.00000000 kcal/mol
 G_repulsion      =       0.00000000 hartree =       0.00000000 kcal/mol
 --------------------------------------------------
 Non-electrostatic Free Energy =       0.00000000 hartree =       0.00000000 kcal/mol
 Total                         =      -0.13145168 hartree =     -82.48717220 kcal/mol
 --------------------------------------------------
 SCF Energy (H0 + V/2)                       =     -75.93322641 
 Solute Internal Energy (H0)                 =     -75.80177473 
 Total Free Energy (H0 + V/2 + non-elec)     =     -75.93322641 hartree
                                             =  -47648.81873329 kcal/mol
***********************************************************

 SCF   energy in the final basis set =      -75.9332264059
 Total energy in the final basis set =      -75.9332264059
 
 --------------------------------------------------------------
 
                    Orbital Energies (a.u.)
 --------------------------------------------------------------
 
 Alpha MOs
 -- Occupied --
-19.1293  -0.9256  -0.4172  -0.2845  -0.2845
 -- Virtual --
  0.0895   0.1314   0.1356   0.1356   0.2544   0.2845   0.2845   0.3515
  0.4443   0.4444   0.5149   0.5603   0.5603   0.7665   0.7667   0.7667
  0.7827   1.0637   1.7040   1.7040   1.8905   1.8906   1.8913   2.2762
  2.2762   2.6191   2.8646   2.9268   2.9268   3.1865   3.9603   5.3268
  5.3268   5.3576   5.3576   5.6121   5.6121   6.3039   6.5743   6.5748
  6.6812   6.6812   7.1399  43.6541
 --------------------------------------------------------------
 
          Ground-State Mulliken Net Atomic Charges

     Atom                 Charge (a.u.)
  ----------------------------------------
      1 O                    -1.190428
      2 H                     0.190428
  ----------------------------------------
  Sum of atomic charges =    -1.000000

  Building new vdw surfaces
         Merz-Kollman RESP Net Atomic Charges

     Atom                 Charge (a.u.)
  ----------------------------------------
      1 O                    -1.298344
      2 H                     0.298344
  ----------------------------------------
  Sum of atomic charges =    -1.000000

  Related Dipole Moment =    28.0592 (X 25.6465 Y 11.3826 Z  0.1189)

 -----------------------------------------------------------------
                    Cartesian Multipole Moments
 -----------------------------------------------------------------
    Charge (ESU x 10^10)
                -4.8032
    Dipole Moment (Debye)
         X      25.6555      Y      11.3939      Z      -0.0023
       Tot      28.0718
    Quadrupole Moments (Debye-Ang)
        XX    -147.3527     XY     -60.8350     YY     -37.3360
        XZ      -0.2403     YZ      -0.3066     ZZ      -7.0030
    Octopole Moments (Debye-Ang^2)
       XXX     898.0919    XXY     349.6211    XYY     199.5789
       YYY     138.4676    XXZ      -0.9116    XYZ       2.2676
       YYZ      -2.0634    XZZ      37.3456    YZZ      16.5380
       ZZZ      -6.3485
    Hexadecapole Moments (Debye-Ang^3)
      XXXX   -5710.0904   XXXY   -2133.7092   XXYY   -1132.1528
      XYYY    -741.1215   YYYY    -526.6065   XXXZ      35.7105
      XXYZ      -6.9948   XYYZ       9.5128   YYYZ      20.1180
      XXZZ    -205.6196   XYZZ     -88.1612   YYZZ     -45.5060
      XZZZ      33.6954   YZZZ      14.7952   ZZZZ     -16.6495
 -----------------------------------------------------------------
 Calculating analytic gradient of the SCF energy
 Gradient of SCF Energy
            1           2
    1  -0.0013267   0.0013267
    2  -0.0016376   0.0016376
    3   0.0173679  -0.0173679
 Max gradient component =       1.737E-02
 RMS gradient           =       1.010E-02
 Computing fast CPCM-SWIG gradient
 Updating gradient with PCM contributions...
 -- total gradient after adding PCM contribution --
---------------------------------------------------
  Atom         X              Y              Z     
---------------------------------------------------
   1       0.002192       0.002752      -0.029433
   2      -0.002192      -0.002752       0.029433
---------------------------------------------------
 Number of fixed atoms: 0
 Gradient time:  CPU 32.26 s  wall 3.93 s
Initial Energy: -7.59332264e+01

 *****************************************************
             Starting BFGS Algorithm
 *****************************************************
            LIBOPT3 RUN PARAMETERS

  Geometry Optimization Coordinates :
	Internal Coordinates

  Step Length Selection Method :
	Eigenvector Following Algorithm

  Convergence Criteria :
	Max Gradient Component    	3.00000000e-04
	Max Displacement Component	1.20000000e-03
	Absolute Energy Difference	1.00000000e-06

  Initial Hessian :
	Approximate Hessian - Simple Internal Coordinate Scaled

  Type of Verification :
	Verify with final updated Hessian
 *****************************************************

	OPTIMIZATION CYCLE:	1

 All Eigenvalues from Projected Hessian
   0.50000000


 Scaling Magnitute of eigenvalues
 Minimum: -25.00000000
 Maximum: 25.00000000
 1 Hessian Eigenvalues to form next step
   0.50000000


 Minimum Search taking a RFO step
 Searching for Lambda that minimizes along all modes
 Value of Lambda  -0.00175124
 Norm of Stepsize  0.05907840

	Performing Iterative Coordinate Back-Transformation

	  Starting from Previous Position
	  iter:	0	rms: 0.01705447	maxdev: 0.02932751
	  iter:	1	rms: 0.00000000	maxdev: 0.00000000	 Success!

	Finished Iterative Coordinate Back-Transformation
 ----------------------------------------------------------------
             Standard Nuclear Orientation (Angstroms)
    I     Atom           X                Y                Z
 ----------------------------------------------------------------
    1      O      -5.3628949147    -2.3987722727     0.2848994521
    2      H      -5.4351850853    -2.4881277273     1.2397805479
 ----------------------------------------------------------------
 Nuclear Repulsion Energy =           4.40167809 hartrees
 There are        5 alpha and        5 beta electrons
 Discretize the solute cavity surface with Lebedev spheres
	Using 194 Lebedev grid points for each H atom
	Using 194 Lebedev grid points for other atoms
	Atomic van der Waals radii will be scaled by 1.10
 Remove points where switching function is < 1.0e-08
 Keep 287 surface tesserae and discard 101 interior tesserae
 Molecular Surface Area = 51.044 Angst**2

                       Distance Matrix (Angstroms)
             O (  1)
   H (  2)  0.961773
 
 Applying Cartesian multipole field
    Component          Value
    ---------          -----
     (2,0,0)        1.00000E-12
     (0,2,0)        2.00000E-11
     (0,0,2)       -3.00000E-11
 Nucleus-field energy     =     0.0000000044 hartrees
 Requested basis set is def2-TZVPD
 There are 19 shells and 49 basis functions
 A cutoff of  1.0D-16 yielded    190 shell pairs
 There are      1294 function pairs (      1648 Cartesian)
 Smallest overlap matrix eigenvalue = 2.37E-03
 Guess MOs from SCF MO coefficient file

 -----------------------------------------------------------------------
  General SCF calculation program by
  Eric Jon Sundstrom, Paul Horn, Yuezhi Mao, Dmitri Zuev, Alec White,
  David Stuck, Shaama M.S., Shane Yost, Joonho Lee, David Small,
  Daniel Levine, Susi Lehtola, Hugh Burton, Evgeny Epifanovsky,
  Bang C. Huynh
 -----------------------------------------------------------------------
 Exchange:     0.2220 Hartree-Fock + 1.0000 wB97X-D + LR-HF
 Correlation:  1.0000 wB97X-D
 Using SG-3 standard quadrature grid
 Dispersion:   Grimme D
 A restricted SCF calculation will be
 performed using Roothaan-Hall, DIIS
 SCF converges when DIIS error is below 1.0e-08
 ---------------------------------------
  Cycle       Energy         DIIS error
 ---------------------------------------
    1     -75.8027811696      1.91e-03  Roothaan Step
 ---------------------------------------
  Cycle       Energy         DIIS error
 ---------------------------------------
    1     -75.9312857578      2.24e-03  
    2     -75.9318265108      3.41e-03  
    3     -75.9340820432      3.94e-04  
    4     -75.9341693998      1.08e-04  
    5     -75.9341782451      2.66e-05  
    6     -75.9341787196      5.84e-06  
    7     -75.9341787574      8.47e-07  
    8     -75.9341787584      1.37e-07  
    9     -75.9341787584      2.24e-08  
   10     -75.9341787584      1.56e-09  Convergence criterion met
 ---------------------------------------
 SCF time:   CPU 284.38s  wall 27.00s 

************** Final PCM Free Energy Summary **************
 G_electrostatic  =      -0.13152479 hartree =     -82.53305198 kcal/mol
 G_cavitation     =       0.00000000 hartree =       0.00000000 kcal/mol
 G_dispersion     =       0.00000000 hartree =       0.00000000 kcal/mol
 G_repulsion      =       0.00000000 hartree =       0.00000000 kcal/mol
 --------------------------------------------------
 Non-electrostatic Free Energy =       0.00000000 hartree =       0.00000000 kcal/mol
 Total                         =      -0.13152479 hartree =     -82.53305198 kcal/mol
 --------------------------------------------------
 SCF Energy (H0 + V/2)                       =     -75.93417876 
 Solute Internal Energy (H0)                 =     -75.80265397 
 Total Free Energy (H0 + V/2 + non-elec)     =     -75.93417876 hartree
                                             =  -47649.41634348 kcal/mol
***********************************************************

 SCF   energy in the final basis set =      -75.9341787584
 Total energy in the final basis set =      -75.9341787584
 
 --------------------------------------------------------------
 
                    Orbital Energies (a.u.)
 --------------------------------------------------------------
 
 Alpha MOs
 -- Occupied --
-19.1252  -0.9327  -0.4203  -0.2847  -0.2847
 -- Virtual --
  0.0901   0.1312   0.1351   0.1351   0.2596   0.2869   0.2869   0.3556
  0.4444   0.4444   0.5167   0.5590   0.5590   0.7735   0.7736   0.7805
  0.7879   1.0660   1.7129   1.7129   1.8896   1.8900   1.8900   2.2982
  2.2982   2.5896   2.9078   2.9354   2.9354   3.2133   4.0019   5.3250
  5.3250   5.3574   5.3574   5.6425   5.6425   6.4118   6.5752   6.5756
  6.6869   6.6869   7.1853  43.6638
 --------------------------------------------------------------
 
          Ground-State Mulliken Net Atomic Charges

     Atom                 Charge (a.u.)
  ----------------------------------------
      1 O                    -1.191394
      2 H                     0.191394
  ----------------------------------------
  Sum of atomic charges =    -1.000000

  Building new vdw surfaces
         Merz-Kollman RESP Net Atomic Charges

     Atom                 Charge (a.u.)
  ----------------------------------------
      1 O                    -1.314393
      2 H                     0.314393
  ----------------------------------------
  Sum of atomic charges =    -1.000000

  Related Dipole Moment =    28.0639 (X 25.6499 Y 11.3869 Z  0.0735)

 -----------------------------------------------------------------
                    Cartesian Multipole Moments
 -----------------------------------------------------------------
    Charge (ESU x 10^10)
                -4.8032
    Dipole Moment (Debye)
         X      25.6590      Y      11.3982      Z      -0.0477
       Tot      28.0768
    Quadrupole Moments (Debye-Ang)
        XX    -147.3502     XY     -60.8668     YY     -37.3165
        XZ       0.0047     YZ      -0.1959     ZZ      -6.9944
    Octopole Moments (Debye-Ang^2)
       XXX     897.7688    XXY     349.7488    XYY     199.5020
       YYY     138.2781    XXZ      -2.3111    XYZ       1.6704
       YYZ      -2.4107    XZZ      37.3035    YZZ      16.5228
       ZZZ      -6.5602
    Hexadecapole Moments (Debye-Ang^3)
      XXXX   -5705.6704   XXXY   -2133.7406   XXYY   -1131.6662
      XYYY    -740.2021   YYYY    -525.6114   XXXZ      44.0820
      XXYZ      -3.5915   XYYZ      11.3807   YYYZ      21.3243
      XXZZ    -205.3823   XYZZ     -88.0904   YYZZ     -45.4467
      XZZZ      34.8281   YZZZ      15.2995   ZZZZ     -16.5603
 -----------------------------------------------------------------
 Calculating analytic gradient of the SCF energy
 Gradient of SCF Energy
            1           2
    1  -0.0035146   0.0035146
    2  -0.0043430   0.0043430
    3   0.0462987  -0.0462987
 Max gradient component =       4.630E-02
 RMS gradient           =       2.692E-02
 Computing fast CPCM-SWIG gradient
 Updating gradient with PCM contributions...
 -- total gradient after adding PCM contribution --
---------------------------------------------------
  Atom         X              Y              Z     
---------------------------------------------------
   1       0.000084       0.000145      -0.001565
   2      -0.000084      -0.000145       0.001565
---------------------------------------------------
 Number of fixed atoms: 0
 Gradient time:  CPU 32.94 s  wall 4.36 s

     Step 1	:	Energy -75.9341787584
                            Maximum         Tolerance       Converged?
         Gradient           1.57353935e-03	3.00000000e-04	false
         Displacement       5.90784018e-02	1.20000000e-03	false
         Energy change      9.52352460e-04	1.00000000e-06	false


	OPTIMIZATION CYCLE:	2

 All Eigenvalues from Projected Hessian
   0.47511648


 Scaling Magnitute of eigenvalues
 Minimum: -25.00000000
 Maximum: 25.00000000
 1 Hessian Eigenvalues to form next step
   0.47511648


 Minimum Search taking a RFO step
 Searching for Lambda that minimizes along all modes
 Value of Lambda  -0.00000521
 Norm of Stepsize  0.00331187

	Performing Iterative Coordinate Back-Transformation

	  Starting from Previous Position
	  iter:	0	rms: 0.00095605	maxdev: 0.00164407
	  iter:	1	rms: 0.00000000	maxdev: 0.00000000	 Success!

	Finished Iterative Coordinate Back-Transformation
 ----------------------------------------------------------------
             Standard Nuclear Orientation (Angstroms)
    I     Atom           X                Y                Z
 ----------------------------------------------------------------
    1      O      -5.3629607790    -2.3988536854     0.2857694544
    2      H      -5.4351192210    -2.4880463146     1.2389105456
 ----------------------------------------------------------------
 Nuclear Repulsion Energy =           4.40971357 hartrees
 There are        5 alpha and        5 beta electrons
 Discretize the solute cavity surface with Lebedev spheres
	Using 194 Lebedev grid points for each H atom
	Using 194 Lebedev grid points for other atoms
	Atomic van der Waals radii will be scaled by 1.10
 Remove points where switching function is < 1.0e-08
 Keep 287 surface tesserae and discard 101 interior tesserae
 Molecular Surface Area = 51.028 Angst**2

                       Distance Matrix (Angstroms)
             O (  1)
   H (  2)  0.960021
 
 Applying Cartesian multipole field
    Component          Value
    ---------          -----
     (2,0,0)        1.00000E-12
     (0,2,0)        2.00000E-11
     (0,0,2)       -3.00000E-11
 Nucleus-field energy     =     0.0000000044 hartrees
 Requested basis set is def2-TZVPD
 There are 19 shells and 49 basis functions
 A cutoff of  1.0D-16 yielded    190 shell pairs
 There are      1294 function pairs (      1648 Cartesian)
 Smallest overlap matrix eigenvalue = 2.36E-03
 Guess MOs from SCF MO coefficient file

 -----------------------------------------------------------------------
  General SCF calculation program by
  Eric Jon Sundstrom, Paul Horn, Yuezhi Mao, Dmitri Zuev, Alec White,
  David Stuck, Shaama M.S., Shane Yost, Joonho Lee, David Small,
  Daniel Levine, Susi Lehtola, Hugh Burton, Evgeny Epifanovsky,
  Bang C. Huynh
 -----------------------------------------------------------------------
 Exchange:     0.2220 Hartree-Fock + 1.0000 wB97X-D + LR-HF
 Correlation:  1.0000 wB97X-D
 Using SG-3 standard quadrature grid
 Dispersion:   Grimme D
 A restricted SCF calculation will be
 performed using Roothaan-Hall, DIIS
 SCF converges when DIIS error is below 1.0e-08
 ---------------------------------------
  Cycle       Energy         DIIS error
 ---------------------------------------
    1     -75.8026742869      1.60e-03  Roothaan Step
 ---------------------------------------
  Cycle       Energy         DIIS error
 ---------------------------------------
    1     -75.9308248986      2.63e-03  
    2     -75.9306884166      4.19e-03  
    3     -75.9340757681      4.75e-04  
    4     -75.9341731917      9.50e-05  
    5     -75.9341806363      2.25e-05  
    6     -75.9341810246      5.78e-06  
    7     -75.9341810582      8.12e-07  
    8     -75.9341810591      1.32e-07  
    9     -75.9341810591      2.31e-08  
   10     -75.9341810591      1.63e-09  Convergence criterion met
 ---------------------------------------
 SCF time:   CPU 283.81s  wall 28.00s 

************** Final PCM Free Energy Summary **************
 G_electrostatic  =      -0.13152859 hartree =     -82.53543904 kcal/mol
 G_cavitation     =       0.00000000 hartree =       0.00000000 kcal/mol
 G_dispersion     =       0.00000000 hartree =       0.00000000 kcal/mol
 G_repulsion      =       0.00000000 hartree =       0.00000000 kcal/mol
 --------------------------------------------------
 Non-electrostatic Free Energy =       0.00000000 hartree =       0.00000000 kcal/mol
 Total                         =      -0.13152859 hartree =     -82.53543904 kcal/mol
 --------------------------------------------------
 SCF Energy (H0 + V/2)                       =     -75.93418106 
 Solute Internal Energy (H0)                 =     -75.80265246 
 Total Free Energy (H0 + V/2 + non-elec)     =     -75.93418106 hartree
                                             =  -47649.41778723 kcal/mol
***********************************************************

 SCF   energy in the final basis set =      -75.9341810591
 Total energy in the final basis set =      -75.9341810591
 
 --------------------------------------------------------------
 
                    Orbital Energies (a.u.)
 --------------------------------------------------------------
 
 Alpha MOs
 -- Occupied --
-19.1250  -0.9331  -0.4205  -0.2847  -0.2847
 -- Virtual --
  0.0902   0.1312   0.1350   0.1350   0.2599   0.2871   0.2871   0.3558
  0.4444   0.4444   0.5168   0.5589   0.5589   0.7739   0.7739   0.7808
  0.7887   1.0661   1.7134   1.7134   1.8893   1.8900   1.8900   2.2995
  2.2995   2.5879   2.9103   2.9359   2.9359   3.2150   4.0042   5.3249
  5.3249   5.3574   5.3574   5.6442   5.6443   6.4179   6.5752   6.5757
  6.6872   6.6872   7.1882  43.6642
 --------------------------------------------------------------
 
          Ground-State Mulliken Net Atomic Charges

     Atom                 Charge (a.u.)
  ----------------------------------------
      1 O                    -1.191385
      2 H                     0.191385
  ----------------------------------------
  Sum of atomic charges =    -1.000000

  Building new vdw surfaces
         Merz-Kollman RESP Net Atomic Charges

     Atom                 Charge (a.u.)
  ----------------------------------------
      1 O                    -1.315292
      2 H                     0.315292
  ----------------------------------------
  Sum of atomic charges =    -1.000000

  Related Dipole Moment =    28.0642 (X 25.6501 Y 11.3871 Z  0.0708)

 -----------------------------------------------------------------
                    Cartesian Multipole Moments
 -----------------------------------------------------------------
    Charge (ESU x 10^10)
                -4.8032
    Dipole Moment (Debye)
         X      25.6592      Y      11.3985      Z      -0.0503
       Tot      28.0771
    Quadrupole Moments (Debye-Ang)
        XX    -147.3501     XY     -60.8686     YY     -37.3154
        XZ       0.0189     YZ      -0.1895     ZZ      -6.9940
    Octopole Moments (Debye-Ang^2)
       XXX     897.7500    XXY     349.7561    XYY     199.4975
       YYY     138.2671    XXZ      -2.3920    XYZ       1.6358
       YYZ      -2.4307    XZZ      37.3017    YZZ      16.5222
       ZZZ      -6.5723
    Hexadecapole Moments (Debye-Ang^3)
      XXXX   -5705.4141   XXXY   -2133.7421   XXYY   -1131.6379
      XYYY    -740.1487   YYYY    -525.5534   XXXZ      44.5650
      XXYZ      -3.3943   XYYZ      11.4883   YYYZ      21.3934
      XXZZ    -205.3720   XYZZ     -88.0878   YYZZ     -45.4441
      XZZZ      34.8926   YZZZ      15.3282   ZZZZ     -16.5563
 -----------------------------------------------------------------
 Calculating analytic gradient of the SCF energy
 Gradient of SCF Energy
            1           2
    1  -0.0036515   0.0036515
    2  -0.0045123   0.0045123
    3   0.0481095  -0.0481095
 Max gradient component =       4.811E-02
 RMS gradient           =       2.798E-02
 Computing fast CPCM-SWIG gradient
 Updating gradient with PCM contributions...
 -- total gradient after adding PCM contribution --
---------------------------------------------------
  Atom         X              Y              Z     
---------------------------------------------------
   1      -0.000048      -0.000019       0.000184
   2       0.000048       0.000019      -0.000184
---------------------------------------------------
 Number of fixed atoms: 0
 Gradient time:  CPU 31.66 s  wall 3.77 s

     Step 2	:	Energy -75.9341810591
                            Maximum         Tolerance       Converged?
         Gradient           1.87670178e-04	3.00000000e-04	true
         Displacement       3.31186598e-03	1.20000000e-03	false
         Energy change      2.30075452e-06	1.00000000e-06	false


	OPTIMIZATION CYCLE:	3

 All Eigenvalues from Projected Hessian
   0.53178768


 Scaling Magnitute of eigenvalues
 Minimum: -25.00000000
 Maximum: 25.00000000
 1 Hessian Eigenvalues to form next step
   0.53178768


 Minimum Search taking a RFO step
 Searching for Lambda that minimizes along all modes
 Value of Lambda  -0.00000007
 Norm of Stepsize  0.00035290

	Performing Iterative Coordinate Back-Transformation

	  Starting from Previous Position
	  iter:	0	rms: 0.00010187	maxdev: 0.00017519
	  iter:	1	rms: 0.00000000	maxdev: 0.00000000	 Success!

	Finished Iterative Coordinate Back-Transformation
 ----------------------------------------------------------------
             Standard Nuclear Orientation (Angstroms)
    I     Atom           X                Y                Z
 ----------------------------------------------------------------
    1      O      -5.3629537607    -2.3988450102     0.2856767491
    2      H      -5.4351262393    -2.4880549898     1.2390032509
 ----------------------------------------------------------------
 Nuclear Repulsion Energy =           4.40885594 hartrees
 There are        5 alpha and        5 beta electrons
 Discretize the solute cavity surface with Lebedev spheres
	Using 194 Lebedev grid points for each H atom
	Using 194 Lebedev grid points for other atoms
	Atomic van der Waals radii will be scaled by 1.10
 Remove points where switching function is < 1.0e-08
 Keep 287 surface tesserae and discard 101 interior tesserae
 Molecular Surface Area = 51.029 Angst**2

                       Distance Matrix (Angstroms)
             O (  1)
   H (  2)  0.960208
 
 Applying Cartesian multipole field
    Component          Value
    ---------          -----
     (2,0,0)        1.00000E-12
     (0,2,0)        2.00000E-11
     (0,0,2)       -3.00000E-11
 Nucleus-field energy     =     0.0000000044 hartrees
 Requested basis set is def2-TZVPD
 There are 19 shells and 49 basis functions
 A cutoff of  1.0D-16 yielded    190 shell pairs
 There are      1294 function pairs (      1648 Cartesian)
 Smallest overlap matrix eigenvalue = 2.36E-03
 Guess MOs from SCF MO coefficient file

 -----------------------------------------------------------------------
  General SCF calculation program by
  Eric Jon Sundstrom, Paul Horn, Yuezhi Mao, Dmitri Zuev, Alec White,
  David Stuck, Shaama M.S., Shane Yost, Joonho Lee, David Small,
  Daniel Levine, Susi Lehtola, Hugh Burton, Evgeny Epifanovsky,
  Bang C. Huynh
 -----------------------------------------------------------------------
 Exchange:     0.2220 Hartree-Fock + 1.0000 wB97X-D + LR-HF
 Correlation:  1.0000 wB97X-D
 Using SG-3 standard quadrature grid
 Dispersion:   Grimme D
 A restricted SCF calculation will be
 performed using Roothaan-Hall, DIIS
 SCF converges when DIIS error is below 1.0e-08
 ---------------------------------------
  Cycle       Energy         DIIS error
 ---------------------------------------
    1     -75.8026504676      1.61e-03  Roothaan Step
 ---------------------------------------
  Cycle       Energy         DIIS error
 ---------------------------------------
    1     -75.9307872041      2.66e-03  
    2     -75.9305997432      4.24e-03  
    3     -75.9340751436      4.80e-04  
    4     -75.9341733058      9.42e-05  
    5     -75.9341806746      2.23e-05  
    6     -75.9341810578      5.78e-06  
    7     -75.9341810911      8.10e-07  
    8     -75.9341810920      1.32e-07  
    9     -75.9341810921      2.32e-08  
   10     -75.9341810921      1.64e-09  Convergence criterion met
 ---------------------------------------
 SCF time:   CPU 275.41s  wall 25.00s 

************** Final PCM Free Energy Summary **************
 G_electrostatic  =      -0.13152819 hartree =     -82.53518560 kcal/mol
 G_cavitation     =       0.00000000 hartree =       0.00000000 kcal/mol
 G_dispersion     =       0.00000000 hartree =       0.00000000 kcal/mol
 G_repulsion      =       0.00000000 hartree =       0.00000000 kcal/mol
 --------------------------------------------------
 Non-electrostatic Free Energy =       0.00000000 hartree =       0.00000000 kcal/mol
 Total                         =      -0.13152819 hartree =     -82.53518560 kcal/mol
 --------------------------------------------------
 SCF Energy (H0 + V/2)                       =     -75.93418109 
 Solute Internal Energy (H0)                 =     -75.80265290 
 Total Free Energy (H0 + V/2 + non-elec)     =     -75.93418109 hartree
                                             =  -47649.41780789 kcal/mol
***********************************************************

 SCF   energy in the final basis set =      -75.9341810921
 Total energy in the final basis set =      -75.9341810921
 
 --------------------------------------------------------------
 
                    Orbital Energies (a.u.)
 --------------------------------------------------------------
 
 Alpha MOs
 -- Occupied --
-19.1250  -0.9331  -0.4204  -0.2847  -0.2847
 -- Virtual --
  0.0902   0.1312   0.1351   0.1351   0.2599   0.2871   0.2871   0.3558
  0.4444   0.4444   0.5168   0.5589   0.5589   0.7739   0.7739   0.7808
  0.7886   1.0661   1.7134   1.7134   1.8893   1.8900   1.8900   2.2993
  2.2993   2.5881   2.9101   2.9359   2.9359   3.2148   4.0040   5.3249
  5.3249   5.3574   5.3574   5.6441   5.6441   6.4173   6.5752   6.5757
  6.6871   6.6872   7.1879  43.6642
 --------------------------------------------------------------
 
          Ground-State Mulliken Net Atomic Charges

     Atom                 Charge (a.u.)
  ----------------------------------------
      1 O                    -1.191386
      2 H                     0.191386
  ----------------------------------------
  Sum of atomic charges =    -1.000000

  Building new vdw surfaces
         Merz-Kollman RESP Net Atomic Charges

     Atom                 Charge (a.u.)
  ----------------------------------------
      1 O                    -1.315196
      2 H                     0.315196
  ----------------------------------------
  Sum of atomic charges =    -1.000000

  Related Dipole Moment =    28.0642 (X 25.6501 Y 11.3871 Z  0.0711)

 -----------------------------------------------------------------
                    Cartesian Multipole Moments
 -----------------------------------------------------------------
    Charge (ESU x 10^10)
                -4.8032
    Dipole Moment (Debye)
         X      25.6592      Y      11.3985      Z      -0.0500
       Tot      28.0771
    Quadrupole Moments (Debye-Ang)
        XX    -147.3501     XY     -60.8684     YY     -37.3155
        XZ       0.0174     YZ      -0.1901     ZZ      -6.9940
    Octopole Moments (Debye-Ang^2)
       XXX     897.7520    XXY     349.7554    XYY     199.4980
       YYY     138.2683    XXZ      -2.3834    XYZ       1.6395
       YYZ      -2.4286    XZZ      37.3019    YZZ      16.5223
       ZZZ      -6.5710
    Hexadecapole Moments (Debye-Ang^3)
      XXXX   -5705.4415   XXXY   -2133.7419   XXYY   -1131.6409
      XYYY    -740.1544   YYYY    -525.5596   XXXZ      44.5135
      XXYZ      -3.4154   XYYZ      11.4768   YYYZ      21.3860
      XXZZ    -205.3731   XYZZ     -88.0880   YYZZ     -45.4444
      XZZZ      34.8858   YZZZ      15.3251   ZZZZ     -16.5567
 -----------------------------------------------------------------
 Calculating analytic gradient of the SCF energy
 Gradient of SCF Energy
            1           2
    1  -0.0036368   0.0036368
    2  -0.0044942   0.0044942
    3   0.0479155  -0.0479155
 Max gradient component =       4.792E-02
 RMS gradient           =       2.786E-02
 Computing fast CPCM-SWIG gradient
 Updating gradient with PCM contributions...
 -- total gradient after adding PCM contribution --
---------------------------------------------------
  Atom         X              Y              Z     
---------------------------------------------------
   1      -0.000034      -0.000001      -0.000004
   2       0.000034       0.000001       0.000004
---------------------------------------------------
 Number of fixed atoms: 0
 Gradient time:  CPU 32.72 s  wall 3.84 s

     Step 3	:	Energy -75.9341810921
                            Maximum         Tolerance       Converged?
         Gradient           1.00875445e-06	3.00000000e-04	true
         Displacement       3.52904291e-04	1.20000000e-03	true
         Energy change      3.29289520e-08	1.00000000e-06	true

	 Optimization Converged in 3 cycles

 *****************************************************
             End of BFGS Algorithm
 *****************************************************
		----------------------------------
		   Verification of Optimization
		----------------------------------

 Eigenvalues of Hessian in Optimization Verification
   0.53464618


 Found a minimum
		---------------------------------
		       End of Verification
		---------------------------------

 Final energy is -75.934181092052

	******************************
	**  OPTIMIZATION CONVERGED  **
	******************************
 ----------------------------------------------------------------
             Standard Nuclear Orientation (Angstroms)
    I     Atom           X                Y                Z
 ----------------------------------------------------------------
    1      O      -5.3629537607    -2.3988450102     0.2856767491
    2      H      -5.4351262393    -2.4880549898     1.2390032509
 ----------------------------------------------------------------
 Nuclear Repulsion Energy =           4.40885594 hartrees
 There are        5 alpha and        5 beta electrons

Z-matrix Print:
$molecule
-1 1
O 
H  1 0.960208
$end

 -----------------------------------------------------------------------
                  END OF GEOMETRY OPTIMIZER USING LIBOPT3               
 -----------------------------------------------------------------------
 Total job time:  135.39s(wall), 1368.90s(cpu) 
 Tue Jun  7 21:02:43 2022

        *************************************************************
        *                                                           *
        *  Thank you very much for using Q-Chem.  Have a nice day.  *
        *                                                           *
        *************************************************************


