
Running Job 1 of 1 mol.qin
qchem mol.qin_56801.0 /tmp/qchem56801/ 1
srun -n 1 /global/common/cori/software/qchem/5.1beta/exe/qcprog.exe mol.qin_56801.0 /tmp/qchem56801/

Process 0 of 1 is on nid00761 - thread support 0
initial socket setup ...start
initial socket setup ...done 
now start server 0 ... 
Check license passed

                  Welcome to Q-Chem
     A Quantum Leap Into The Future Of Chemistry


 Q-Chem 5.1, Q-Chem, Inc., Pleasanton, CA (2018)

 Yihan Shao,  Zhengting Gan,  E. Epifanovsky,  A. T. B. Gilbert,  M. Wormit,  
 J. Kussmann,  A. W. Lange,  A. Behn,  Jia Deng,  Xintian Feng,  D. Ghosh,  
 M. Goldey,  P. R. Horn,  L. D. Jacobson,  I. Kaliman,  T. Kus,  A. Landau,  
 Jie Liu,  E. I. Proynov,  R. M. Richard,  R. P. Steele,  E. J. Sundstrom,  
 H. L. Woodcock III,  P. M. Zimmerman,  D. Zuev,  B. Albrecht,  E. Alguire,  
 S. A. Baeppler,  D. Barton,  Z. Benda,  Y. A. Bernard,  E. J. Berquist,  
 K. B. Bravaya,  H. Burton,  D. Casanova,  Chun-Min Chang,  Yunqing Chen,  
 A. Chien,  K. D. Closser,  M. P. Coons,  S. Coriani,  S. Dasgupta,  
 A. L. Dempwolff,  M. Diedenhofen,  Hainam Do,  R. G. Edgar,  Po-Tung Fang,  
 S. Faraji,  S. Fatehi,  Qingguo Feng,  K. D. Fenk,  J. Fosso-Tande,  
 Qinghui Ge,  A. Ghysels,  G. Gidofalvi,  J. Gomes,  J. Gonthier,  A. Gunina,  
 M. W. D. Hanson-Heine,  P. H. P. Harbach,  A. W. Hauser,  J. E. Herr,  
 E. G. Hohenstein,  Z. C. Holden,  Kerwin Hui,  T.-C. Jagau,  Hyunjun Ji,  
 B. Kaduk,  K. Khistyaev,  Jaehoon Kim,  P. Klunzinger,  K. Koh,  
 D. Kosenkov,  L. Koulias,  T. Kowalczyk,  C. M. Krauter,  A. Kunitsa,  
 Ka Un Lao,  A. Laurent,  K. V. Lawler,  Joonho Lee,  D. Lefrancois,  
 S. Lehtola,  D. S. Levine,  Yi-Pei Li,  You-Sheng Lin,  Fenglai Liu,  
 E. Livshits,  A. Luenser,  P. Manohar,  E. Mansoor,  S. F. Manzer,  
 Shan-Ping Mao,  Yuezhi Mao,  N. Mardirossian,  A. V. Marenich,  
 T. Markovich,  L. A. Martinez-Martinez,  S. A. Maurer,  N. J. Mayhall,  
 S. C. McKenzie,  J.-M. Mewes,  A. F. Morrison,  J. W. Mullinax,  K. Nanda,  
 T. S. Nguyen-Beck,  R. Olivares-Amaya,  J. A. Parkhill,  T. M. Perrine,  
 F. Plasser,  P. Pokhilko,  S. Prager,  A. Prociuk,  E. Ramos,  D. R. Rehn,  
 F. Rob,  M. Schneider,  N. Sergueev,  S. M. Sharada,  S. Sharma,  
 D. W. Small,  T. Stauch,  T. Stein,  Yu-Chuan Su,  A. J. W. Thom,  
 A. Tkatchenko,  T. Tsuchimochi,  N. M. Tubman,  L. Vogt,  M. L. Vidal,  
 O. Vydrov,  M. A. Watson,  J. Wenzel,  M. de Wergifosse,  T. A. Wesolowski,  
 A. White,  J. Witte,  A. Yamada,  Jun Yang,  K. Yao,  S. Yeganeh,  
 S. R. Yost,  Zhi-Qiang You,  A. Zech,  Igor Ying Zhang,  Xing Zhang,  
 Yan Zhao,  Ying Zhu,  B. R. Brooks,  G. K. L. Chan,  C. J. Cramer,  
 M. S. Gordon,  W. J. Hehre,  A. Klamt,  M. W. Schmidt,  C. D. Sherrill,  
 D. G. Truhlar,  A. Aspuru-Guzik,  R. Baer,  A. T. Bell,  N. A. Besley,  
 Jeng-Da Chai,  R. A. DiStasio Jr.,  A. Dreuw,  B. D. Dunietz,  
 T. R. Furlani,  Chao-Ping Hsu,  Yousung Jung,  Jing Kong,  D. S. Lambrecht,  
 WanZhen Liang,  C. Ochsenfeld,  V. A. Rassolov,  L. V. Slipchenko,  
 J. E. Subotnik,  T. Van Voorhis,  J. M. Herbert,  A. I. Krylov,  
 P. M. W. Gill,  M. Head-Gordon

 Contributors to earlier versions of Q-Chem not listed above: 
 R. D. Adamson,  B. Austin,  J. Baker,  G. J. O. Beran,  K. Brandhorst,  
 S. T. Brown,  E. F. C. Byrd,  A. K. Chakraborty,  C.-L. Cheng,  
 Siu Hung Chien,  D. M. Chipman,  D. L. Crittenden,  H. Dachsel,  
 R. J. Doerksen,  A. D. Dutoi,  L. Fusti-Molnar,  W. A. Goddard III,  
 A. Golubeva-Zadorozhnaya,  S. R. Gwaltney,  G. Hawkins,  A. Heyden,  
 S. Hirata,  G. Kedziora,  F. J. Keil,  C. Kelley,  Jihan Kim,  R. A. King,  
 R. Z. Khaliullin,  P. P. Korambath,  W. Kurlancheek,  A. M. Lee,  M. S. Lee,  
 S. V. Levchenko,  Ching Yeh Lin,  D. Liotard,  R. C. Lochan,  I. Lotan,  
 P. E. Maslen,  N. Nair,  D. P. O'Neill,  D. Neuhauser,  E. Neuscamman,  
 C. M. Oana,  R. Olson,  B. Peters,  R. Peverati,  P. A. Pieniazek,  
 Y. M. Rhee,  J. Ritchie,  M. A. Rohrdanz,  E. Rosta,  N. J. Russ,  
 H. F. Schaefer III,  N. E. Schultz,  N. Shenvi,  A. C. Simmonett,  A. Sodt,  
 D. Stuck,  K. S. Thanthiriwatte,  V. Vanovschi,  Tao Wang,  A. Warshel,  
 C. F. Williams,  Q. Wu,  X. Xu,  W. Zhang

 Please cite Q-Chem as follows:
 Y. Shao et al., Mol. Phys. 113, 184-215 (2015)
 DOI: 10.1080/00268976.2014.952696

 Q-Chem 5.1.0 for Intel X86 EM64T Linux

 Parts of Q-Chem use Armadillo 8.300.2 (Tropical Shenanigans).
 http://arma.sourceforge.net/

 Q-Chem begins on Mon Aug 27 12:21:58 2018  

Host: cori09
0

     Scratch files written to /tmp/qchem56801//
 Mar1918  _RNUM -1
 Parallel job on  1  processors
Processing $rem in /global/common/cori/software/qchem/5.1beta/config/preferences.
 MEM_TOTAL  2000 

Checking the input file for inconsistencies... 	...done.

--------------------------------------------------------------
User input:
--------------------------------------------------------------
$molecule
0 2
O      1.0366941323      0.4384166950      0.0181650919
O     -1.1125165058      0.4736426978      0.0038702618
O     -0.0569693383     -1.5324780825      0.0028343670
C      2.2939660998     -0.2589300613      0.0151339656
C     -2.3570207759     -0.1207198555     -0.0046998492
C      3.3787341383      0.7411961705     -0.0251810795
C     -3.4446880554      0.6294083941     -0.0065574267
C     -0.0397120877     -0.3324024211      0.0078641725
H      2.3541760776     -0.8966594678      0.9029819696
H      2.3127988417     -0.9286748174     -0.8565919051
H     -2.3419088604     -1.2034174472     -0.0095839294
H      4.3825752790      0.4488370474      0.2545589654
H      3.2131235656      1.7113034705     -0.4752625389
H     -4.4167020231      0.1541791673     -0.0133655010
H     -3.3934061092      1.7119110316     -0.0010964646
$end

$rem
job_type = freq
basis = 6-311++g*
max_scf_cycles = 200
gen_scfman = true
scf_algorithm = gdm
method = wb97xd
geom_opt_max_cycles = 200
$end
--------------------------------------------------------------
 ----------------------------------------------------------------
             Standard Nuclear Orientation (Angstroms)
    I     Atom           X                Y                Z
 ----------------------------------------------------------------
    1      O       1.0359156404     0.4384967280     0.0301453481
    2      O      -1.1133006315     0.4732022841     0.0154306760
    3      O      -0.0569432005    -1.5319525687    -0.0310932429
    4      C       2.2934705567    -0.2581050719     0.0118136474
    5      C      -2.3575598009    -0.1212925651    -0.0075075759
    6      C       3.3778573127     0.7431071273    -0.0048889083
    7      C      -3.4455286196     0.6282553730     0.0072467538
    8      C      -0.0401733013    -0.3323026493     0.0015188081
    9      H       2.3534367404    -0.9160424870     0.8848087964
   10      H       2.3130658394    -0.9076361007    -0.8750596083
   11      H      -2.3420080132    -1.2035861152    -0.0372584196
   12      H       4.3816583137     0.4447898210     0.2686357168
   13      H       3.2121092193     1.7232349956    -0.4326567036
   14      H      -4.4173466448     0.1529283526    -0.0110363200
   15      H      -3.3946868086     1.7103667024     0.0376079375
 ----------------------------------------------------------------
 Molecular Point Group                 C1    NOp =  1
 Largest Abelian Subgroup              C1    NOp =  1
 Nuclear Repulsion Energy =   363.1378649455 hartrees
 There are       31 alpha and       30 beta electrons
 Requested basis set is 6-311++G(d)
 There are 76 shells and 204 basis functions

 Total QAlloc Memory Limit   2000 MB
 Mega-Array Size       188 MB
 MEM_STATIC part       192 MB

                       Distance Matrix (Angstroms)
             O (  1)   O (  2)   O (  3)   C (  4)   C (  5)   C (  6)
   O (  2)  2.149547
   O (  3)  2.254054  2.266870
   C (  4)  1.437719  3.484381  2.673756
   C (  5)  3.439543  1.379178  2.698769  4.653082
   C (  6)  2.361928  4.499307  4.120005  1.476008  5.800190
   C (  7)  4.485518  2.337391  4.018766  5.807045  1.321255  6.824363
   C (  8)  1.323978  1.341877  1.200210  2.334846  2.326991  3.583222
   H (  9)  2.073906  3.834591  2.651066  1.094805  4.860179  2.143310
   H ( 10)  2.064602  3.799957  2.592102  1.099463  4.815156  2.148472
   H ( 11)  3.756507  2.079451  2.308546  4.731174  1.082814  6.042145
   H ( 12)  3.354238  5.500863  4.868114  2.218231  6.768587  1.082324
   H ( 13)  2.569155  4.524658  4.630789  2.228712  5.882537  1.082178
   H ( 14)  5.460890  3.319638  4.674649  6.723432  2.077963  7.817516
   H ( 15)  4.609550  2.595340  4.653803  6.019193  2.105384  6.841400
             C (  7)   C (  8)   H (  9)   H ( 10)   H ( 11)   H ( 12)
   C (  8)  3.538241
   H (  9)  6.064897  2.617312
   H ( 10)  6.024852  2.576263  1.760351
   H ( 11)  2.139014  2.461520  4.793755  4.739115
   H ( 12)  7.833699  4.497535  2.518971  2.723265  6.929531
   H ( 13)  6.761408  3.871832  3.072266  2.815223  6.290536  1.869245
   H ( 14)  1.081989  4.404004  6.912940  6.868026  2.479486  8.808285
   H ( 15)  1.083730  3.927666  6.376261  6.345498  3.099171  7.882043
             H ( 13)   H ( 14)
   H ( 14)  7.800784
   H ( 15)  6.623524  1.863817
 
 A cutoff of  1.0D-12 yielded   2591 shell pairs
 There are     19269 function pairs (     20772 Cartesian)
 
 -------------------------------------------------------
 OpenMP Integral Computing Module                       
 Release: version 1.0, May 2013, Q-Chem Inc. Pittsburgh 
 -------------------------------------------------------
 Integral Job Info:
 Integral job number is                      11
 Integral operator is                         1
 short-range coefficients              22203600
 long-range coefficients              100000000
 Omega coefficients                         200
 if combine SR and LR in K                    1
 Integral screening is                        0
 Integral computing path is                   2
 max size of driver memory is            800000
 size of driver memory is                593474
 size of scratch memory is              2428936
 max col of scratch BK array               1296
 max len of scratch array in speh3          155
 max len of scratch index in speh4           18
 max int batch size is                      520
 min int batch size is                       52
 fixed nKL is                                52
 max L of basis functions is                  2
 order of int derivative is                   0
 number of shells is                         76
 number of basis is                         212
 number of cartesian basis is               212
 number of contracted shell pairs          2591
 number of primitive shell pairs           6856
 maxK2 (contraction) of shell pair           36
 max number of K2 of shell pair               1
 max number of CS2 of shell pair            516
 max number of PS2 of shell pair           1068
 mem total for path MDJ                  544178
 -------------------------------------------------------
 Smallest overlap matrix eigenvalue = 1.78E-05
 Guess from superposition of atomic densities
 Warning:  Energy on first SCF cycle will be non-variational
 SAD guess density has 61.000000 electrons

 -----------------------------------------------------------------------
  General SCF calculation program by
  Eric Jon Sundstrom, Paul Horn, Yuezhi Mao, Dmitri Zuev, Alec White,
  David Stuck, Shaama M.S., Shane Yost, Joonho Lee, David Small,
  Daniel Levine, Susi Lehtola, Hugh Burton, Evgeny Epifanovsky
 -----------------------------------------------------------------------
 Exchange:     0.2220 Hartree-Fock + 1.0000 wB97X-D + LR-HF
 Correlation:  1.0000 wB97X-D
 Using SG-2 standard quadrature grid
 Dispersion:   Grimme D
 using 32 threads for integral computing
 -------------------------------------------------------
 OpenMP Integral computing Module                
 Release: version 1.0, May 2013, Q-Chem Inc. Pittsburgh 
 -------------------------------------------------------
 using 32 threads for integral computing
 -------------------------------------------------------
 OpenMP Integral computing Module                
 Release: version 1.0, May 2013, Q-Chem Inc. Pittsburgh 
 -------------------------------------------------------
 -------------------------------------------------------
 OpenMP BLAS3 based DFT computing Module                
 Release: version 1.0, May 2013, Q-Chem Inc. Pittsburgh 
 -------------------------------------------------------
 A unrestricted SCF calculation will be
 performed using Roothaan-Hall, GDM
 SCF converges when RMS gradient is below 1.0e-08
 ---------------------------------------
  Cycle       Energy         DIIS error
 ---------------------------------------
    1    -422.1041027814      2.32e-02  Roothaan Step
 ---------------------------------------
  Cycle       Energy        RMS Gradient
 ---------------------------------------
    1    -420.1288872102      1.88e-01   Descent step
    2    -420.2840279492      2.52e-02   Normal BFGS step
    3    -420.2948708759      2.77e-02   Normal BFGS step
    4    -420.2990436547      9.97e-03   Normal BFGS step
    5    -420.2997681888      2.78e-03   Normal BFGS step
    6    -420.2998563158      1.01e-03   Normal BFGS step
    7    -420.2998726901      3.95e-04   Normal BFGS step
    8    -420.2998743577      2.34e-04   Normal BFGS step
    9    -420.2998749435      6.28e-05   Normal BFGS step
   10    -420.2998750090      3.58e-05   Normal BFGS step
   11    -420.2998750205      1.60e-05   Normal BFGS step
   12    -420.2998750214      5.22e-06   Normal BFGS step
   13    -420.2998750217      1.61e-06   Normal BFGS step
   14    -420.2998750218      6.45e-07   Normal BFGS step
   15    -420.2998750218      3.70e-07   Normal BFGS step
   16    -420.2998750218      2.81e-07   Normal BFGS step
   17    -420.2998750218      1.43e-07   Normal BFGS step
   18    -420.2998750218      5.31e-08   Normal BFGS step
   19    -420.2998750218      3.83e-08   Normal BFGS step
   20    -420.2998750218      1.46e-08   Normal BFGS step
   21    -420.2998750218      1.23e-08   Normal BFGS step
   22    -420.2998750218      5.77e-09  Convergence criterion met
 ---------------------------------------
 SCF time:   CPU 591.55s  wall 25.00s 
 SCF   energy in the final basis set =     -420.2998750218
<S^2> =          0.754401267
 
 --------------------------------------------------------------
 
                    Orbital Energies (a.u.)
 --------------------------------------------------------------
 
 Alpha MOs
 -- Occupied --
-19.320 -19.312 -19.249 -10.476 -10.362 -10.355 -10.308 -10.286
 -1.276  -1.190  -1.147  -0.913  -0.876  -0.774  -0.714  -0.672
 -0.669  -0.619  -0.595  -0.560  -0.551  -0.540  -0.514  -0.511
 -0.473  -0.467  -0.462  -0.414  -0.397  -0.342  -0.309
 -- Virtual --
  0.042   0.053   0.060   0.061   0.068   0.069   0.075   0.088
  0.108   0.111   0.117   0.126   0.141   0.144   0.152   0.161
  0.169   0.170   0.185   0.188   0.192   0.194   0.197   0.204
  0.212   0.221   0.226   0.229   0.234   0.251   0.256   0.257
  0.283   0.300   0.307   0.315   0.322   0.332   0.334   0.347
  0.353   0.359   0.372   0.383   0.391   0.399   0.418   0.431
  0.434   0.461   0.468   0.492   0.506   0.548   0.559   0.573
  0.580   0.596   0.607   0.618   0.624   0.637   0.652   0.667
  0.706   0.729   0.741   0.753   0.764   0.778   0.803   0.818
  0.824   0.843   0.863   0.901   0.927   0.958   0.984   1.003
  1.075   1.113   1.129   1.133   1.187   1.197   1.232   1.242
  1.249   1.258   1.273   1.282   1.350   1.366   1.372   1.424
  1.465   1.534   1.583   1.608   1.619   1.641   1.667   1.700
  1.714   1.749   1.812   1.822   1.875   1.886   1.911   1.941
  1.947   2.017   2.027   2.066   2.153   2.195   2.322   2.504
  2.524   2.532   2.567   2.613   2.636   2.661   2.756   2.818
  2.826   2.888   2.924   2.951   2.952   2.998   3.021   3.102
  3.133   3.145   3.229   3.232   3.257   3.276   3.322   3.359
  3.385   3.424   3.497   3.502   3.678   3.708   3.750   3.904
  4.070   4.122   4.206   4.246   5.056   5.105   5.131   5.298
  5.328   5.496   5.710   5.951   6.001  23.544  23.630  23.845
 23.949  24.351  49.995  50.054  50.146
 
 Beta MOs
 -- Occupied --
-19.320 -19.312 -19.249 -10.476 -10.363 -10.355 -10.297 -10.286
 -1.276  -1.189  -1.147  -0.908  -0.866  -0.762  -0.698  -0.671
 -0.668  -0.617  -0.595  -0.553  -0.549  -0.535  -0.509  -0.504
 -0.469  -0.464  -0.461  -0.411  -0.396  -0.342
 -- Virtual --
 -0.005   0.047   0.054   0.060   0.063   0.070   0.072   0.079
  0.089   0.110   0.111   0.118   0.127   0.146   0.153   0.162
  0.166   0.170   0.171   0.186   0.189   0.194   0.195   0.198
  0.207   0.215   0.223   0.227   0.234   0.239   0.253   0.260
  0.265   0.284   0.301   0.308   0.318   0.324   0.335   0.338
  0.347   0.354   0.360   0.374   0.385   0.394   0.402   0.418
  0.432   0.436   0.462   0.470   0.492   0.509   0.556   0.564
  0.574   0.583   0.598   0.616   0.626   0.634   0.641   0.664
  0.683   0.709   0.733   0.744   0.754   0.769   0.783   0.806
  0.818   0.826   0.846   0.865   0.905   0.932   0.959   0.986
  1.005   1.075   1.114   1.132   1.143   1.188   1.198   1.235
  1.243   1.250   1.260   1.274   1.292   1.351   1.368   1.419
  1.425   1.469   1.541   1.602   1.608   1.620   1.645   1.670
  1.703   1.726   1.761   1.828   1.834   1.885   1.903   1.915
  1.942   1.947   2.021   2.027   2.067   2.153   2.210   2.322
  2.507   2.524   2.538   2.567   2.616   2.641   2.667   2.756
  2.822   2.874   2.905   2.930   2.952   2.954   2.999   3.022
  3.102   3.139   3.147   3.231   3.235   3.257   3.278   3.323
  3.371   3.388   3.426   3.497   3.503   3.678   3.710   3.750
  3.912   4.073   4.123   4.206   4.247   5.056   5.105   5.131
  5.298   5.328   5.496   5.711   5.951   6.001  23.548  23.639
 23.854  23.949  24.351  49.995  50.054  50.146
 --------------------------------------------------------------
 
          Ground-State Mulliken Net Atomic Charges

     Atom                 Charge (a.u.)    Spin (a.u.)
  --------------------------------------------------------
      1 O                    -0.046493      -0.001828
      2 O                    -0.064773      -0.001835
      3 O                    -0.281855       0.000887
      4 C                    -0.384555      -0.094520
      5 C                     0.016580      -0.000724
      6 C                    -0.475769       1.117890
      7 C                    -0.518526       0.000054
      8 C                    -0.074095      -0.000411
      9 H                     0.289562       0.024382
     10 H                     0.290214       0.054076
     11 H                     0.288934      -0.000033
     12 H                     0.246019      -0.048098
     13 H                     0.242985      -0.049875
     14 H                     0.218407       0.000029
     15 H                     0.253363       0.000007
  --------------------------------------------------------
  Sum of atomic charges =    -0.000000
  Sum of spin   charges =     1.000000

 -----------------------------------------------------------------
                    Cartesian Multipole Moments
 -----------------------------------------------------------------
    Charge (ESU x 10^10)
                -0.0000
    Dipole Moment (Debye)
         X       0.8659      Y       0.2858      Z      -0.1244
       Tot       0.9203
    Quadrupole Moments (Debye-Ang)
        XX     -35.0605     XY      -0.7646     YY     -50.6545
        XZ      -0.0391     YZ      -0.7890     ZZ     -48.4273
    Octopole Moments (Debye-Ang^2)
       XXX       1.2459    XXY      -3.9243    XYY      -2.7579
       YYY       8.4369    XXZ       1.3044    XYZ      -2.4589
       YYZ      -1.2003    XZZ       4.7603    YZZ      -3.2205
       ZZZ      -0.0643
    Hexadecapole Moments (Debye-Ang^3)
      XXXX   -1325.5207   XXXY      -6.6991   XXYY    -268.1523
      XYYY      -2.9910   YYYY    -219.0809   XXXZ      12.6290
      XXYZ      -5.2986   XYYZ      -4.6796   YYYZ      -3.0697
      XXZZ    -292.0432   XYZZ      -2.9339   YYZZ     -46.2419
      XZZZ      -0.1012   YZZZ      -0.5733   ZZZZ     -57.7052
 -----------------------------------------------------------------
 Calculating MO derivatives via CPSCF
 D1JvT checksum  = 1031580 31565.180920653
 D1KAT checksum  = 2249280 2792.841945895
 D1JvT checksum  = 1031580 20135.296979110
 D1KAT checksum  = 2249280 1215.141210017
   1         3          45      0.229105    0.028183
   2         3          45      0.041936    0.007095
   3         3          45      0.006006    0.001085
   4         3          45      0.000900    0.000184
   5        14          34      0.000111    0.000022
   6        45           3      0.000006    0.000003
   7        48           0      0.000000    0.000000    Roots Converged
 Time for AOints: 124.8 s (CPU) 7.3 s (wall)
 ------------------------------------------------------------------------------
                     AOints        : Timing summary (seconds)
 ------------------------------------------------------------------------------
     job step          cpu (% of tot)      sys (% of tot)     wall (% of tot)
 ------------------------------------------------------------------------------
  cpscf_lag         0.1266E+04 (47.2)   0.8083E-02 (58.4)   0.2808E+03 (50.0)
  iterzp            0.1289E+04 (48.1)   0.4876E-02 (35.2)   0.2732E+03 (48.6)
  make_fx           0.0000E+00 ( 0.0)   0.0000E+00 ( 0.0)   0.0000E+00 ( 0.0)
  AOints            0.1248E+03 ( 4.7)   0.8830E-03 ( 6.4)   0.7302E+01 ( 1.3)
 ------------------------------------------------------------------------------
   Grand Totals     0.2680E+04          0.1385E-01          0.5615E+03
 ------------------------------------------------------------------------------
 Calculating analytic Hessian of the SCF energy
 Polarizability Matrix (a.u.)
            1           2           3
    1 -97.6534940   5.5979112  -0.3309223
    2   5.5979112 -66.0571249   0.0228152
    3  -0.3309223   0.0228152 -47.6302036
atom: 0 element: 8
atom: 1 element: 8
atom: 2 element: 8
atom: 3 element: 6
atom: 4 element: 6
atom: 5 element: 6
atom: 6 element: 6
atom: 7 element: 6
atom: 8 element: 1
atom: 9 element: 1
atom: 10 element: 1
atom: 11 element: 1
atom: 12 element: 1
atom: 13 element: 1
atom: 14 element: 1
 
 Direct stationary perturbation theory relativistic correction:
 
 rels  =       0.135433349050
 relv  =      -0.624391637935
 rel2e =       0.000000000000
 E_rel =      -0.488958288885
 
 Hessian of the SCF Energy
            1           2           3           4           5           6
    1   0.5769425   0.0502344   0.0032512  -0.1119510  -0.0160847  -0.0013776
    2   0.0502344   0.3791076   0.0097957   0.0195170   0.0217517   0.0002584
    3   0.0032512   0.0097957   0.0769685  -0.0000170   0.0002079   0.0118054
    4  -0.1119510   0.0195170  -0.0000170   0.6059396  -0.0332467   0.0024770
    5  -0.0160847   0.0217517   0.0002079  -0.0332467   0.3792467   0.0085004
    6  -0.0013776   0.0002584   0.0118054   0.0024770   0.0085004   0.0485676
    7  -0.0075285  -0.0563503  -0.0016154  -0.0068638   0.0528644   0.0012529
    8  -0.0521827  -0.0706430  -0.0030618   0.0529706  -0.0663701  -0.0021207
    9  -0.0017672  -0.0033100   0.0308923   0.0012116  -0.0021611   0.0274354
   10  -0.1453396   0.0404216   0.0017393   0.0098702  -0.0012871   0.0000367
   11   0.0735879  -0.1283109   0.0005996  -0.0095895  -0.0025076  -0.0002984
   12   0.0049434   0.0014327  -0.0640277  -0.0005843  -0.0000465   0.0034865
   13   0.0111973   0.0014123   0.0000577  -0.2150100  -0.0557614  -0.0025420
   14   0.0112330  -0.0028161  -0.0000856  -0.0851913  -0.1590429  -0.0036865
   15   0.0003054  -0.0001086   0.0019374  -0.0032513  -0.0035050  -0.0403438
   16  -0.0469950  -0.0221697  -0.0012228  -0.0021337  -0.0010221  -0.0000306
   17   0.0172128   0.0162723  -0.0000844   0.0021286   0.0008548   0.0000703
   18  -0.0040154  -0.0018821   0.0020222  -0.0003816  -0.0000433   0.0000963
   19  -0.0061491   0.0008607   0.0000036  -0.0699303   0.0182723   0.0000758
   20  -0.0016245   0.0012487   0.0000144  -0.0215629   0.0238761   0.0002874
   21  -0.0000783   0.0000324   0.0002746  -0.0010310   0.0005074   0.0083168
   22  -0.2289161  -0.0791860  -0.0031492  -0.1905833   0.0674146   0.0011347
   23  -0.1042219  -0.1890762  -0.0040485   0.0787882  -0.1854341  -0.0025004
   24  -0.0035750  -0.0039054  -0.0723207   0.0014591  -0.0027491  -0.0659368
   25  -0.0191765   0.0222345  -0.0260648  -0.0018803  -0.0004324   0.0007275
   26   0.0116581  -0.0123525   0.0114186   0.0009272   0.0000748  -0.0000154
   27  -0.0040900  -0.0030723   0.0071265  -0.0000208  -0.0006286  -0.0004314
   28  -0.0205678   0.0242484   0.0269923  -0.0019103  -0.0003605  -0.0007617
   29   0.0138496  -0.0137822  -0.0137751   0.0010786   0.0000569   0.0000786
   30   0.0043576   0.0007802   0.0049377   0.0000927   0.0006899  -0.0003556
   31   0.0000001   0.0016422   0.0000543  -0.0139428  -0.0341048  -0.0010549
   32  -0.0009840   0.0002391   0.0000001  -0.0083511  -0.0118635  -0.0005000
   33  -0.0000232   0.0000129   0.0001506  -0.0003074  -0.0006179   0.0046206
   34  -0.0041303  -0.0036082  -0.0002602  -0.0010754  -0.0001311  -0.0000069
   35  -0.0041545  -0.0033348  -0.0002793  -0.0007914  -0.0001894  -0.0000224
   36   0.0025862  -0.0004657   0.0007521   0.0003437  -0.0000394  -0.0000264
   37   0.0033600   0.0007757   0.0002336   0.0000770   0.0002787  -0.0000154
   38   0.0007420   0.0017553  -0.0007075  -0.0002517   0.0001096   0.0000220
   39  -0.0005379   0.0004274  -0.0002905  -0.0000603  -0.0000447  -0.0000391
   40  -0.0008897   0.0002691   0.0000093  -0.0034141   0.0044591   0.0000421
   41   0.0006399  -0.0001812   0.0000110   0.0047298  -0.0020324  -0.0003240
   42   0.0000214   0.0000121  -0.0005634   0.0000462  -0.0003300   0.0107880
   43   0.0001436  -0.0003016  -0.0000118   0.0028084  -0.0008584   0.0000424
   44   0.0000948   0.0001222  -0.0000051  -0.0011554   0.0014693   0.0002509
   45  -0.0000007  -0.0000077   0.0003349   0.0000234   0.0002600  -0.0079835
            7           8           9          10          11          12
    1  -0.0075285  -0.0521827  -0.0017672  -0.1453396   0.0735879   0.0049434
    2  -0.0563503  -0.0706430  -0.0033100   0.0404216  -0.1283109   0.0014327
    3  -0.0016154  -0.0030618   0.0308923   0.0017393   0.0005996  -0.0640277
    4  -0.0068638   0.0529706   0.0012116   0.0098702  -0.0095895  -0.0005843
    5   0.0528644  -0.0663701  -0.0021611  -0.0012871  -0.0025076  -0.0000465
    6   0.0012529  -0.0021207   0.0274354   0.0000367  -0.0002984   0.0034865
    7   0.1252791   0.0128748   0.0008169   0.0047232  -0.0061332  -0.0002227
    8   0.0128748   0.8727380   0.0227735   0.0193347  -0.0084061  -0.0000070
    9   0.0008169   0.0227735   0.0395707   0.0005896  -0.0001398  -0.0034811
   10   0.0047232   0.0193347   0.0005896   0.4651277   0.0460494   0.0086394
   11  -0.0061332  -0.0084061  -0.0001398   0.0460494   0.5419951  -0.0300156
   12  -0.0002227  -0.0000070  -0.0034811   0.0086394  -0.0300156   0.5499032
   13   0.0039749  -0.0223132  -0.0005903  -0.0036616   0.0011124   0.0001459
   14   0.0027488  -0.0120444  -0.0003062  -0.0012738   0.0020444   0.0000367
   15   0.0001048  -0.0004443  -0.0001393  -0.0000670  -0.0000472   0.0018192
   16   0.0006786  -0.0018783   0.0001143  -0.1661209  -0.0793784  -0.0072818
   17  -0.0014133   0.0019989   0.0000528  -0.0948759  -0.1689595   0.0161999
   18   0.0001709   0.0001475   0.0005728  -0.0068424   0.0162139  -0.0533981
   19  -0.0007538   0.0061675   0.0001658   0.0014030  -0.0009361  -0.0000666
   20   0.0030832   0.0029602   0.0000933  -0.0000995  -0.0003184  -0.0000013
   21   0.0000764   0.0001105   0.0001305   0.0000029  -0.0000200   0.0000063
   22  -0.1166684  -0.0132156  -0.0003884  -0.0667653  -0.0094995   0.0003472
   23  -0.0117378  -0.7249202  -0.0172706  -0.0099890   0.0229653   0.0005702
   24  -0.0005430  -0.0172753  -0.0938168  -0.0002574   0.0015336  -0.0030898
   25  -0.0000756  -0.0031389   0.0003690  -0.0512361   0.0003810   0.0012994
   26   0.0001914   0.0011624  -0.0000841   0.0067926  -0.1327352   0.1235181
   27   0.0010658  -0.0019069   0.0001684  -0.0090809   0.1242653  -0.2218538
   28  -0.0002021  -0.0031301  -0.0005881  -0.0439538  -0.0069734  -0.0122759
   29   0.0000261   0.0012318   0.0002547   0.0047521  -0.1239233  -0.1166276
   30  -0.0011240   0.0020294   0.0002112   0.0050584  -0.1110330  -0.2154705
   31  -0.0011884   0.0043399   0.0001080  -0.0000902   0.0000956   0.0000002
   32   0.0038825   0.0016454   0.0001069   0.0002884  -0.0001280  -0.0000042
   33   0.0000666   0.0000865  -0.0010471   0.0000061   0.0000039   0.0000120
   34  -0.0002574  -0.0006339   0.0000111  -0.0099109   0.0110917  -0.0043455
   35   0.0000372  -0.0002200   0.0000154  -0.0169894   0.0103377  -0.0051425
   36   0.0000486  -0.0000558  -0.0001193  -0.0001107   0.0019555   0.0014135
   37  -0.0004995   0.0008240  -0.0000493   0.0058212  -0.0196741   0.0094067
   38  -0.0001683   0.0005196  -0.0000447   0.0069290  -0.0121542   0.0100809
   39  -0.0000995  -0.0002971  -0.0000349   0.0002886  -0.0030296   0.0047983
   40  -0.0000988   0.0007688   0.0000208   0.0002091  -0.0001829  -0.0000076
   41  -0.0001253  -0.0003082  -0.0000049  -0.0000403   0.0000925   0.0000121
   42  -0.0000048   0.0000013  -0.0001353   0.0000058   0.0000208  -0.0003085
   43  -0.0005192  -0.0007875  -0.0000239  -0.0000760   0.0000492   0.0000024
   44   0.0002197   0.0006557   0.0000247  -0.0000128   0.0000082  -0.0000060
   45   0.0000066   0.0000201  -0.0002076  -0.0000083  -0.0000089   0.0001904
           13          14          15          16          17          18
    1   0.0111973   0.0112330   0.0003054  -0.0469950   0.0172128  -0.0040154
    2   0.0014123  -0.0028161  -0.0001086  -0.0221697   0.0162723  -0.0018821
    3   0.0000577  -0.0000856   0.0019374  -0.0012228  -0.0000844   0.0020222
    4  -0.2150100  -0.0851913  -0.0032513  -0.0021337   0.0021286  -0.0003816
    5  -0.0557614  -0.1590429  -0.0035050  -0.0010221   0.0008548  -0.0000433
    6  -0.0025420  -0.0036865  -0.0403438  -0.0000306   0.0000703   0.0000963
    7   0.0039749   0.0027488   0.0001048   0.0006786  -0.0014133   0.0001709
    8  -0.0223132  -0.0120444  -0.0004443  -0.0018783   0.0019989   0.0001475
    9  -0.0005903  -0.0003062  -0.0001393   0.0001143   0.0000528   0.0005728
   10  -0.0036616  -0.0012738  -0.0000670  -0.1661209  -0.0948759  -0.0068424
   11   0.0011124   0.0020444  -0.0000472  -0.0793784  -0.1689595   0.0162139
   12   0.0001459   0.0000367   0.0018192  -0.0072818   0.0161999  -0.0533981
   13   0.7594407  -0.1941753  -0.0018506   0.0001241  -0.0003940  -0.0000263
   14  -0.1941753   0.7826302   0.0169187   0.0004460  -0.0004947   0.0000454
   15  -0.0018506   0.0169187   0.1296389   0.0000428  -0.0000137   0.0000357
   16   0.0001241   0.0004460   0.0000428   0.5848010  -0.0038069   0.1191496
   17  -0.0003940  -0.0004947  -0.0000137  -0.0038069   0.5600354  -0.1709955
   18  -0.0000263   0.0000454   0.0000357   0.1191496  -0.1709955   0.1395456
   19  -0.4130577   0.2289812   0.0043523  -0.0001948   0.0002499  -0.0000198
   20   0.2339405  -0.2907863  -0.0053097  -0.0000998   0.0000893  -0.0000296
   21   0.0045027  -0.0053414  -0.0521852  -0.0000123   0.0000273   0.0000328
   22  -0.0800618   0.0091360  -0.0002172  -0.0030451   0.0004859  -0.0007086
   23   0.0193615   0.0340557   0.0011252   0.0052363  -0.0062234   0.0003629
   24   0.0000027   0.0010275  -0.0059954   0.0000100  -0.0004417  -0.0000987
   25   0.0005979   0.0002592   0.0003364   0.0046367  -0.0160067   0.0167898
   26  -0.0003346  -0.0001137  -0.0001322  -0.0023500  -0.0168051   0.0154511
   27  -0.0000177   0.0000523  -0.0000545   0.0012463  -0.0021006   0.0040299
   28   0.0006067   0.0002618  -0.0003108  -0.0013217  -0.0163071  -0.0154542
   29  -0.0003673  -0.0001384   0.0001408  -0.0086066  -0.0150053  -0.0143159
   30  -0.0000059  -0.0000521  -0.0000239  -0.0050250  -0.0012008   0.0050862
   31  -0.0540375   0.0146218   0.0003086  -0.0000302   0.0000333  -0.0000028
   32   0.0054371  -0.3490948  -0.0084093  -0.0000325   0.0000402  -0.0000042
   33   0.0000526  -0.0083399  -0.0416693   0.0000033  -0.0000114  -0.0000365
   34   0.0003665   0.0002198   0.0000184  -0.3100397   0.0720778  -0.0795133
   35   0.0001279   0.0001544   0.0000084   0.0763713  -0.0763987   0.0363943
   36  -0.0000288  -0.0000286  -0.0000154  -0.0773543   0.0340874  -0.0345683
   37  -0.0000759  -0.0000448  -0.0000189  -0.0603326   0.0405916  -0.0291357
   38   0.0000614   0.0000253   0.0000248   0.0372640  -0.2953746   0.1186408
   39   0.0000362   0.0000101   0.0000397  -0.0296440   0.1244294  -0.0632879
   40  -0.0162134  -0.0161775  -0.0005307  -0.0000419   0.0000364  -0.0000052
   41   0.0169389   0.0105921   0.0004336   0.0000252  -0.0000298   0.0000102
   42   0.0004042   0.0002417  -0.0014881  -0.0000019  -0.0000069  -0.0000118
   43   0.0058100   0.0289553   0.0007779   0.0000152  -0.0000124  -0.0000052
   44  -0.0050462  -0.0149709  -0.0006815   0.0000015   0.0000002   0.0000045
   45  -0.0001404  -0.0004922   0.0084441   0.0000064  -0.0000119  -0.0000202
           19          20          21          22          23          24
    1  -0.0061491  -0.0016245  -0.0000783  -0.2289161  -0.1042219  -0.0035750
    2   0.0008607   0.0012487   0.0000324  -0.0791860  -0.1890762  -0.0039054
    3   0.0000036   0.0000144   0.0002746  -0.0031492  -0.0040485  -0.0723207
    4  -0.0699303  -0.0215629  -0.0010310  -0.1905833   0.0787882   0.0014591
    5   0.0182723   0.0238761   0.0005074   0.0674146  -0.1854341  -0.0027491
    6   0.0000758   0.0002874   0.0083168   0.0011347  -0.0025004  -0.0659368
    7  -0.0007538   0.0030832   0.0000764  -0.1166684  -0.0117378  -0.0005430
    8   0.0061675   0.0029602   0.0001105  -0.0132156  -0.7249202  -0.0172753
    9   0.0001658   0.0000933   0.0001305  -0.0003884  -0.0172706  -0.0938168
   10   0.0014030  -0.0000995   0.0000029  -0.0667653  -0.0099890  -0.0002574
   11  -0.0009361  -0.0003184  -0.0000200  -0.0094995   0.0229653   0.0015336
   12  -0.0000666  -0.0000013   0.0000063   0.0003472   0.0005702  -0.0030898
   13  -0.4130577   0.2339405   0.0045027  -0.0800618   0.0193615   0.0000027
   14   0.2289812  -0.2907863  -0.0053414   0.0091360   0.0340557   0.0010275
   15   0.0043523  -0.0053097  -0.0521852  -0.0002172   0.0011252  -0.0059954
   16  -0.0001948  -0.0000998  -0.0000123  -0.0030451   0.0052363   0.0000100
   17   0.0002499   0.0000893   0.0000273   0.0004859  -0.0062234  -0.0004417
   18  -0.0000198  -0.0000296   0.0000328  -0.0007086   0.0003629  -0.0000987
   19   0.8250694  -0.1036731   0.0007750   0.0107315  -0.0150531  -0.0002993
   20  -0.1036731   0.7410572   0.0172557  -0.0029832  -0.0081888  -0.0002179
   21   0.0007750   0.0172557   0.0985183  -0.0000245  -0.0002968   0.0003312
   22   0.0107315  -0.0029832  -0.0000245   0.6607454   0.0313733   0.0029474
   23  -0.0150531  -0.0081888  -0.0002968   0.0313733   1.0628704   0.0226343
   24  -0.0002993  -0.0002179   0.0003312   0.0029474   0.0226343   0.2363184
   25  -0.0002457  -0.0000294  -0.0000146   0.0049068   0.0086683  -0.0025113
   26   0.0001224   0.0000027  -0.0000037  -0.0033645  -0.0017680  -0.0000480
   27  -0.0000082  -0.0000371   0.0000132   0.0010610   0.0038023   0.0010222
   28  -0.0002507  -0.0000282   0.0000125   0.0050819   0.0086623   0.0030734
   29   0.0001378   0.0000046   0.0000096  -0.0036631  -0.0019411  -0.0003782
   30   0.0000184   0.0000350   0.0000131  -0.0014538  -0.0042708   0.0007165
   31   0.0055072   0.0247136   0.0006759   0.0032875  -0.0104578  -0.0002702
   32  -0.0022520  -0.0066288  -0.0004066   0.0032162  -0.0040165  -0.0001076
   33  -0.0000670  -0.0002618   0.0075442   0.0000947  -0.0001960   0.0007508
   34  -0.0001446  -0.0000149   0.0000047   0.0011592   0.0014691  -0.0000086
   35  -0.0000805  -0.0000316  -0.0000112  -0.0000753   0.0014373   0.0000701
   36   0.0000268   0.0000100  -0.0000208   0.0001464   0.0000013   0.0004469
   37   0.0000303   0.0000048  -0.0000011  -0.0002458  -0.0014760  -0.0000113
   38  -0.0000269   0.0000034  -0.0000145   0.0001569  -0.0004349  -0.0001098
   39  -0.0000128   0.0000080  -0.0000293   0.0002073   0.0001272  -0.0000899
   40  -0.2932378  -0.1139381  -0.0043418   0.0008106  -0.0020543  -0.0000582
   41  -0.1215785  -0.1170222  -0.0031314  -0.0000175   0.0014467  -0.0000445
   42  -0.0045655  -0.0030795  -0.0291788  -0.0000068  -0.0000527   0.0028613
   43  -0.0587769  -0.0176886  -0.0005466  -0.0004370   0.0014308   0.0000417
   44  -0.0111916  -0.3462664  -0.0087174   0.0002218  -0.0007722   0.0000121
   45  -0.0003786  -0.0087670  -0.0337669   0.0000096   0.0000123  -0.0010991
           25          26          27          28          29          30
    1  -0.0191765   0.0116581  -0.0040900  -0.0205678   0.0138496   0.0043576
    2   0.0222345  -0.0123525  -0.0030723   0.0242484  -0.0137822   0.0007802
    3  -0.0260648   0.0114186   0.0071265   0.0269923  -0.0137751   0.0049377
    4  -0.0018803   0.0009272  -0.0000208  -0.0019103   0.0010786   0.0000927
    5  -0.0004324   0.0000748  -0.0006286  -0.0003605   0.0000569   0.0006899
    6   0.0007275  -0.0000154  -0.0004314  -0.0007617   0.0000786  -0.0003556
    7  -0.0000756   0.0001914   0.0010658  -0.0002021   0.0000261  -0.0011240
    8  -0.0031389   0.0011624  -0.0019069  -0.0031301   0.0012318   0.0020294
    9   0.0003690  -0.0000841   0.0001684  -0.0005881   0.0002547   0.0002112
   10  -0.0512361   0.0067926  -0.0090809  -0.0439538   0.0047521   0.0050584
   11   0.0003810  -0.1327352   0.1242653  -0.0069734  -0.1239233  -0.1110330
   12   0.0012994   0.1235181  -0.2218538  -0.0122759  -0.1166276  -0.2154705
   13   0.0005979  -0.0003346  -0.0000177   0.0006067  -0.0003673  -0.0000059
   14   0.0002592  -0.0001137   0.0000523   0.0002618  -0.0001384  -0.0000521
   15   0.0003364  -0.0001322  -0.0000545  -0.0003108   0.0001408  -0.0000239
   16   0.0046367  -0.0023500   0.0012463  -0.0013217  -0.0086066  -0.0050250
   17  -0.0160067  -0.0168051  -0.0021006  -0.0163071  -0.0150053  -0.0012008
   18   0.0167898   0.0154511   0.0040299  -0.0154542  -0.0143159   0.0050862
   19  -0.0002457   0.0001224  -0.0000082  -0.0002507   0.0001378   0.0000184
   20  -0.0000294   0.0000027  -0.0000371  -0.0000282   0.0000046   0.0000350
   21  -0.0000146  -0.0000037   0.0000132   0.0000125   0.0000096   0.0000131
   22   0.0049068  -0.0033645   0.0010610   0.0050819  -0.0036631  -0.0014538
   23   0.0086683  -0.0017680   0.0038023   0.0086623  -0.0019411  -0.0042708
   24  -0.0025113  -0.0000480   0.0010222   0.0030734  -0.0003782   0.0007165
   25   0.0622024  -0.0095185   0.0098272   0.0029867  -0.0008557  -0.0006713
   26  -0.0095185   0.1517137  -0.1350424  -0.0012722   0.0112807  -0.0150344
   27   0.0098272  -0.1350424   0.2331141  -0.0005327   0.0154069  -0.0231754
   28   0.0029867  -0.0012722  -0.0005327   0.0607706  -0.0053167  -0.0010641
   29  -0.0008557   0.0112807   0.0154069  -0.0053167   0.1430727   0.1289115
   30  -0.0006713  -0.0150344  -0.0231754  -0.0010641   0.1289115   0.2290906
   31  -0.0001010   0.0000019  -0.0000299  -0.0001043   0.0000039   0.0000346
   32  -0.0000370   0.0000327  -0.0000133  -0.0000377   0.0000369   0.0000155
   33  -0.0000269   0.0000152  -0.0000073   0.0000216  -0.0000147  -0.0000086
   34   0.0003153  -0.0000621   0.0005247  -0.0004126  -0.0005153  -0.0002220
   35   0.0006156   0.0005731   0.0006841   0.0005235  -0.0007063  -0.0006254
   36  -0.0001860  -0.0010087   0.0004885   0.0008370  -0.0002138   0.0000255
   37  -0.0029223  -0.0028040   0.0000483  -0.0007124  -0.0005379   0.0000120
   38  -0.0021503  -0.0010545  -0.0014073  -0.0002804  -0.0001756  -0.0002473
   39   0.0001452   0.0009483  -0.0004370   0.0000309   0.0005457  -0.0010433
   40  -0.0000288   0.0000192  -0.0000029  -0.0000309   0.0000218   0.0000035
   41   0.0000174  -0.0000076   0.0000025   0.0000146  -0.0000086  -0.0000039
   42  -0.0000597   0.0000075   0.0000166   0.0000591  -0.0000120   0.0000120
   43   0.0000205  -0.0000068   0.0000099   0.0000208  -0.0000073  -0.0000111
   44  -0.0000071  -0.0000034  -0.0000051  -0.0000042  -0.0000029   0.0000061
   45   0.0000402   0.0000100  -0.0000199  -0.0000391  -0.0000105  -0.0000156
           31          32          33          34          35          36
    1   0.0000001  -0.0009840  -0.0000232  -0.0041303  -0.0041545   0.0025862
    2   0.0016422   0.0002391   0.0000129  -0.0036082  -0.0033348  -0.0004657
    3   0.0000543   0.0000001   0.0001506  -0.0002602  -0.0002793   0.0007521
    4  -0.0139428  -0.0083511  -0.0003074  -0.0010754  -0.0007914   0.0003437
    5  -0.0341048  -0.0118635  -0.0006179  -0.0001311  -0.0001894  -0.0000394
    6  -0.0010549  -0.0005000   0.0046206  -0.0000069  -0.0000224  -0.0000264
    7  -0.0011884   0.0038825   0.0000666  -0.0002574   0.0000372   0.0000486
    8   0.0043399   0.0016454   0.0000865  -0.0006339  -0.0002200  -0.0000558
    9   0.0001080   0.0001069  -0.0010471   0.0000111   0.0000154  -0.0001193
   10  -0.0000902   0.0002884   0.0000061  -0.0099109  -0.0169894  -0.0001107
   11   0.0000956  -0.0001280   0.0000039   0.0110917   0.0103377   0.0019555
   12   0.0000002  -0.0000042   0.0000120  -0.0043455  -0.0051425   0.0014135
   13  -0.0540375   0.0054371   0.0000526   0.0003665   0.0001279  -0.0000288
   14   0.0146218  -0.3490948  -0.0083399   0.0002198   0.0001544  -0.0000286
   15   0.0003086  -0.0084093  -0.0416693   0.0000184   0.0000084  -0.0000154
   16  -0.0000302  -0.0000325   0.0000033  -0.3100397   0.0763713  -0.0773543
   17   0.0000333   0.0000402  -0.0000114   0.0720778  -0.0763987   0.0340874
   18  -0.0000028  -0.0000042  -0.0000365  -0.0795133   0.0363943  -0.0345683
   19   0.0055072  -0.0022520  -0.0000670  -0.0001446  -0.0000805   0.0000268
   20   0.0247136  -0.0066288  -0.0002618  -0.0000149  -0.0000316   0.0000100
   21   0.0006759  -0.0004066   0.0075442   0.0000047  -0.0000112  -0.0000208
   22   0.0032875   0.0032162   0.0000947   0.0011592  -0.0000753   0.0001464
   23  -0.0104578  -0.0040165  -0.0001960   0.0014691   0.0014373   0.0000013
   24  -0.0002702  -0.0001076   0.0007508  -0.0000086   0.0000701   0.0004469
   25  -0.0001010  -0.0000370  -0.0000269   0.0003153   0.0006156  -0.0001860
   26   0.0000019   0.0000327   0.0000152  -0.0000621   0.0005731  -0.0010087
   27  -0.0000299  -0.0000133  -0.0000073   0.0005247   0.0006841   0.0004885
   28  -0.0001043  -0.0000377   0.0000216  -0.0004126   0.0005235   0.0008370
   29   0.0000039   0.0000369  -0.0000147  -0.0005153  -0.0007063  -0.0002138
   30   0.0000346   0.0000155  -0.0000086  -0.0002220  -0.0006254   0.0000255
   31   0.0637494  -0.0028638   0.0001736  -0.0000051  -0.0000050   0.0000008
   32  -0.0028638   0.3688626   0.0094021  -0.0000211  -0.0000102   0.0000039
   33   0.0001736   0.0094021   0.0255733  -0.0000039   0.0000026   0.0000085
   34  -0.0000051  -0.0000211  -0.0000039   0.3225039  -0.0779182   0.0829584
   35  -0.0000050  -0.0000102   0.0000026  -0.0779182   0.0688179  -0.0355253
   36   0.0000008   0.0000039   0.0000085   0.0829584  -0.0355253   0.0308877
   37   0.0000254   0.0000147   0.0000005   0.0016454   0.0223522  -0.0092753
   38   0.0000079  -0.0000005   0.0000075  -0.0019666  -0.0004434   0.0012862
   39  -0.0000054  -0.0000046   0.0000092   0.0008483   0.0044223   0.0007138
   40   0.0003681   0.0005485   0.0000543  -0.0000212  -0.0000134   0.0000060
   41  -0.0002321   0.0004545   0.0001823   0.0000112   0.0000115  -0.0000048
   42   0.0000254   0.0001932  -0.0064914  -0.0000021   0.0000017   0.0000089
   43  -0.0034382   0.0011917  -0.0000449   0.0000069   0.0000001   0.0000012
   44   0.0022034   0.0004309  -0.0002713   0.0000017   0.0000025  -0.0000022
   45  -0.0000182  -0.0002719   0.0105910  -0.0000030   0.0000073   0.0000049
           37          38          39          40          41          42
    1   0.0033600   0.0007420  -0.0005379  -0.0008897   0.0006399   0.0000214
    2   0.0007757   0.0017553   0.0004274   0.0002691  -0.0001812   0.0000121
    3   0.0002336  -0.0007075  -0.0002905   0.0000093   0.0000110  -0.0005634
    4   0.0000770  -0.0002517  -0.0000603  -0.0034141   0.0047298   0.0000462
    5   0.0002787   0.0001096  -0.0000447   0.0044591  -0.0020324  -0.0003300
    6  -0.0000154   0.0000220  -0.0000391   0.0000421  -0.0003240   0.0107880
    7  -0.0004995  -0.0001683  -0.0000995  -0.0000988  -0.0001253  -0.0000048
    8   0.0008240   0.0005196  -0.0002971   0.0007688  -0.0003082   0.0000013
    9  -0.0000493  -0.0000447  -0.0000349   0.0000208  -0.0000049  -0.0001353
   10   0.0058212   0.0069290   0.0002886   0.0002091  -0.0000403   0.0000058
   11  -0.0196741  -0.0121542  -0.0030296  -0.0001829   0.0000925   0.0000208
   12   0.0094067   0.0100809   0.0047983  -0.0000076   0.0000121  -0.0003085
   13  -0.0000759   0.0000614   0.0000362  -0.0162134   0.0169389   0.0004042
   14  -0.0000448   0.0000253   0.0000101  -0.0161775   0.0105921   0.0002417
   15  -0.0000189   0.0000248   0.0000397  -0.0005307   0.0004336  -0.0014881
   16  -0.0603326   0.0372640  -0.0296440  -0.0000419   0.0000252  -0.0000019
   17   0.0405916  -0.2953746   0.1244294   0.0000364  -0.0000298  -0.0000069
   18  -0.0291357   0.1186408  -0.0632879  -0.0000052   0.0000102  -0.0000118
   19   0.0000303  -0.0000269  -0.0000128  -0.2932378  -0.1215785  -0.0045655
   20   0.0000048   0.0000034   0.0000080  -0.1139381  -0.1170222  -0.0030795
   21  -0.0000011  -0.0000145  -0.0000293  -0.0043418  -0.0031314  -0.0291788
   22  -0.0002458   0.0001569   0.0002073   0.0008106  -0.0000175  -0.0000068
   23  -0.0014760  -0.0004349   0.0001272  -0.0020543   0.0014467  -0.0000527
   24  -0.0000113  -0.0001098  -0.0000899  -0.0000582  -0.0000445   0.0028613
   25  -0.0029223  -0.0021503   0.0001452  -0.0000288   0.0000174  -0.0000597
   26  -0.0028040  -0.0010545   0.0009483   0.0000192  -0.0000076   0.0000075
   27   0.0000483  -0.0014073  -0.0004370  -0.0000029   0.0000025   0.0000166
   28  -0.0007124  -0.0002804   0.0000309  -0.0000309   0.0000146   0.0000591
   29  -0.0005379  -0.0001756   0.0005457   0.0000218  -0.0000086  -0.0000120
   30   0.0000120  -0.0002473  -0.0010433   0.0000035  -0.0000039   0.0000120
   31   0.0000254   0.0000079  -0.0000054   0.0003681  -0.0002321   0.0000254
   32   0.0000147  -0.0000005  -0.0000046   0.0005485   0.0004545   0.0001932
   33   0.0000005   0.0000075   0.0000092   0.0000543   0.0001823  -0.0064914
   34   0.0016454  -0.0019666   0.0008483  -0.0000212   0.0000112  -0.0000021
   35   0.0223522  -0.0004434   0.0044223  -0.0000134   0.0000115   0.0000017
   36  -0.0092753   0.0012862   0.0007138   0.0000060  -0.0000048   0.0000089
   37   0.0538365  -0.0403115   0.0288013   0.0000051   0.0000023   0.0000019
   38  -0.0403115   0.3072191  -0.1275382  -0.0000033   0.0000024  -0.0000007
   39   0.0288013  -0.1275382   0.0596758  -0.0000030  -0.0000023   0.0000022
   40   0.0000051  -0.0000033  -0.0000030   0.3087082   0.1240019   0.0047405
   41   0.0000023   0.0000024  -0.0000023   0.1240019   0.1125346   0.0031850
   42   0.0000019  -0.0000007   0.0000022   0.0047405   0.0031850   0.0231710
   43  -0.0000124  -0.0000022   0.0000052   0.0038756  -0.0243874  -0.0006636
   44   0.0000044   0.0000032  -0.0000018   0.0022447  -0.0055442  -0.0001816
   45   0.0000028   0.0000077   0.0000128   0.0000729  -0.0003210   0.0013173
           43          44          45
    1   0.0001436   0.0000948  -0.0000007
    2  -0.0003016   0.0001222  -0.0000077
    3  -0.0000118  -0.0000051   0.0003349
    4   0.0028084  -0.0011554   0.0000234
    5  -0.0008584   0.0014693   0.0002600
    6   0.0000424   0.0002509  -0.0079835
    7  -0.0005192   0.0002197   0.0000066
    8  -0.0007875   0.0006557   0.0000201
    9  -0.0000239   0.0000247  -0.0002076
   10  -0.0000760  -0.0000128  -0.0000083
   11   0.0000492   0.0000082  -0.0000089
   12   0.0000024  -0.0000060   0.0001904
   13   0.0058100  -0.0050462  -0.0001404
   14   0.0289553  -0.0149709  -0.0004922
   15   0.0007779  -0.0006815   0.0084441
   16   0.0000152   0.0000015   0.0000064
   17  -0.0000124   0.0000002  -0.0000119
   18  -0.0000052   0.0000045  -0.0000202
   19  -0.0587769  -0.0111916  -0.0003786
   20  -0.0176886  -0.3462664  -0.0087670
   21  -0.0005466  -0.0087174  -0.0337669
   22  -0.0004370   0.0002218   0.0000096
   23   0.0014308  -0.0007722   0.0000123
   24   0.0000417   0.0000121  -0.0010991
   25   0.0000205  -0.0000071   0.0000402
   26  -0.0000068  -0.0000034   0.0000100
   27   0.0000099  -0.0000051  -0.0000199
   28   0.0000208  -0.0000042  -0.0000391
   29  -0.0000073  -0.0000029  -0.0000105
   30  -0.0000111   0.0000061  -0.0000156
   31  -0.0034382   0.0022034  -0.0000182
   32   0.0011917   0.0004309  -0.0002719
   33  -0.0000449  -0.0002713   0.0105910
   34   0.0000069   0.0000017  -0.0000030
   35   0.0000001   0.0000025   0.0000073
   36   0.0000012  -0.0000022   0.0000049
   37  -0.0000124   0.0000044   0.0000028
   38  -0.0000022   0.0000032   0.0000077
   39   0.0000052  -0.0000018   0.0000128
   40   0.0038756   0.0022447   0.0000729
   41  -0.0243874  -0.0055442  -0.0003210
   42  -0.0006636  -0.0001816   0.0013173
   43   0.0505587   0.0124253   0.0004266
   44   0.0124253   0.3648677   0.0095736
   45   0.0004266   0.0095736   0.0222173
 Gradient time:  CPU 3167.32 s  wall 848.97 s
 **********************************************************************
 **                                                                  **
 **                       VIBRATIONAL ANALYSIS                       **
 **                       --------------------                       **
 **                                                                  **
 **        VIBRATIONAL FREQUENCIES (CM**-1) AND NORMAL MODES         **
 **     FORCE CONSTANTS (mDYN/ANGSTROM) AND REDUCED MASSES (AMU)     **
 **                  INFRARED INTENSITIES (KM/MOL)                   **
 **                                                                  **
 **********************************************************************
 

 Mode:                 1                      2                      3
 Frequency:        54.20                  68.18                 104.27
 Force Cnst:      0.0054                 0.0071                 0.0125
 Red. Mass:       3.1065                 2.5816                 1.9450
 IR Active:          YES                    YES                    YES
 IR Intens:        0.047                  0.509                  5.126
 Raman Active:       YES                    YES                    YES
               X      Y      Z        X      Y      Z        X      Y      Z
 O          0.000  0.003 -0.191   -0.001  0.012 -0.072   -0.001  0.027 -0.053
 O         -0.000  0.002 -0.109   -0.003  0.008 -0.162   -0.009  0.015 -0.028
 O         -0.002 -0.005  0.123    0.003  0.008  0.016    0.006  0.027 -0.125
 C         -0.002  0.000 -0.163   -0.003 -0.000  0.151   -0.008 -0.002  0.094
 C         -0.001 -0.002  0.073    0.000 -0.001 -0.124   -0.000 -0.015  0.187
 C          0.005 -0.000  0.255    0.009 -0.017  0.020    0.026 -0.041  0.036
 C         -0.001 -0.001  0.072   -0.006 -0.018  0.237   -0.016 -0.035 -0.020
 C         -0.001 -0.000 -0.045   -0.000  0.010 -0.066   -0.000  0.027 -0.078
 H         -0.132 -0.216 -0.319   -0.073  0.182  0.293   -0.077  0.106  0.177
 H          0.127  0.218 -0.322    0.052 -0.183  0.287    0.022 -0.106  0.171
 H         -0.003 -0.006  0.211    0.009  0.007 -0.409    0.021 -0.024  0.537
 H         -0.026 -0.091  0.272   -0.021  0.030  0.183   -0.049  0.006  0.363
 H          0.053  0.136  0.549    0.073 -0.122 -0.248    0.183 -0.193 -0.374
 H         -0.002 -0.005  0.210   -0.003 -0.024  0.230   -0.005 -0.066  0.187
 H         -0.000  0.003 -0.070   -0.015 -0.026  0.536   -0.043 -0.024 -0.395
 TransDip   0.003  0.006 -0.003    0.002 -0.007  0.022    0.012 -0.016  0.070

 Mode:                 4                      5                      6
 Frequency:       126.61                 153.47                 181.10
 Force Cnst:      0.0183                 0.0234                 0.0874
 Red. Mass:       1.9377                 1.6840                 4.5237
 IR Active:          YES                    YES                    YES
 IR Intens:        4.217                  2.948                  0.604
 Raman Active:       YES                    YES                    YES
               X      Y      Z        X      Y      Z        X      Y      Z
 O          0.005  0.069  0.011   -0.017 -0.054 -0.019   -0.002 -0.011  0.344
 O         -0.023  0.047  0.074    0.011 -0.060  0.045    0.001  0.008 -0.321
 O          0.011  0.073  0.048   -0.003 -0.075  0.006   -0.001 -0.001  0.013
 C         -0.025 -0.012 -0.093    0.029  0.025 -0.042    0.005 -0.001 -0.100
 C          0.009 -0.026 -0.069   -0.020  0.021 -0.015   -0.001 -0.000  0.033
 C          0.069 -0.116  0.009   -0.049  0.114  0.027   -0.003  0.007 -0.040
 C         -0.048 -0.112 -0.020    0.043  0.114 -0.002   -0.001 -0.000  0.064
 C         -0.001  0.075  0.046   -0.001 -0.075  0.009   -0.000 -0.001  0.022
 H         -0.055 -0.127 -0.186    0.071 -0.017 -0.084    0.196 -0.271 -0.324
 H         -0.103  0.112 -0.186    0.075  0.095 -0.094   -0.184  0.286 -0.316
 H          0.085 -0.020 -0.225   -0.100  0.020 -0.074   -0.004 -0.007  0.281
 H         -0.061 -0.135  0.467   -0.141  0.327  0.594   -0.036  0.057  0.135
 H          0.359 -0.266 -0.451    0.076 -0.117 -0.557    0.062 -0.065 -0.235
 H         -0.008 -0.189 -0.146   -0.002  0.208 -0.054   -0.002 -0.009  0.348
 H         -0.141 -0.112  0.147    0.147  0.108  0.061    0.000  0.007 -0.206
 TransDip   0.026 -0.028 -0.054    0.040  0.030 -0.022    0.016  0.003 -0.019

 Mode:                 7                      8                      9
 Frequency:       278.69                 381.07                 436.43
 Force Cnst:      0.1776                 0.3057                 0.3138
 Red. Mass:       3.8809                 3.5730                 2.7966
 IR Active:          YES                    YES                    YES
 IR Intens:       14.178                  7.646                 16.966
 Raman Active:       YES                    YES                    YES
               X      Y      Z        X      Y      Z        X      Y      Z
 O         -0.084  0.150  0.012    0.021 -0.052  0.003    0.064 -0.027  0.003
 O         -0.080 -0.174 -0.009   -0.064 -0.038 -0.002   -0.022 -0.003 -0.000
 O          0.247 -0.019  0.001   -0.122 -0.061 -0.001    0.200 -0.005 -0.000
 C         -0.111  0.099  0.005    0.175  0.139  0.011    0.061 -0.102 -0.007
 C         -0.119 -0.083 -0.003   -0.131  0.037 -0.000   -0.117  0.131  0.002
 C          0.071 -0.113 -0.002    0.303  0.062  0.016   -0.012 -0.028 -0.074
 C          0.040  0.155  0.003   -0.161  0.017 -0.001   -0.215  0.031  0.001
 C          0.011 -0.014  0.002   -0.030 -0.063 -0.000    0.044 -0.004  0.001
 H         -0.173  0.077 -0.007    0.223  0.135  0.005    0.074 -0.040  0.040
 H         -0.174  0.086  0.012    0.246  0.138  0.012    0.002 -0.157  0.038
 H         -0.258 -0.089 -0.001   -0.179  0.035  0.000   -0.167  0.125  0.001
 H          0.030 -0.419 -0.180    0.287 -0.254 -0.247   -0.059  0.321  0.459
 H          0.302 -0.049  0.055    0.547  0.074 -0.054   -0.269  0.106  0.343
 H         -0.091  0.425  0.011   -0.133 -0.047 -0.002   -0.121 -0.170 -0.003
 H          0.350  0.141  0.002   -0.243  0.020 -0.002   -0.460  0.042 -0.001
 TransDip  -0.120  0.003 -0.014    0.081 -0.007 -0.036   -0.074  0.030  0.105

 Mode:                10                     11                     12
 Frequency:       459.94                 524.46                 728.99
 Force Cnst:      0.1909                 0.5367                 0.4781
 Red. Mass:       1.5314                 3.3115                 1.5271
 IR Active:          YES                    YES                    YES
 IR Intens:       49.863                  5.654                  7.351
 Raman Active:       YES                    YES                    YES
               X      Y      Z        X      Y      Z        X      Y      Z
 O         -0.004  0.020  0.012   -0.138  0.017  0.010    0.000  0.001 -0.007
 O         -0.028 -0.018 -0.002    0.131  0.030  0.000   -0.001 -0.003  0.074
 O         -0.083  0.022 -0.001    0.016 -0.150 -0.005   -0.001  0.001 -0.003
 C          0.018  0.021 -0.006   -0.152  0.163 -0.002    0.000 -0.000 -0.001
 C         -0.002 -0.082 -0.002    0.139  0.180  0.005    0.001  0.005 -0.195
 C          0.083 -0.035 -0.122    0.020 -0.039 -0.064   -0.000  0.000  0.001
 C          0.063 -0.000  0.001    0.002 -0.024 -0.001    0.001 -0.000  0.033
 C         -0.020  0.021  0.004   -0.002 -0.140  0.000    0.000 -0.000  0.024
 H          0.052  0.122  0.071   -0.110  0.211  0.037   -0.001  0.001 -0.000
 H         -0.066 -0.094  0.081   -0.172  0.067  0.065    0.001 -0.001 -0.000
 H          0.007 -0.080 -0.001    0.121  0.178  0.006   -0.004 -0.008  0.288
 H         -0.068  0.190  0.656   -0.141 -0.253  0.289    0.000  0.001  0.000
 H         -0.021  0.236  0.555    0.285  0.145  0.265   -0.000 -0.001 -0.001
 H         -0.004  0.140  0.005    0.171 -0.374 -0.004   -0.002 -0.024  0.813
 H          0.228 -0.007 -0.000   -0.401 -0.007 -0.006    0.001  0.013 -0.459
 TransDip  -0.009  0.079  0.212    0.017  0.040  0.062   -0.000 -0.003  0.087

 Mode:                13                     14                     15
 Frequency:       767.21                 805.36                 868.45
 Force Cnst:      1.6809                 3.9997                 0.7853
 Red. Mass:       4.8468                10.4663                 1.7673
 IR Active:          YES                    YES                    YES
 IR Intens:        0.050                 21.074                 13.237
 Raman Active:       YES                    YES                    YES
               X      Y      Z        X      Y      Z        X      Y      Z
 O         -0.122 -0.269 -0.002    0.029  0.012 -0.176   -0.101  0.062 -0.036
 O         -0.118  0.280  0.002    0.013 -0.023 -0.186   -0.036  0.045 -0.007
 O          0.216 -0.002 -0.005   -0.017  0.019 -0.247    0.024 -0.054 -0.014
 C          0.006  0.010 -0.022   -0.004 -0.005 -0.067    0.037 -0.033  0.091
 C          0.008 -0.046 -0.003   -0.007 -0.001  0.002    0.032  0.020  0.001
 C          0.038  0.059 -0.011   -0.032  0.013  0.029    0.129 -0.038 -0.016
 C          0.041 -0.049 -0.000   -0.008  0.005  0.020    0.030 -0.010  0.002
 C         -0.169  0.006  0.021    0.019 -0.014  0.823   -0.065 -0.036  0.038
 H          0.185  0.121  0.054   -0.024  0.234  0.118   -0.202 -0.373 -0.164
 H          0.133 -0.111  0.072    0.036 -0.244  0.110    0.021  0.328 -0.173
 H          0.317 -0.041  0.005   -0.038 -0.001  0.002    0.079  0.021  0.003
 H         -0.064 -0.249  0.053   -0.061 -0.107  0.011    0.306  0.516 -0.078
 H          0.373  0.146  0.063    0.099  0.019 -0.008   -0.439 -0.148 -0.060
 H         -0.117  0.290  0.012    0.003 -0.014 -0.105    0.037 -0.019 -0.011
 H          0.457 -0.064 -0.007   -0.038  0.009 -0.068    0.037 -0.010 -0.007
 TransDip   0.000  0.001  0.007   -0.005 -0.004  0.147    0.106 -0.036  0.034

 Mode:                16                     17                     18
 Frequency:       910.63                 935.97                 974.93
 Force Cnst:      0.6578                 1.2934                 1.2402
 Red. Mass:       1.3464                 2.5059                 2.2146
 IR Active:          YES                    YES                    YES
 IR Intens:       76.518                 21.677                 31.043
 Raman Active:       YES                    YES                    YES
               X      Y      Z        X      Y      Z        X      Y      Z
 O         -0.002  0.000 -0.002    0.092  0.056 -0.011    0.055 -0.136 -0.047
 O         -0.001 -0.001 -0.007    0.103  0.130  0.003    0.011 -0.051 -0.004
 O          0.000  0.001 -0.004   -0.030 -0.106 -0.006    0.006  0.090 -0.005
 C          0.001 -0.001 -0.001   -0.042  0.076  0.044   -0.063  0.106  0.175
 C          0.001 -0.001  0.054   -0.084 -0.046 -0.002   -0.010 -0.015  0.000
 C          0.001  0.000  0.001   -0.047 -0.045 -0.022   -0.046 -0.028 -0.098
 C          0.003  0.005 -0.166   -0.151 -0.063 -0.005    0.013  0.023  0.000
 C         -0.002  0.000  0.012    0.105 -0.069  0.006    0.014  0.048  0.021
 H         -0.001  0.002  0.001   -0.083 -0.081 -0.071   -0.041 -0.448 -0.248
 H          0.000 -0.004  0.001   -0.003  0.211 -0.064    0.249  0.628 -0.223
 H         -0.001 -0.000  0.021    0.189 -0.043  0.010   -0.105 -0.017  0.004
 H          0.003  0.004 -0.000   -0.062 -0.030  0.029   -0.155 -0.194  0.101
 H         -0.002 -0.000  0.000   -0.097 -0.043  0.008    0.068  0.059  0.073
 H          0.003 -0.025  0.648   -0.450  0.549  0.026    0.074 -0.105 -0.004
 H         -0.007 -0.020  0.740    0.499 -0.083  0.016   -0.138  0.027  0.006
 TransDip   0.002 -0.008  0.280   -0.141 -0.045  0.020   -0.147  0.082  0.058

 Mode:                19                     20                     21
 Frequency:      1002.58                1083.88                1134.32
 Force Cnst:      0.6604                 2.1453                 1.9329
 Red. Mass:       1.1151                 3.0994                 2.5497
 IR Active:          YES                    YES                    YES
 IR Intens:       25.122                 73.379                 34.495
 Raman Active:       YES                    YES                    YES
               X      Y      Z        X      Y      Z        X      Y      Z
 O         -0.001  0.000  0.001    0.005  0.151 -0.012    0.119 -0.061  0.019
 O         -0.000 -0.001  0.002   -0.134  0.065  0.001   -0.065  0.095  0.002
 O         -0.000  0.000 -0.001   -0.001 -0.106 -0.004    0.008 -0.045  0.000
 C          0.000 -0.001 -0.001    0.244  0.010  0.053   -0.053  0.205 -0.079
 C          0.001  0.003 -0.096    0.021  0.008  0.001   -0.060 -0.094 -0.004
 C          0.000  0.000  0.000   -0.183 -0.083 -0.039    0.003 -0.133  0.052
 C          0.000 -0.001  0.021    0.070  0.014  0.001    0.078  0.061  0.002
 C         -0.000  0.000 -0.001   -0.029 -0.050  0.001    0.007 -0.023 -0.002
 H          0.002  0.001  0.001    0.473 -0.074 -0.028   -0.067  0.366  0.046
 H         -0.002 -0.003  0.001    0.345  0.189 -0.083    0.023 -0.040  0.092
 H         -0.006 -0.022  0.833    0.008  0.008  0.001   -0.210 -0.098 -0.002
 H          0.000  0.000 -0.000   -0.348 -0.493  0.085    0.125  0.252 -0.026
 H          0.001  0.000  0.000    0.044 -0.014  0.078   -0.518 -0.277 -0.074
 H          0.003  0.008 -0.347    0.161 -0.167 -0.006    0.245 -0.286 -0.008
 H         -0.004 -0.012  0.418   -0.076  0.016  0.001   -0.300  0.071  0.001
 TransDip   0.001 -0.004  0.160    0.249 -0.115  0.009   -0.187 -0.021 -0.010

 Mode:                22                     23                     24
 Frequency:      1154.71                1221.13                1271.92
 Force Cnst:      2.2956                 4.3034                 1.0318
 Red. Mass:       2.9221                 4.8982                 1.0825
 IR Active:          YES                    YES                    YES
 IR Intens:       42.251                 81.239                  6.676
 Raman Active:       YES                    YES                    YES
               X      Y      Z        X      Y      Z        X      Y      Z
 O          0.130  0.070 -0.008   -0.220  0.013 -0.010   -0.010  0.014  0.046
 O         -0.062  0.119  0.003    0.316  0.109  0.005    0.014  0.002 -0.001
 O         -0.003 -0.115 -0.004    0.007  0.042  0.001    0.001 -0.002  0.001
 C         -0.140 -0.152  0.056    0.122 -0.045  0.010    0.006 -0.021 -0.040
 C         -0.066 -0.100 -0.003   -0.177 -0.265 -0.008   -0.005 -0.007 -0.001
 C          0.048  0.163 -0.037   -0.020 -0.018  0.001   -0.004  0.007 -0.030
 C          0.076  0.061  0.002   -0.000  0.107  0.003   -0.001  0.003  0.000
 C          0.022 -0.038  0.000   -0.011  0.037  0.001   -0.010  0.000  0.002
 H         -0.288 -0.308 -0.044    0.289 -0.032  0.003   -0.629  0.078  0.067
 H         -0.256 -0.014 -0.047    0.023  0.002 -0.018    0.761 -0.054 -0.007
 H         -0.200 -0.105 -0.003   -0.432 -0.281 -0.010   -0.003 -0.007  0.002
 H         -0.008 -0.042 -0.000   -0.034 -0.072  0.000   -0.039 -0.057  0.028
 H          0.495  0.282  0.034    0.001 -0.013  0.017    0.013  0.022  0.001
 H          0.237 -0.274 -0.009    0.095 -0.132 -0.004   -0.001  0.001  0.001
 H         -0.288  0.069  0.001   -0.551  0.127  0.002   -0.015  0.003 -0.001
 TransDip  -0.195 -0.072  0.002   -0.283  0.055  0.002   -0.069 -0.018 -0.042

 Mode:                25                     26                     27
 Frequency:      1328.68                1339.45                1424.34
 Force Cnst:      1.5695                 2.7148                 1.6141
 Red. Mass:       1.5090                 2.5682                 1.3503
 IR Active:          YES                    YES                    YES
 IR Intens:      381.372                975.761                 92.583
 Raman Active:       YES                    YES                    YES
               X      Y      Z        X      Y      Z        X      Y      Z
 O          0.063  0.028 -0.001   -0.108 -0.058  0.001   -0.032  0.015 -0.001
 O          0.037 -0.045 -0.001   -0.110  0.014 -0.000   -0.037  0.014  0.000
 O          0.012 -0.016 -0.000   -0.030  0.009  0.000   -0.009  0.009  0.000
 C         -0.036  0.001  0.000    0.074  0.007 -0.000   -0.111 -0.044 -0.002
 C         -0.008 -0.056 -0.002    0.033 -0.066 -0.002    0.035 -0.010 -0.000
 C          0.002 -0.004  0.003   -0.004  0.010 -0.005   -0.015 -0.050  0.008
 C         -0.026  0.077  0.002   -0.018  0.084  0.002    0.006 -0.003 -0.000
 C         -0.151  0.011 -0.001    0.291  0.005  0.002    0.091 -0.018 -0.000
 H          0.170  0.001 -0.008   -0.378 -0.003  0.012    0.533  0.148  0.093
 H          0.107 -0.004  0.003   -0.272  0.011 -0.003    0.479  0.120 -0.097
 H          0.888 -0.052  0.004    0.657 -0.074  0.002   -0.073 -0.015 -0.001
 H          0.019  0.042 -0.005   -0.046 -0.099  0.014    0.165  0.426 -0.110
 H          0.013 -0.002  0.000   -0.041  0.001 -0.004    0.322  0.034  0.060
 H         -0.039  0.087  0.002   -0.056  0.141  0.004   -0.082  0.171  0.005
 H         -0.325  0.095  0.002   -0.407  0.110  0.001   -0.176  0.008 -0.000
 TransDip  -0.620  0.079  0.001    1.000 -0.001  0.003    0.298 -0.078 -0.003

 Mode:                28                     29                     30
 Frequency:      1439.34                1469.93                1501.64
 Force Cnst:      1.4758                 1.7453                 1.4400
 Red. Mass:       1.2091                 1.3710                 1.0839
 IR Active:          YES                    YES                    YES
 IR Intens:       17.510                  9.769                 13.539
 Raman Active:       YES                    YES                    YES
               X      Y      Z        X      Y      Z        X      Y      Z
 O          0.026  0.003  0.000    0.014 -0.013  0.002    0.018 -0.013 -0.002
 O         -0.011  0.004  0.000    0.010 -0.005 -0.000    0.009 -0.004 -0.000
 O          0.006 -0.005 -0.000    0.004 -0.003  0.000    0.004 -0.003  0.000
 C          0.014  0.010  0.000    0.096  0.062  0.004    0.031 -0.062  0.002
 C          0.103 -0.018  0.000    0.004  0.001  0.000   -0.000  0.001  0.000
 C          0.010  0.017 -0.001   -0.106 -0.077 -0.000   -0.012 -0.008 -0.001
 C          0.029 -0.040 -0.001    0.003 -0.005 -0.000    0.001 -0.003 -0.000
 C         -0.055 -0.004 -0.000   -0.044  0.009  0.000   -0.031  0.007 -0.000
 H         -0.085 -0.040 -0.027   -0.348 -0.113 -0.097   -0.168  0.523  0.427
 H         -0.085 -0.036  0.027   -0.223 -0.091  0.097   -0.217  0.538 -0.410
 H         -0.328 -0.025 -0.003   -0.023  0.002  0.000   -0.010  0.001  0.000
 H         -0.045 -0.129  0.037    0.123  0.547 -0.178    0.001  0.016 -0.015
 H         -0.113 -0.013 -0.021    0.624  0.087  0.105    0.045  0.011  0.021
 H         -0.306  0.628  0.018   -0.021  0.042  0.001   -0.006  0.012  0.000
 H         -0.576 -0.005 -0.002   -0.032 -0.004 -0.000   -0.007 -0.002 -0.000
 TransDip  -0.133  0.016  0.002   -0.049  0.087 -0.006   -0.030  0.114  0.003

 Mode:                31                     32                     33
 Frequency:      1746.28                1847.52                3007.10
 Force Cnst:      8.6371                24.2005                 5.6838
 Red. Mass:       4.8072                12.0335                 1.0668
 IR Active:          YES                    YES                    YES
 IR Intens:       98.617                409.040                 17.958
 Raman Active:       YES                    YES                    YES
               X      Y      Z        X      Y      Z        X      Y      Z
 O          0.018  0.007  0.000   -0.049 -0.073 -0.002    0.002 -0.000 -0.000
 O         -0.030  0.020  0.000    0.018 -0.070 -0.002    0.000  0.000 -0.000
 O          0.005  0.013  0.000   -0.010 -0.485 -0.013   -0.000  0.001  0.000
 C          0.001  0.001  0.000   -0.028  0.014 -0.001    0.002 -0.056 -0.047
 C          0.389 -0.195 -0.003    0.062  0.013  0.001   -0.000  0.000 -0.000
 C         -0.001  0.000 -0.000    0.010 -0.010  0.002   -0.002 -0.000 -0.001
 C         -0.320  0.216  0.004   -0.043  0.003 -0.000    0.000  0.000  0.000
 C         -0.054 -0.035 -0.001    0.044  0.809  0.022   -0.001 -0.003  0.000
 H         -0.010 -0.002  0.001    0.143  0.029 -0.036   -0.017  0.134 -0.220
 H         -0.010 -0.001 -0.001    0.139  0.021  0.035   -0.011  0.556  0.787
 H         -0.385 -0.281 -0.010   -0.182  0.029 -0.000    0.000 -0.001 -0.000
 H         -0.002 -0.000 -0.000    0.021  0.029 -0.002    0.002 -0.006 -0.000
 H          0.003  0.001  0.000   -0.033 -0.018  0.001    0.001 -0.004  0.001
 H         -0.068 -0.444 -0.013   -0.048 -0.002 -0.000    0.000 -0.000  0.000
 H          0.399  0.256  0.009    0.069  0.007  0.000   -0.000  0.000 -0.000
 TransDip   0.285 -0.141 -0.002    0.026  0.647  0.017    0.064 -0.100 -0.065

 Mode:                34                     35                     36
 Frequency:      3075.91                3174.82                3178.91
 Force Cnst:      6.0961                 6.2467                 6.3144
 Red. Mass:       1.0936                 1.0519                 1.0605
 IR Active:          YES                    YES                    YES
 IR Intens:       16.105                  4.917                  0.278
 Raman Active:       YES                    YES                    YES
               X      Y      Z        X      Y      Z        X      Y      Z
 O         -0.001 -0.000  0.000    0.000 -0.000 -0.000   -0.000  0.000  0.000
 O         -0.000 -0.000 -0.000   -0.000 -0.000  0.000   -0.000 -0.000 -0.000
 O          0.000 -0.001  0.000   -0.000 -0.000 -0.000    0.000  0.000  0.000
 C         -0.003  0.036 -0.080    0.003  0.003  0.000   -0.000 -0.000  0.000
 C          0.000 -0.000 -0.000    0.000 -0.000  0.000   -0.008 -0.006 -0.000
 C          0.002 -0.003  0.001   -0.049 -0.040  0.007    0.000  0.000 -0.000
 C         -0.000 -0.000  0.000    0.000 -0.000 -0.000    0.054 -0.043 -0.001
 C          0.001  0.001  0.000    0.000  0.000  0.000    0.000 -0.000 -0.000
 H          0.043 -0.577  0.774   -0.002 -0.002  0.001   -0.000  0.000 -0.000
 H          0.001  0.154  0.181    0.000  0.001  0.002   -0.000  0.000  0.000
 H         -0.000  0.001 -0.000   -0.000  0.001  0.000    0.002  0.129  0.004
 H         -0.019  0.009 -0.004    0.657 -0.197  0.185   -0.001  0.000 -0.000
 H         -0.003  0.012 -0.012   -0.113  0.636 -0.273    0.000 -0.001  0.001
 H         -0.000  0.000  0.000   -0.001 -0.001 -0.000   -0.584 -0.290 -0.011
 H          0.000 -0.000 -0.000    0.000  0.001  0.000    0.035  0.742  0.021
 TransDip  -0.036  0.063 -0.106   -0.066 -0.025  0.000   -0.013 -0.011 -0.000

 Mode:                37                     38                     39
 Frequency:      3238.84                3278.26                3289.37
 Force Cnst:      6.7904                 7.0744                 7.1420
 Red. Mass:       1.0987                 1.1173                 1.1203
 IR Active:          YES                    YES                    YES
 IR Intens:        7.730                  4.313                  4.604
 Raman Active:       YES                    YES                    YES
               X      Y      Z        X      Y      Z        X      Y      Z
 O         -0.000  0.000  0.000   -0.000  0.000 -0.000    0.000 -0.000  0.000
 O         -0.000  0.000  0.000    0.001  0.000  0.000   -0.000 -0.000 -0.000
 O          0.001  0.001  0.000    0.000  0.000  0.000   -0.000 -0.000 -0.000
 C          0.000 -0.000  0.000    0.000 -0.000 -0.000   -0.001  0.002 -0.002
 C          0.008 -0.087 -0.002    0.001 -0.018 -0.001    0.000  0.000  0.000
 C         -0.000  0.000 -0.000   -0.000  0.000 -0.000   -0.063  0.069 -0.038
 C         -0.001  0.026  0.001   -0.060 -0.078 -0.002    0.000  0.000  0.000
 C          0.000 -0.002 -0.000    0.000 -0.000 -0.000    0.000  0.000  0.000
 H         -0.000  0.001 -0.001   -0.000  0.000 -0.000   -0.001 -0.018  0.021
 H         -0.000  0.001  0.001   -0.000  0.000  0.000   -0.001  0.001 -0.000
 H         -0.013  0.970  0.027   -0.005  0.194  0.005    0.000 -0.001 -0.000
 H         -0.000  0.000 -0.000    0.001 -0.000  0.000    0.649 -0.188  0.177
 H          0.000 -0.001  0.001    0.000 -0.001  0.001    0.103 -0.643  0.277
 H         -0.058 -0.032 -0.001    0.678  0.324  0.012   -0.001 -0.001 -0.000
 H         -0.011 -0.215 -0.006    0.020  0.622  0.017   -0.000 -0.001 -0.000
 TransDip  -0.087  0.017 -0.000   -0.053 -0.040 -0.002   -0.051  0.039 -0.025

 STANDARD THERMODYNAMIC QUANTITIES AT   298.15 K  AND     1.00 ATM

   This Molecule has  0 Imaginary Frequencies
   Zero point vibrational energy:       71.434 kcal/mol

   Atom    1 Element O  Has Mass   15.99491
   Atom    2 Element O  Has Mass   15.99491
   Atom    3 Element O  Has Mass   15.99491
   Atom    4 Element C  Has Mass   12.00000
   Atom    5 Element C  Has Mass   12.00000
   Atom    6 Element C  Has Mass   12.00000
   Atom    7 Element C  Has Mass   12.00000
   Atom    8 Element C  Has Mass   12.00000
   Atom    9 Element H  Has Mass    1.00783
   Atom   10 Element H  Has Mass    1.00783
   Atom   11 Element H  Has Mass    1.00783
   Atom   12 Element H  Has Mass    1.00783
   Atom   13 Element H  Has Mass    1.00783
   Atom   14 Element H  Has Mass    1.00783
   Atom   15 Element H  Has Mass    1.00783
   Molecular Mass:   115.039540 amu
   Principal axes and moments of inertia in amu*Bohr^2:
                             1           2           3
    Eigenvalues --      246.44667  1876.97441  2110.15404
          X               1.00000    -0.00091    -0.00028
          Y               0.00090     0.99997    -0.00814
          Z               0.00028     0.00814     0.99997
   Rotational Symmetry Number is   1
   The Molecule is an Asymmetric Top
   Translational Enthalpy:        0.889 kcal/mol
   Rotational Enthalpy:           0.889 kcal/mol
   Vibrational Enthalpy:         75.464 kcal/mol
   gas constant (RT):             0.592 kcal/mol
   Translational Entropy:        40.136  cal/mol.K
   Rotational Entropy:           28.369  cal/mol.K
   Vibrational Entropy:          26.630  cal/mol.K

   Total Enthalpy:               77.834 kcal/mol
   Total Entropy:                95.135  cal/mol.K
Archival summary:
1\1\nid00761\FREQ\ProcedureUnspecified\BasisUnspecified\357(2)\sblau\MonAug2712:36:342018MonAug2712:36:342018\0\\#,FREQ,ProcedureUnspecified,BasisUnspecified,\\0,2\O\C,1,1.32398\O,2,1.20021,1,126.431\O,2,1.34188,1,107.475,3,-179.992,0\C,4,1.37918,2,117.553,1,-179.899,0\H,5,1.08281,4,114.73,2,-0.127143,0\C,5,1.32126,4,119.878,2,179.882,0\H,7,1.08199,5,119.353,4,179.996,0\H,7,1.08373,5,121.88,4,-0.0257735,0\C,1,1.43772,2,115.376,3,0.375749,0\H,10,1.09481,1,109.203,2,-59.8093,0\H,10,1.09946,1,108.187,2,55.9471,0\C,10,1.47601,1,108.306,2,177.841,0\H,13,1.08218,10,120.418,1,-27.4119,0\H,13,1.08232,10,119.443,1,162.191,0\\\@

 Total job time:  875.50s(wall), 3775.42s(cpu) 
 Mon Aug 27 12:36:34 2018

        *************************************************************
        *                                                           *
        *  Thank you very much for using Q-Chem.  Have a nice day.  *
        *                                                           *
        *************************************************************


0 sent ACK to 0 
now end server 0 ... 
cleanup process ... done
