 vasp.5.4.1 05Feb16 (build Mar 04 2017 10:19:11) gamma-only                     
  
 executed on           IFC91_ompi date 2017.03.05  15:02:55
 running on   24 total cores
 distrk:  each k-point on   24 cores,    1 groups
 distr:  one band on NCORES_PER_BAND=   4 cores,    6 groups


--------------------------------------------------------------------------------------------------------


 INCAR:
 POTCAR:    PAW_PBE Li 17Jan2003                  
 POTCAR:    PAW_PBE P 17Jan2003                   
 POTCAR:    PAW_PBE S 17Jan2003                   
 POTCAR:    PAW_PBE Li 17Jan2003                  
   VRHFIN =Li: s1p0                                                             
   LEXCH  = PE                                                                  
   EATOM  =     5.3001 eV,     .3895 Ry                                         
                                                                                
   TITEL  = PAW_PBE Li 17Jan2003                                                
   LULTRA =        F    use ultrasoft PP ?                                      
   IUNSCR =        1    unscreen: 0-lin 1-nonlin 2-no                           
   RPACOR =    1.500    partial core radius                                     
   POMASS =    7.010; ZVAL   =    1.000    mass and valenz                      
   RCORE  =    2.050    outmost cutoff radius                                   
   RWIGS  =    2.600; RWIGS  =    1.376    wigner-seitz radius (au A)           
   ENMAX  =  140.000; ENMIN  =  100.000 eV                                      
   ICORE  =        2    local potential                                         
   LCOR   =        T    correct aug charges                                     
   LPAW   =        T    paw PP                                                  
   EAUG   =  331.638                                                            
   DEXC   =    -.010                                                            
   RMAX   =    4.263    core radius for proj-oper                               
   RAUG   =    1.300    factor for augmentation sphere                          
   RDEP   =    2.094    radius for radial grids                                 
   QCUT   =   -2.932; QGAM   =    5.865    optimization parameters              
                                                                                
   Description                                                                  
     l     E      TYP  RCUT    TYP  RCUT                                        
     0   .000     23  2.050                                                     
     0  2.000     23  2.050                                                     
     1   .000     23  2.050                                                     
     2   .000     23  2.050                                                     
  local pseudopotential read in
  partial core-charges read in
  atomic valenz-charges read in
  non local Contribution for L=           0  read in
    real space projection operators read in
  non local Contribution for L=           0  read in
    real space projection operators read in
  non local Contribution for L=           1  read in
    real space projection operators read in
    PAW grid and wavefunctions read in
 
   number of l-projection  operators is LMAX  =           3
   number of lm-projection operators is LMMAX =           5
 
 POTCAR:    PAW_PBE P 17Jan2003                   
   VRHFIN =P : s2p3                                                             
   LEXCH  = PE                                                                  
   EATOM  =   176.0430 eV,   12.9388 Ry                                         
                                                                                
   TITEL  = PAW_PBE P 17Jan2003                                                 
   LULTRA =        F    use ultrasoft PP ?                                      
   IUNSCR =        1    unscreen: 0-lin 1-nonlin 2-no                           
   RPACOR =    1.500    partial core radius                                     
   POMASS =   30.974; ZVAL   =    5.000    mass and valenz                      
   RCORE  =    1.900    outmost cutoff radius                                   
   RWIGS  =    2.330; RWIGS  =    1.233    wigner-seitz radius (au A)           
   ENMAX  =  270.000; ENMIN  =  191.280 eV                                      
   ICORE  =        2    local potential                                         
   LCOR   =        T    correct aug charges                                     
   LPAW   =        T    paw PP                                                  
   EAUG   =  342.924                                                            
   DEXC   =    -.002                                                            
   RMAX   =    2.887    core radius for proj-oper                               
   RAUG   =    1.300    factor for augmentation sphere                          
   RDEP   =    1.931    radius for radial grids                                 
   QCUT   =   -4.330; QGAM   =    8.659    optimization parameters              
                                                                                
   Description                                                                  
     l     E      TYP  RCUT    TYP  RCUT                                        
     0   .000     23  1.900                                                     
     0   .000     23  1.900                                                     
     1   .000     23  1.900                                                     
     1   .000     23  1.900                                                     
     2   .000     23  1.900                                                     
  local pseudopotential read in
  partial core-charges read in
  atomic valenz-charges read in
  non local Contribution for L=           0  read in
    real space projection operators read in
  non local Contribution for L=           0  read in
    real space projection operators read in
  non local Contribution for L=           1  read in
    real space projection operators read in
  non local Contribution for L=           1  read in
    real space projection operators read in
    PAW grid and wavefunctions read in
 
   number of l-projection  operators is LMAX  =           4
   number of lm-projection operators is LMMAX =           8
 
 POTCAR:    PAW_PBE S 17Jan2003                   
   VRHFIN =S : s2p4                                                             
   LEXCH  = PE                                                                  
   EATOM  =   276.8230 eV,   20.3459 Ry                                         
                                                                                
   TITEL  = PAW_PBE S 17Jan2003                                                 
   LULTRA =        F    use ultrasoft PP ?                                      
   IUNSCR =        1    unscreen: 0-lin 1-nonlin 2-no                           
   RPACOR =    1.500    partial core radius                                     
   POMASS =   32.066; ZVAL   =    6.000    mass and valenz                      
   RCORE  =    1.900    outmost cutoff radius                                   
   RWIGS  =    2.200; RWIGS  =    1.164    wigner-seitz radius (au A)           
   ENMAX  =  280.000; ENMIN  =  194.016 eV                                      
   ICORE  =        2    local potential                                         
   LCOR   =        T    correct aug charges                                     
   LPAW   =        T    paw PP                                                  
   EAUG   =  335.092                                                            
   DEXC   =     .000                                                            
   RMAX   =    2.867    core radius for proj-oper                               
   RAUG   =    1.300    factor for augmentation sphere                          
   RDEP   =    1.954    radius for radial grids                                 
   QCUT   =   -4.360; QGAM   =    8.721    optimization parameters              
                                                                                
   Description                                                                  
     l     E      TYP  RCUT    TYP  RCUT                                        
     0   .000     23  1.900                                                     
     0   .000     23  1.900                                                     
     1   .000     23  1.900                                                     
     1   .000     23  1.900                                                     
     2   .000     23  1.900                                                     
  local pseudopotential read in
  partial core-charges read in
  atomic valenz-charges read in
  non local Contribution for L=           0  read in
    real space projection operators read in
  non local Contribution for L=           0  read in
    real space projection operators read in
  non local Contribution for L=           1  read in
    real space projection operators read in
  non local Contribution for L=           1  read in
    real space projection operators read in
    PAW grid and wavefunctions read in
 
   number of l-projection  operators is LMAX  =           4
   number of lm-projection operators is LMMAX =           8
 
  PAW_PBE Li 17Jan2003                  :
 energy of atom  1       EATOM=   -5.3001
 kinetic energy error for atom=    0.0000 (will be added to EATOM!!)
  PAW_PBE P 17Jan2003                   :
 energy of atom  2       EATOM= -176.0430
 kinetic energy error for atom=    0.0061 (will be added to EATOM!!)
  PAW_PBE S 17Jan2003                   :
 energy of atom  3       EATOM= -276.8230
 kinetic energy error for atom=    0.0122 (will be added to EATOM!!)
 
 
 POSCAR: Li28 P12 S44                            
  positions in direct lattice
  No initial velocities read in
 exchange correlation table for  LEXCH =        8
   RHO(1)=    0.500       N(1)  =     2000
   RHO(2)=  100.500       N(2)  =     4000

 VTST: version 3.1, (03/28/14)

 CHAIN: initializing optimizer
 
 OPT: Using VASP Dynamics algorithm
 CHAIN: Read ICHAIN            0
 
 POSCAR: Li28 P12 S44                            
  positions in direct lattice
  No initial velocities read in

 ----------------------------------------------------------------------------- 
|                                                                             |
|           W    W    AA    RRRRR   N    N  II  N    N   GGGG   !!!           |
|           W    W   A  A   R    R  NN   N  II  NN   N  G    G  !!!           |
|           W    W  A    A  R    R  N N  N  II  N N  N  G       !!!           |
|           W WW W  AAAAAA  RRRRR   N  N N  II  N  N N  G  GGG   !            |
|           WW  WW  A    A  R   R   N   NN  II  N   NN  G    G                |
|           W    W  A    A  R    R  N    N  II  N    N   GGGG   !!!           |
|                                                                             |
|      VASP found    249 degrees of freedom                                   |
|      the temperature will equal 2*E(kin)/ (degrees of freedom)              |
|      this differs from previous releases, where T was 2*E(kin)/(3 NIONS).   |
|      The new definition is more consistent                                  |
|                                                                             |
 ----------------------------------------------------------------------------- 

 


--------------------------------------------------------------------------------------------------------


 ion  position               nearest neighbor table
   1  0.329  0.468  0.895-  74 2.50  61 2.51  77 2.55  45 2.57  64 2.88  37 3.13
   2  0.329  0.968  0.895-  73 2.50  62 2.51  78 2.55  46 2.57  63 2.88  38 3.13
   3  0.671  0.032  0.105-  76 2.50  63 2.51  79 2.55  47 2.57  62 2.88  39 3.13
   4  0.671  0.532  0.105-  75 2.50  64 2.51  80 2.55  48 2.57  61 2.88  40 3.13
   5  0.383  0.237  0.110-  77 2.40  63 2.45  69 2.54  67 2.55  37 2.95  19 2.99
   6  0.383  0.737  0.110-  78 2.40  64 2.45  70 2.54  68 2.55  38 2.95  20 2.99
   7  0.617  0.263  0.890-  79 2.40  61 2.45  71 2.54  65 2.55  39 2.95  17 2.99
   8  0.617  0.763  0.890-  80 2.40  62 2.45  72 2.54  66 2.55  40 2.95  18 2.99
   9  0.825  0.240  0.296-  51 2.45  79 2.52  47 2.52  83 2.53  39 3.01
  10  0.825  0.740  0.296-  52 2.45  80 2.52  48 2.52  84 2.53  40 3.01
  11  0.175  0.260  0.704-  49 2.45  77 2.52  45 2.52  81 2.53  37 3.01
  12  0.175  0.760  0.704-  50 2.45  78 2.52  46 2.52  82 2.53  38 3.01
  13  0.033  0.087  0.755-  46 2.47  73 2.49  43 2.51  81 2.57
  14  0.033  0.587  0.755-  45 2.47  74 2.49  44 2.51  82 2.57
  15  0.967  0.413  0.245-  48 2.47  75 2.49  41 2.51  83 2.57
  16  0.967  0.913  0.245-  47 2.47  76 2.49  42 2.51  84 2.57
  17  0.686  0.149  0.684-  65 2.51  43 2.52  71 2.58  57 2.79  55 2.92   7 2.99
  18  0.686  0.649  0.684-  66 2.51  44 2.52  72 2.58  58 2.79  56 2.92   8 2.99
  19  0.314  0.351  0.316-  67 2.51  41 2.52  69 2.58  59 2.79  53 2.92   5 2.99
  20  0.314  0.851  0.316-  68 2.51  42 2.52  70 2.58  60 2.79  54 2.92   6 2.99
  21  0.345  0.143  0.508-  49 2.39  59 2.43  65 2.49  54 3.00
  22  0.345  0.643  0.508-  50 2.39  60 2.43  66 2.49  53 3.00
  23  0.655  0.357  0.492-  51 2.39  57 2.43  67 2.49  56 3.00
  24  0.655  0.857  0.492-  52 2.39  58 2.43  68 2.49  55 3.00
  25  0.865  0.356  0.878-  75 2.39  71 2.51  81 2.51  57 2.66
  26  0.865  0.856  0.878-  76 2.39  72 2.51  82 2.51  58 2.66
  27  0.135  0.144  0.122-  73 2.39  69 2.51  83 2.51  59 2.66
  28  0.135  0.644  0.122-  74 2.39  70 2.51  84 2.51  60 2.66
  29  0.213  0.478  0.547-  50 2.00  45 2.02  41 2.04  53 2.20
  30  0.213  0.978  0.547-  49 2.00  46 2.02  42 2.04  54 2.20
  31  0.787  0.022  0.453-  52 2.00  47 2.02  43 2.04  55 2.20
  32  0.787  0.522  0.453-  51 2.00  48 2.02  44 2.04  56 2.20
  33  0.525  0.482  0.723-  61 2.03  66 2.05  57 2.05  53 2.16
  34  0.525  0.982  0.723-  62 2.03  65 2.05  58 2.05  54 2.16
  35  0.475  0.018  0.277-  63 2.03  68 2.05  59 2.05  55 2.16
  36  0.475  0.518  0.277-  64 2.03  67 2.05  60 2.05  56 2.16
  37  0.168  0.354  0.944-  69 2.06  74 2.06  77 2.06  81 2.06   5 2.95  11 3.01   1 3.13
  38  0.168  0.854  0.944-  70 2.06  73 2.06  78 2.06  82 2.06   6 2.95  12 3.01   2 3.13
  39  0.832  0.146  0.056-  71 2.06  76 2.06  79 2.06  83 2.06   7 2.95   9 3.01   3 3.13
  40  0.832  0.646  0.056-  72 2.06  75 2.06  80 2.06  84 2.06   8 2.95  10 3.01   4 3.13
  41  0.163  0.364  0.400-  29 2.04  15 2.51  19 2.52
  42  0.163  0.864  0.400-  30 2.04  16 2.51  20 2.52
  43  0.837  0.136  0.600-  31 2.04  13 2.51  17 2.52
  44  0.837  0.636  0.600-  32 2.04  14 2.51  18 2.52
  45  0.182  0.456  0.684-  29 2.02  14 2.47  11 2.52   1 2.57
  46  0.182  0.956  0.684-  30 2.02  13 2.47  12 2.52   2 2.57
  47  0.818  0.044  0.316-  31 2.02  16 2.47   9 2.52   3 2.57
  48  0.818  0.544  0.316-  32 2.02  15 2.47  10 2.52   4 2.57
  49  0.164  0.140  0.518-  30 2.00  21 2.39  11 2.45
  50  0.164  0.640  0.518-  29 2.00  22 2.39  12 2.45
  51  0.836  0.360  0.482-  32 2.00  23 2.39   9 2.45
  52  0.836  0.860  0.482-  31 2.00  24 2.39  10 2.45
  53  0.396  0.410  0.569-  33 2.16  29 2.20  19 2.92  22 3.00
  54  0.396  0.910  0.569-  34 2.16  30 2.20  20 2.92  21 3.00
  55  0.604  0.090  0.431-  35 2.16  31 2.20  17 2.92  24 3.00
  56  0.604  0.590  0.431-  36 2.16  32 2.20  18 2.92  23 3.00
  57  0.668  0.381  0.693-  33 2.05  23 2.43  25 2.66  17 2.79
  58  0.668  0.881  0.693-  34 2.05  24 2.43  26 2.66  18 2.79
  59  0.332  0.119  0.307-  35 2.05  21 2.43  27 2.66  19 2.79
  60  0.332  0.619  0.307-  36 2.05  22 2.43  28 2.66  20 2.79
  61  0.517  0.461  0.873-  33 2.03   7 2.45   1 2.51   4 2.88
  62  0.517  0.961  0.873-  34 2.03   8 2.45   2 2.51   3 2.88
  63  0.483  0.039  0.127-  35 2.03   5 2.45   3 2.51   2 2.88
  64  0.483  0.539  0.127-  36 2.03   6 2.45   4 2.51   1 2.88
  65  0.500  0.148  0.706-  34 2.05  21 2.49  17 2.51   7 2.55
  66  0.500  0.648  0.706-  33 2.05  22 2.49  18 2.51   8 2.55
  67  0.500  0.352  0.294-  36 2.05  23 2.49  19 2.51   5 2.55
  68  0.500  0.852  0.294-  35 2.05  24 2.49  20 2.51   6 2.55
  69  0.177  0.323  0.101-  37 2.06  27 2.51   5 2.54  19 2.58
  70  0.177  0.823  0.101-  38 2.06  28 2.51   6 2.54  20 2.58
  71  0.823  0.177  0.899-  39 2.06  25 2.51   7 2.54  17 2.58
  72  0.823  0.677  0.899-  40 2.06  26 2.51   8 2.54  18 2.58
  73  0.153  0.024  0.950-  38 2.06  27 2.39  13 2.49   2 2.50
  74  0.153  0.524  0.950-  37 2.06  28 2.39  14 2.49   1 2.50
  75  0.847  0.476  0.050-  40 2.06  25 2.39  15 2.49   4 2.50
  76  0.847  0.976  0.050-  39 2.06  26 2.39  16 2.49   3 2.50
  77  0.317  0.271  0.912-  37 2.06   5 2.40  11 2.52   1 2.55
  78  0.317  0.771  0.912-  38 2.06   6 2.40  12 2.52   2 2.55
  79  0.683  0.229  0.088-  39 2.06   7 2.40   9 2.52   3 2.55
  80  0.683  0.729  0.088-  40 2.06   8 2.40  10 2.52   4 2.55
  81  0.030  0.301  0.804-  37 2.06  25 2.51  11 2.53  13 2.57
  82  0.030  0.801  0.804-  38 2.06  26 2.51  12 2.53  14 2.57
  83  0.970  0.199  0.196-  39 2.06  27 2.51   9 2.53  15 2.57
  84  0.970  0.699  0.196-  40 2.06  28 2.51  10 2.53  16 2.57
 

IMPORTANT INFORMATION: All symmetrisations will be switched off!
NOSYMM: (Re-)initialisation of all symmetry stuff for point group C_1.

 
 
 KPOINTS: Automatic kpoint scheme                 

Automatic generation of k-mesh.
Space group operators:
 irot       det(A)        alpha          n_x          n_y          n_z        tau_x        tau_y        tau_z
    1     1.000000     0.000000     1.000000     0.000000     0.000000     0.000000     0.000000     0.000000
 
 Subroutine IBZKPT returns following result:
 ===========================================
 
 Found      1 irreducible k-points:
 
 Following reciprocal coordinates:
            Coordinates               Weight
  0.000000  0.000000  0.000000      1.000000
 
 Following cartesian coordinates:
            Coordinates               Weight
  0.000000  0.000000  0.000000      1.000000
 


--------------------------------------------------------------------------------------------------------




 Dimension of arrays:
   k-points           NKPTS =      1   k-points in BZ     NKDIM =      1   number of bands    NBANDS=    222
   number of dos      NEDOS =    301   number of ions     NIONS =     84
   non local maximal  LDIM  =      4   non local SUM 2l+1 LMDIM =      8
   total plane-waves  NPLWV = 157464
   max r-space proj   IRMAX =   4369   max aug-charges    IRDMAX=   3074
   dimension x,y,z NGX =    54 NGY =   54 NGZ =   54
   dimension x,y,z NGXF=   108 NGYF=  108 NGZF=  108
   support grid    NGXF=   108 NGYF=  108 NGZF=  108
   ions per type =              28  12  44
 NGX,Y,Z   is equivalent  to a cutoff of   6.99,  7.24,  7.10 a.u.
 NGXF,Y,Z  is equivalent  to a cutoff of  13.98, 14.48, 14.20 a.u.


 I would recommend the setting:
   dimension x,y,z NGX =    53 NGY =   51 NGZ =   52
 SYSTEM =  unknown system                          
 POSCAR =  Li28 P12 S44                            

 Startparameter for this run:
   NWRITE =      2    write-flag & timer
   PREC   = normal    normal or accurate (medium, high low for compatibility)
   ISTART =      0    job   : 0-new  1-cont  2-samecut
   ICHARG =      1    charge: 1-file 2-atom 10-const
   ISPIN  =      1    spin polarized calculation?
   LNONCOLLINEAR =      F non collinear calculations
   LSORBIT =      F    spin-orbit coupling
   INIWAV =      1    electr: 0-lowe 1-rand  2-diag
   LASPH  =      F    aspherical Exc in radial PAW
   METAGGA=      F    non-selfconsistent MetaGGA calc.

 Electronic Relaxation 1
   ENCUT  =  280.0 eV  20.58 Ry    4.54 a.u.  17.52 16.91 17.25*2*pi/ulx,y,z
   ENINI  =  280.0     initial cutoff
   ENAUG  =  342.9 eV  augmentation charge cutoff
   NELM   =    500;   NELMIN=  4; NELMDL= -5     # of ELM steps 
   EDIFF  = 0.2E-03   stopping-criterion for ELM
   LREAL  =      T    real-space projection
   NLSPLINE    = F    spline interpolate recip. space projectors
   LCOMPAT=      F    compatible to vasp.4.4
   GGA_COMPAT  = T    GGA compatible to vasp.4.4-vasp.4.6
   LMAXPAW     = -100 max onsite density
   LMAXMIX     =    2 max onsite mixed and CHGCAR
   VOSKOWN=      0    Vosko Wilk Nusair interpolation
   ROPT   =    0.00000   0.00000   0.00000
 Ionic relaxation
   EDIFFG = 0.2E-02   stopping-criterion for IOM
   NSW    =     10    number of steps for IOM
   NBLOCK =      1;   KBLOCK =      1    inner block; outer block 
   IBRION =      0    ionic relax: 0-MD 1-quasi-New 2-CG
   NFREE  =      0    steps in history (QN), initial steepest desc. (CG)
   ISIF   =      0    stress and relaxation
   IWAVPR =     12    prediction:  0-non 1-charg 2-wave 3-comb
   ISYM   =      0    0-nonsym 1-usesym 2-fastsym
   LCORR  =      T    Harris-Foulkes like correction to forces

   POTIM  = 2.0000    time-step for ionic-motion
   TEIN   =    1.0    initial temperature
   TEBEG  =    1.0;   TEEND  = 600.0 temperature during run
   SMASS  =   0.24    Nose mass-parameter (am)
   estimated Nose-frequenzy (Omega)   =  0.32E+13 period in steps =979.80 mass=   0.307E-27a.u.
   SCALEE = 1.0000    scale energy and forces
   NPACO  =    256;   APACO  = 16.0  distance and # of slots for P.C.
   PSTRESS=    0.0 pullay stress

  Mass of Ions in am
   POMASS =   7.01 30.97 32.07
  Ionic Valenz
   ZVAL   =   1.00  5.00  6.00
  Atomic Wigner-Seitz radii
   RWIGS  =  -1.00 -1.00 -1.00
  virtual crystal weights 
   VCA    =   1.00  1.00  1.00
   NELECT =     352.0000    total number of electrons
   NUPDOWN=      -1.0000    fix difference up-down

 DOS related values:
   EMIN   =  10.00;   EMAX   =-10.00  energy-range for DOS
   EFERMI =   0.00
   ISMEAR =     0;   SIGMA  =   0.05  broadening in eV -4-tet -1-fermi 0-gaus

 Electronic relaxation 2 (details)
   IALGO  =     68    algorithm
   LDIAG  =      T    sub-space diagonalisation (order eigenvalues)
   LSUBROT=      F    optimize rotation matrix (better conditioning)
   TURBO    =      0    0=normal 1=particle mesh
   IRESTART =      0    0=no restart 2=restart with 2 vectors
   NREBOOT  =      0    no. of reboots
   NMIN     =      0    reboot dimension
   EREF     =   0.00    reference energy to select bands
   IMIX   =      4    mixing-type and parameters
     AMIX     =   0.40;   BMIX     =  1.00
     AMIX_MAG =   1.60;   BMIX_MAG =  1.00
     AMIN     =   0.10
     WC   =   100.;   INIMIX=   1;  MIXPRE=   1;  MAXMIX=  20

 Intra band minimization:
   WEIMIN = 0.0010     energy-eigenvalue tresh-hold
   EBREAK =  0.23E-06  absolut break condition
   DEPER  =   0.30     relativ break condition  

   TIME   =   0.40     timestep for ELM

  volume/ion in A,a.u.               =      20.87       140.81
  Fermi-wavevector in a.u.,A,eV,Ry     =   0.958706  1.811692 12.505353  0.919118
  Thomas-Fermi vector in A             =   2.087837
 
 Write flags
   LWAVE  =      T    write WAVECAR
   LCHARG =      F    write CHGCAR
   LVTOT  =      F    write LOCPOT, total local potential
   LVHAR  =      F    write LOCPOT, Hartree potential only
   LELF   =      F    write electronic localiz. function (ELF)
   LORBIT =     11    0 simple, 1 ext, 2 COOP (PROOUT)


 Dipole corrections
   LMONO  =      F    monopole corrections only (constant potential shift)
   LDIPOL =      F    correct potential (dipole corrections)
   IDIPOL =      0    1-x, 2-y, 3-z, 4-all directions 
   EPSILON=  1.0000000 bulk dielectric constant

 Exchange correlation treatment:
   GGA     =    --    GGA type
   LEXCH   =     8    internal setting for exchange type
   VOSKOWN=      0    Vosko Wilk Nusair interpolation
   LHFCALC =     F    Hartree Fock is set to
   LHFONE  =     F    Hartree Fock one center treatment
   AEXX    =    0.0000 exact exchange contribution

 Linear response parameters
   LEPSILON=     F    determine dielectric tensor
   LRPA    =     F    only Hartree local field effects (RPA)
   LNABLA  =     F    use nabla operator in PAW spheres
   LVEL    =     F    velocity operator in full k-point grid
   LINTERFAST=   F  fast interpolation
   KINTER  =     0    interpolate to denser k-point grid
   CSHIFT  =0.1000    complex shift for real part using Kramers Kronig
   OMEGAMAX=  -1.0    maximum frequency
   DEG_THRESHOLD= 0.2000000E-02 threshold for treating states as degnerate
   RTIME   =    0.100 relaxation time in fs

 Orbital magnetization related:
   ORBITALMAG=     F  switch on orbital magnetization
   LCHIMAG   =     F  perturbation theory with respect to B field
   DQ        =  0.001000  dq finite difference perturbation B field



--------------------------------------------------------------------------------------------------------


 molecular dynamics for ions
   using nose mass (canonical ensemble)
 charge density and potential will be updated during run
 non-spin polarized calculation
 RMM-DIIS sequential band-by-band and
  variant of blocked Davidson during initial phase
 perform sub-space diagonalisation
    before iterative eigenvector-optimisation
 modified Broyden-mixing scheme, WC =      100.0
 initial mixing is a Kerker type mixing with AMIX =  0.4000 and BMIX =      1.0000
 Hartree-type preconditioning will be used
 using additional bands           46
 real space projection scheme for non local part
 use partial core corrections
 calculate Harris-corrections to forces 
   (improved forces if not selfconsistent)
 use gradient corrections 
 use of overlap-Matrix (Vanderbilt PP)
 Gauss-broadening in eV      SIGMA  =   0.05


--------------------------------------------------------------------------------------------------------


  energy-cutoff  :      280.00
  volume of cell :     1752.71
      direct lattice vectors                 reciprocal lattice vectors
    11.797205000  0.043027000 -5.073975000     0.085092123 -0.017426779  0.000610842
     2.441136000 11.820736000 -2.822486000    -0.000015140  0.084763451  0.000683589
    -0.111630000 -0.101968000 12.641328000     0.034150888  0.011930757  0.079503421

  length of vectors
    12.842161790 12.395780402 12.642232095     0.086860435  0.084766209  0.087346551


 
 k-points in units of 2pi/SCALE and weight: Automatic kpoint scheme                 
   0.00000000  0.00000000  0.00000000       1.000
 
 k-points in reciprocal lattice and weights: Automatic kpoint scheme                 
   0.00000000  0.00000000  0.00000000       1.000
 
 position of ions in fractional coordinates (direct lattice) 
   0.32939700  0.46805200  0.89513300
   0.32939700  0.96805200  0.89513300
   0.67060300  0.03194800  0.10486700
   0.67060300  0.53194800  0.10486700
   0.38346200  0.23684200  0.11009600
   0.38346200  0.73684200  0.11009600
   0.61653800  0.26315800  0.88990400
   0.61653800  0.76315800  0.88990400
   0.82545500  0.23953200  0.29594100
   0.82545500  0.73953200  0.29594100
   0.17454500  0.26046800  0.70405900
   0.17454500  0.76046800  0.70405900
   0.03315700  0.08666600  0.75502800
   0.03315700  0.58666600  0.75502800
   0.96684300  0.41333400  0.24497200
   0.96684300  0.91333400  0.24497200
   0.68573500  0.14933100  0.68438600
   0.68573500  0.64933100  0.68438600
   0.31426500  0.35066900  0.31561400
   0.31426500  0.85066900  0.31561400
   0.34504400  0.14317800  0.50805700
   0.34504400  0.64317800  0.50805700
   0.65495600  0.35682200  0.49194300
   0.65495600  0.85682200  0.49194300
   0.86453800  0.35623500  0.87767200
   0.86453800  0.85623500  0.87767200
   0.13546200  0.14376500  0.12232800
   0.13546200  0.64376500  0.12232800
   0.21283800  0.47818100  0.54663400
   0.21283800  0.97818100  0.54663400
   0.78716200  0.02181900  0.45336600
   0.78716200  0.52181900  0.45336600
   0.52455000  0.48202400  0.72255000
   0.52455000  0.98202400  0.72255000
   0.47545000  0.01797600  0.27745000
   0.47545000  0.51797600  0.27745000
   0.16757000  0.35350900  0.94409900
   0.16757000  0.85350900  0.94409900
   0.83243000  0.14649100  0.05590100
   0.83243000  0.64649100  0.05590100
   0.16300900  0.36369300  0.39977400
   0.16300900  0.86369300  0.39977400
   0.83699100  0.13630700  0.60022600
   0.83699100  0.63630700  0.60022600
   0.18201700  0.45571600  0.68398900
   0.18201700  0.95571600  0.68398900
   0.81798300  0.04428400  0.31601100
   0.81798300  0.54428400  0.31601100
   0.16378500  0.13989100  0.51782000
   0.16378500  0.63989100  0.51782000
   0.83621500  0.36010900  0.48218000
   0.83621500  0.86010900  0.48218000
   0.39628900  0.41022600  0.56944700
   0.39628900  0.91022600  0.56944700
   0.60371100  0.08977400  0.43055300
   0.60371100  0.58977400  0.43055300
   0.66833000  0.38056000  0.69332000
   0.66833000  0.88056000  0.69332000
   0.33167000  0.11944000  0.30668000
   0.33167000  0.61944000  0.30668000
   0.51711600  0.46100800  0.87333500
   0.51711600  0.96100800  0.87333500
   0.48288400  0.03899200  0.12666500
   0.48288400  0.53899200  0.12666500
   0.49973800  0.14819500  0.70564400
   0.49973800  0.64819500  0.70564400
   0.50026200  0.35180500  0.29435600
   0.50026200  0.85180500  0.29435600
   0.17660600  0.32255000  0.10080700
   0.17660700  0.82255000  0.10080700
   0.82339300  0.17745000  0.89919300
   0.82339300  0.67745000  0.89919300
   0.15282500  0.02428400  0.94962400
   0.15282500  0.52428400  0.94962400
   0.84717500  0.47571600  0.05037600
   0.84717500  0.97571600  0.05037600
   0.31695000  0.27091000  0.91158400
   0.31695000  0.77091000  0.91158400
   0.68305000  0.22909000  0.08841600
   0.68305000  0.72909000  0.08841600
   0.02953100  0.30066800  0.80395000
   0.02953100  0.80066800  0.80395000
   0.97046900  0.19933200  0.19605000
   0.97046900  0.69933200  0.19605000
 
 position of ions in cartesian coordinates  (Angst):
   4.92861883  5.45561717  8.32324750
   6.14918683 11.36598517  6.91200450
   7.97752417  0.39580983 -2.16713750
   9.19809217  6.30617783 -3.57838050
   5.08965334  2.80491971 -1.22240018
   6.31022134  8.71528771 -2.63364318
   7.81648966  3.04650729  7.37851018
   9.03705766  8.95687529  5.96726718
  10.28975615  2.83678488 -1.12332650
  11.51032415  8.74715288 -2.53456950
   2.61638685  3.01464212  7.27943650
   3.83695485  8.92501012  5.86819350
   0.51843964  0.94889386  9.13170524
   1.73900764  6.85926186  7.72046224
  12.38770336  4.90253314 -2.97559524
  13.60827136 10.81290114 -4.38683824
   8.37789564  1.72492198  4.75066100
   9.59846364  7.63528998  3.33941800
   4.52824736  4.12650502  1.40544900
   5.74881536 10.03687302 -0.00579400
   4.36335737  1.65550999  4.26765265
   5.58392537  7.56587799  2.85640965
   8.54278563  4.19591701  1.88845735
   9.76335363 10.10628501  0.47721435
  10.97077557  4.15866391  5.70282713
  12.19134357 10.06903191  4.29158413
   1.93536743  1.69276309  0.45328287
   3.15593543  7.60313109 -0.95796013
   3.61717762  5.60586997  4.48058582
   4.83774562 11.51623797  3.06934282
   9.28896538  0.24555703  1.67552418
  10.50953338  6.15592503  0.26428118
   7.28425177  5.64677128  5.11193197
   8.50481977 11.55713928  3.70068897
   5.62189123  0.20465572  1.04417803
   6.84245923  6.11502372 -0.36706497
   2.73443142  4.08967871 10.08664493
   3.95499942 10.00004671  8.67540193
  10.17171158  1.76174829 -3.93053493
  11.39227958  7.67211629 -5.34177793
   2.76624789  4.26536857  3.20005227
   3.98681589 10.17573657  1.78880927
  10.13989511  1.58605843  2.95605773
  11.36046311  7.49642643  1.54481473
   3.18340290  5.32498518  6.43672756
   4.40397090 11.23535318  5.02548456
   9.72274010  0.52644182 -0.28061756
  10.94330810  6.43680982 -1.69186056
   2.21589393  1.60786069  5.32005108
   3.43646193  7.51822869  3.90880808
  10.69024907  4.24356631  0.83605892
  11.91081707 10.15393431 -0.57518408
   5.61295266  4.80815900  4.02994869
   6.83352066 10.71852700  2.61870569
   7.29319034  1.04326800  2.12616131
   8.51375834  6.95363600  0.71491831
   8.73602942  4.45655907  4.29927055
   9.95659742 10.36692707  2.88802755
   4.17011358  1.39486793  1.85683945
   5.39068158  7.30523593  0.44559645
   7.12841630  5.38265159  7.11509191
   8.34898430 11.29301959  5.70384891
   5.77772670  0.46877541 -0.95898191
   6.99829470  6.37914341 -2.37022491
   6.17850474  1.70132309  5.96634082
   7.39907274  7.61169109  4.55509782
   6.72763826  4.15010391  0.18976918
   7.94820626 10.06047191 -1.22147382
   2.85959252  3.81009813 -0.53215294
   4.08017231  9.72046618 -1.94340101
  10.04653869  2.04132882  6.68826801
  11.26710669  7.95169682  5.27702501
   1.75618187  0.19679909 11.16053698
   2.97674987  6.10716709  9.74929398
  11.14996113  5.65462791 -5.00442698
  12.37052913 11.56499591 -6.41566998
   4.29869216  3.12304060  9.15079629
   5.51926016  9.03340860  7.73955329
   8.60745084  2.72838640 -2.99468629
   9.82801884  8.63875440 -4.40592929
   0.99260980  3.47341051  9.16452487
   2.21317780  9.38377851  7.75328187
  11.91353320  2.37801649 -3.00841487
  13.13410120  8.28838449 -4.41965787
 


--------------------------------------------------------------------------------------------------------


 use parallel FFT for wavefunctions z direction half grid
 k-point  1 :   0.0000 0.0000 0.0000  plane waves:    9319

 maximum and minimum number of plane-waves per node :      2332     2327

 maximum number of plane-waves:      9319
 maximum index in each direction: 
   IXMAX=   16   IYMAX=   16   IZMAX=   17
   IXMIN=  -17   IYMIN=  -16   IZMIN=    0

 WARNING: aliasing errors must be expected set NGX to  68 to avoid them
 WARNING: aliasing errors must be expected set NGY to  66 to avoid them
 WARNING: aliasing errors must be expected set NGZ to  70 to avoid them
 aliasing errors are usually negligible using standard VASP settings
 and one can safely disregard these warnings
 redistribution in real space done
 redistribution in real space done

 real space projection operators:
  total allocation   :       9070.28 KBytes
  max/ min on nodes  :       2267.66       2267.48


 total amount of memory used by VASP on root node    41889. kBytes
========================================================================

   base      :      30000. kBytes
   nonlr-proj:       2786. kBytes
   fftplans  :       2648. kBytes
   grid      :       4997. kBytes
   one-center:         32. kBytes
   wavefun   :       1426. kBytes
 
     INWAV:  cpu time    0.0010: real time    0.0006
 Broyden mixing: mesh for mixing (old mesh)
   NGX = 35   NGY = 33   NGZ = 35
  (NGX  =108   NGY  =108   NGZ  =108)
  gives a total of  40425 points

 initial charge density was supplied:
 charge density of overlapping atoms calculated
 number of electron     352.0000000 magnetization 
 keeping initial charge density in first step


--------------------------------------------------------------------------------------------------------


 Maximum index for non-local projection operator         1209
 Maximum index for augmentation-charges          130 (set IRDMAX)


--------------------------------------------------------------------------------------------------------


 First call to EWALD:  gamma=   0.147
 Maximum number of real-space cells 3x 3x 3
 Maximum number of reciprocal cells 3x 3x 3

 FEWALD executed in parallel
    FEWALD:  cpu time    0.0040: real time    0.0036


----------------------------------------- Iteration    1(   1)  ---------------------------------------


    POTLOK:  cpu time    0.0350: real time    0.0345
    SETDIJ:  cpu time    0.0050: real time    0.0050
     EDDAV:  cpu time    0.4909: real time    0.4920
       DOS:  cpu time    0.0000: real time    0.0003
    --------------------------------------------
      LOOP:  cpu time    0.5329: real time    0.5371

 eigenvalue-minimisations  :   444
 total energy-change (2. order) : 0.2305143E+04  (-0.1118164E+05)
 number of electron     352.0000000 magnetization 
 augmentation part      352.0000000 magnetization 

 Free energy of the ion-electron system (eV)
  ---------------------------------------------------
  alpha Z        PSCENC =       285.36422273
  Ewald energy   TEWEN  =    -11226.14841565
  -Hartree energ DENC   =     -3304.40604674
  -exchange      EXHF   =         0.00000000
  -V(xc)+E(xc)   XCENC  =       467.91599324
  PAW double counting   =      5100.40261384    -4706.48427697
  entropy T*S    EENTRO =        -0.02017558
  eigenvalues    EBANDS =      1247.99777473
  atomic energy  EATOM  =     14440.52152418
  Solvation  Ediel_sol  =         0.00000000
  ---------------------------------------------------
  free energy    TOTEN  =      2305.14321375 eV

  energy without entropy =     2305.16338934  energy(sigma->0) =     2305.15330155


--------------------------------------------------------------------------------------------------------




----------------------------------------- Iteration    1(   2)  ---------------------------------------


     EDDAV:  cpu time    0.6529: real time    0.6528
       DOS:  cpu time    0.0000: real time    0.0001
    --------------------------------------------
      LOOP:  cpu time    0.6549: real time    0.6629

 eigenvalue-minimisations  :   696
 total energy-change (2. order) :-0.2359173E+04  (-0.2260297E+04)
 number of electron     352.0000000 magnetization 
 augmentation part      352.0000000 magnetization 

 Free energy of the ion-electron system (eV)
  ---------------------------------------------------
  alpha Z        PSCENC =       285.36422273
  Ewald energy   TEWEN  =    -11226.14841565
  -Hartree energ DENC   =     -3304.40604674
  -exchange      EXHF   =         0.00000000
  -V(xc)+E(xc)   XCENC  =       467.91599324
  PAW double counting   =      5100.40261384    -4706.48427697
  entropy T*S    EENTRO =        -0.00000000
  eigenvalues    EBANDS =     -1111.19570615
  atomic energy  EATOM  =     14440.52152418
  Solvation  Ediel_sol  =         0.00000000
  ---------------------------------------------------
  free energy    TOTEN  =       -54.03009154 eV

  energy without entropy =      -54.03009154  energy(sigma->0) =      -54.03009154


--------------------------------------------------------------------------------------------------------




----------------------------------------- Iteration    1(   3)  ---------------------------------------


     EDDAV:  cpu time    0.5139: real time    0.5141
       DOS:  cpu time    0.0010: real time    0.0001
    --------------------------------------------
      LOOP:  cpu time    0.5159: real time    0.5237

 eigenvalue-minimisations  :   516
 total energy-change (2. order) :-0.3155940E+03  (-0.3126421E+03)
 number of electron     352.0000000 magnetization 
 augmentation part      352.0000000 magnetization 

 Free energy of the ion-electron system (eV)
  ---------------------------------------------------
  alpha Z        PSCENC =       285.36422273
  Ewald energy   TEWEN  =    -11226.14841565
  -Hartree energ DENC   =     -3304.40604674
  -exchange      EXHF   =         0.00000000
  -V(xc)+E(xc)   XCENC  =       467.91599324
  PAW double counting   =      5100.40261384    -4706.48427697
  entropy T*S    EENTRO =        -0.00000000
  eigenvalues    EBANDS =     -1426.78975567
  atomic energy  EATOM  =     14440.52152418
  Solvation  Ediel_sol  =         0.00000000
  ---------------------------------------------------
  free energy    TOTEN  =      -369.62414106 eV

  energy without entropy =     -369.62414106  energy(sigma->0) =     -369.62414106


--------------------------------------------------------------------------------------------------------




----------------------------------------- Iteration    1(   4)  ---------------------------------------


     EDDAV:  cpu time    0.5649: real time    0.5640
       DOS:  cpu time    0.0000: real time    0.0001
    --------------------------------------------
      LOOP:  cpu time    0.5649: real time    0.5739

 eigenvalue-minimisations  :   564
 total energy-change (2. order) :-0.1108557E+02  (-0.1103032E+02)
 number of electron     352.0000000 magnetization 
 augmentation part      352.0000000 magnetization 

 Free energy of the ion-electron system (eV)
  ---------------------------------------------------
  alpha Z        PSCENC =       285.36422273
  Ewald energy   TEWEN  =    -11226.14841565
  -Hartree energ DENC   =     -3304.40604674
  -exchange      EXHF   =         0.00000000
  -V(xc)+E(xc)   XCENC  =       467.91599324
  PAW double counting   =      5100.40261384    -4706.48427697
  entropy T*S    EENTRO =        -0.00000000
  eigenvalues    EBANDS =     -1437.87532123
  atomic energy  EATOM  =     14440.52152418
  Solvation  Ediel_sol  =         0.00000000
  ---------------------------------------------------
  free energy    TOTEN  =      -380.70970662 eV

  energy without entropy =     -380.70970662  energy(sigma->0) =     -380.70970662


--------------------------------------------------------------------------------------------------------




----------------------------------------- Iteration    1(   5)  ---------------------------------------


     EDDAV:  cpu time    0.5479: real time    0.5478
       DOS:  cpu time    0.0000: real time    0.0001
    CHARGE:  cpu time    0.0260: real time    0.0255
    MIXING:  cpu time    0.0010: real time    0.0013
    --------------------------------------------
      LOOP:  cpu time    0.5759: real time    0.5835

 eigenvalue-minimisations  :   540
 total energy-change (2. order) :-0.2718498E+00  (-0.2714257E+00)
 number of electron     352.0000030 magnetization 
 augmentation part      -42.8449536 magnetization 

 Broyden mixing:
  rms(total) = 0.18233E+01    rms(broyden)= 0.18227E+01
  rms(prec ) = 0.24455E+01
  weight for this iteration     100.00

 Free energy of the ion-electron system (eV)
  ---------------------------------------------------
  alpha Z        PSCENC =       285.36422273
  Ewald energy   TEWEN  =    -11226.14841565
  -Hartree energ DENC   =     -3304.40604674
  -exchange      EXHF   =         0.00000000
  -V(xc)+E(xc)   XCENC  =       467.91599324
  PAW double counting   =      5100.40261384    -4706.48427697
  entropy T*S    EENTRO =        -0.00000000
  eigenvalues    EBANDS =     -1438.14717105
  atomic energy  EATOM  =     14440.52152418
  Solvation  Ediel_sol  =         0.00000000
  ---------------------------------------------------
  free energy    TOTEN  =      -380.98155644 eV

  energy without entropy =     -380.98155644  energy(sigma->0) =     -380.98155644


--------------------------------------------------------------------------------------------------------




----------------------------------------- Iteration    1(   6)  ---------------------------------------


    POTLOK:  cpu time    0.0340: real time    0.0332
    SETDIJ:  cpu time    0.0040: real time    0.0048
    EDDIAG:  cpu time    0.0730: real time    0.0726
  RMM-DIIS:  cpu time    0.3020: real time    0.3022
    ORTHCH:  cpu time    0.0080: real time    0.0076
       DOS:  cpu time    0.0010: real time    0.0001
    CHARGE:  cpu time    0.0250: real time    0.0261
    MIXING:  cpu time    0.0010: real time    0.0012
    --------------------------------------------
      LOOP:  cpu time    0.4499: real time    0.4577

 eigenvalue-minimisations  :   444
 total energy-change (2. order) : 0.1118068E+02  (-0.2499274E+01)
 number of electron     352.0000032 magnetization 
 augmentation part      -42.3739339 magnetization 

 Broyden mixing:
  rms(total) = 0.90285E+00    rms(broyden)= 0.90274E+00
  rms(prec ) = 0.11342E+01
  weight for this iteration     100.00

 eigenvalues of (default mixing * dielectric matrix)
  average eigenvalue GAMMA=   1.6106
  1.6106

 Free energy of the ion-electron system (eV)
  ---------------------------------------------------
  alpha Z        PSCENC =       285.36422273
  Ewald energy   TEWEN  =    -11226.14841565
  -Hartree energ DENC   =     -3396.77703652
  -exchange      EXHF   =         0.00000000
  -V(xc)+E(xc)   XCENC  =       478.88402327
  PAW double counting   =      5515.89429781    -5127.04855078
  entropy T*S    EENTRO =        -0.00000000
  eigenvalues    EBANDS =     -1340.49094240
  atomic energy  EATOM  =     14440.52152418
  Solvation  Ediel_sol  =         0.00000000
  ---------------------------------------------------
  free energy    TOTEN  =      -369.80087737 eV

  energy without entropy =     -369.80087737  energy(sigma->0) =     -369.80087737


--------------------------------------------------------------------------------------------------------




----------------------------------------- Iteration    1(   7)  ---------------------------------------


    POTLOK:  cpu time    0.0330: real time    0.0333
    SETDIJ:  cpu time    0.0050: real time    0.0048
    EDDIAG:  cpu time    0.0720: real time    0.0719
  RMM-DIIS:  cpu time    0.3020: real time    0.3017
    ORTHCH:  cpu time    0.0080: real time    0.0077
       DOS:  cpu time    0.0000: real time    0.0001
    CHARGE:  cpu time    0.0260: real time    0.0263
    MIXING:  cpu time    0.0020: real time    0.0011
    --------------------------------------------
      LOOP:  cpu time    0.4489: real time    0.4562

 eigenvalue-minimisations  :   444
 total energy-change (2. order) : 0.9721075E+00  (-0.8143188E+00)
 number of electron     352.0000032 magnetization 
 augmentation part      -42.0782900 magnetization 

 Broyden mixing:
  rms(total) = 0.37135E+00    rms(broyden)= 0.37125E+00
  rms(prec ) = 0.45496E+00
  weight for this iteration     100.00

 eigenvalues of (default mixing * dielectric matrix)
  average eigenvalue GAMMA=   1.8515
  1.4426  2.2604

 Free energy of the ion-electron system (eV)
  ---------------------------------------------------
  alpha Z        PSCENC =       285.36422273
  Ewald energy   TEWEN  =    -11226.14841565
  -Hartree energ DENC   =     -3469.26888205
  -exchange      EXHF   =         0.00000000
  -V(xc)+E(xc)   XCENC  =       487.31473566
  PAW double counting   =      5777.51482041    -5391.91112616
  entropy T*S    EENTRO =        -0.00000000
  eigenvalues    EBANDS =     -1272.21564894
  atomic energy  EATOM  =     14440.52152418
  Solvation  Ediel_sol  =         0.00000000
  ---------------------------------------------------
  free energy    TOTEN  =      -368.82876982 eV

  energy without entropy =     -368.82876982  energy(sigma->0) =     -368.82876982


--------------------------------------------------------------------------------------------------------




----------------------------------------- Iteration    1(   8)  ---------------------------------------


    POTLOK:  cpu time    0.0330: real time    0.0334
    SETDIJ:  cpu time    0.0050: real time    0.0048
    EDDIAG:  cpu time    0.0710: real time    0.0714
  RMM-DIIS:  cpu time    0.3030: real time    0.3026
    ORTHCH:  cpu time    0.0070: real time    0.0076
       DOS:  cpu time    0.0020: real time    0.0002
    CHARGE:  cpu time    0.0250: real time    0.0261
    MIXING:  cpu time    0.0020: real time    0.0012
    --------------------------------------------
      LOOP:  cpu time    0.4489: real time    0.4581

 eigenvalue-minimisations  :   444
 total energy-change (2. order) :-0.5020379E-01  (-0.1083456E+00)
 number of electron     352.0000031 magnetization 
 augmentation part      -42.0355883 magnetization 

 Broyden mixing:
  rms(total) = 0.87171E-01    rms(broyden)= 0.87149E-01
  rms(prec ) = 0.12217E+00
  weight for this iteration     100.00

 eigenvalues of (default mixing * dielectric matrix)
  average eigenvalue GAMMA=   1.8803
  2.6150  1.5129  1.5129

 Free energy of the ion-electron system (eV)
  ---------------------------------------------------
  alpha Z        PSCENC =       285.36422273
  Ewald energy   TEWEN  =    -11226.14841565
  -Hartree energ DENC   =     -3493.54719242
  -exchange      EXHF   =         0.00000000
  -V(xc)+E(xc)   XCENC  =       490.77309230
  PAW double counting   =      5832.73141718    -5447.87859730
  entropy T*S    EENTRO =        -0.00000000
  eigenvalues    EBANDS =     -1250.69502462
  atomic energy  EATOM  =     14440.52152418
  Solvation  Ediel_sol  =         0.00000000
  ---------------------------------------------------
  free energy    TOTEN  =      -368.87897361 eV

  energy without entropy =     -368.87897361  energy(sigma->0) =     -368.87897361


--------------------------------------------------------------------------------------------------------




----------------------------------------- Iteration    1(   9)  ---------------------------------------


    POTLOK:  cpu time    0.0330: real time    0.0332
    SETDIJ:  cpu time    0.0050: real time    0.0048
    EDDIAG:  cpu time    0.0720: real time    0.0719
  RMM-DIIS:  cpu time    0.3050: real time    0.3042
    ORTHCH:  cpu time    0.0070: real time    0.0075
       DOS:  cpu time    0.0010: real time    0.0001
    CHARGE:  cpu time    0.0250: real time    0.0256
    MIXING:  cpu time    0.0010: real time    0.0012
    --------------------------------------------
      LOOP:  cpu time    0.4499: real time    0.4591

 eigenvalue-minimisations  :   447
 total energy-change (2. order) :-0.2483857E-01  (-0.1731128E-01)
 number of electron     352.0000031 magnetization 
 augmentation part      -42.0620663 magnetization 

 Broyden mixing:
  rms(total) = 0.35429E-01    rms(broyden)= 0.35420E-01
  rms(prec ) = 0.48507E-01
  weight for this iteration     100.00

 eigenvalues of (default mixing * dielectric matrix)
  average eigenvalue GAMMA=   1.7020
  1.1645  1.1645  2.3167  2.1623

 Free energy of the ion-electron system (eV)
  ---------------------------------------------------
  alpha Z        PSCENC =       285.36422273
  Ewald energy   TEWEN  =    -11226.14841565
  -Hartree energ DENC   =     -3494.97003527
  -exchange      EXHF   =         0.00000000
  -V(xc)+E(xc)   XCENC  =       491.62489626
  PAW double counting   =      5839.22894701    -5454.45545294
  entropy T*S    EENTRO =        -0.00000000
  eigenvalues    EBANDS =     -1250.06949849
  atomic energy  EATOM  =     14440.52152418
  Solvation  Ediel_sol  =         0.00000000
  ---------------------------------------------------
  free energy    TOTEN  =      -368.90381217 eV

  energy without entropy =     -368.90381217  energy(sigma->0) =     -368.90381217


--------------------------------------------------------------------------------------------------------




----------------------------------------- Iteration    1(  10)  ---------------------------------------


    POTLOK:  cpu time    0.0330: real time    0.0337
    SETDIJ:  cpu time    0.0050: real time    0.0049
    EDDIAG:  cpu time    0.0720: real time    0.0719
  RMM-DIIS:  cpu time    0.3090: real time    0.3087
    ORTHCH:  cpu time    0.0070: real time    0.0077
       DOS:  cpu time    0.0010: real time    0.0002
    CHARGE:  cpu time    0.0250: real time    0.0259
    MIXING:  cpu time    0.0020: real time    0.0013
    --------------------------------------------
      LOOP:  cpu time    0.4569: real time    0.4647

 eigenvalue-minimisations  :   463
 total energy-change (2. order) :-0.2720716E-03  (-0.2399392E-02)
 number of electron     352.0000031 magnetization 
 augmentation part      -42.0728584 magnetization 

 Broyden mixing:
  rms(total) = 0.14147E-01    rms(broyden)= 0.14144E-01
  rms(prec ) = 0.19846E-01
  weight for this iteration     100.00

 eigenvalues of (default mixing * dielectric matrix)
  average eigenvalue GAMMA=   1.9093
  2.7888  2.7888  1.5615  1.4575  0.9495

 Free energy of the ion-electron system (eV)
  ---------------------------------------------------
  alpha Z        PSCENC =       285.36422273
  Ewald energy   TEWEN  =    -11226.14841565
  -Hartree energ DENC   =     -3493.89671532
  -exchange      EXHF   =         0.00000000
  -V(xc)+E(xc)   XCENC  =       491.44772535
  PAW double counting   =      5827.71806050    -5442.81212864
  entropy T*S    EENTRO =        -0.00000000
  eigenvalues    EBANDS =     -1251.09835738
  atomic energy  EATOM  =     14440.52152418
  Solvation  Ediel_sol  =         0.00000000
  ---------------------------------------------------
  free energy    TOTEN  =      -368.90408424 eV

  energy without entropy =     -368.90408424  energy(sigma->0) =     -368.90408424


--------------------------------------------------------------------------------------------------------




----------------------------------------- Iteration    1(  11)  ---------------------------------------


    POTLOK:  cpu time    0.0330: real time    0.0334
    SETDIJ:  cpu time    0.0050: real time    0.0049
    EDDIAG:  cpu time    0.0710: real time    0.0713
  RMM-DIIS:  cpu time    0.3020: real time    0.3026
    ORTHCH:  cpu time    0.0070: real time    0.0075
       DOS:  cpu time    0.0010: real time    0.0001
    CHARGE:  cpu time    0.0250: real time    0.0260
    MIXING:  cpu time    0.0020: real time    0.0014
    --------------------------------------------
      LOOP:  cpu time    0.4469: real time    0.4580

 eigenvalue-minimisations  :   444
 total energy-change (2. order) :-0.3419546E-02  (-0.1215737E-02)
 number of electron     352.0000031 magnetization 
 augmentation part      -42.0661891 magnetization 

 Broyden mixing:
  rms(total) = 0.96254E-02    rms(broyden)= 0.96241E-02
  rms(prec ) = 0.16217E-01
  weight for this iteration     100.00

 eigenvalues of (default mixing * dielectric matrix)
  average eigenvalue GAMMA=   1.7403
  3.0188  2.5037  1.6810  1.0776  1.0804  1.0804

 Free energy of the ion-electron system (eV)
  ---------------------------------------------------
  alpha Z        PSCENC =       285.36422273
  Ewald energy   TEWEN  =    -11226.14841565
  -Hartree energ DENC   =     -3496.13900369
  -exchange      EXHF   =         0.00000000
  -V(xc)+E(xc)   XCENC  =       491.53172443
  PAW double counting   =      5824.94982334    -5440.01305341
  entropy T*S    EENTRO =        -0.00000000
  eigenvalues    EBANDS =     -1248.97432571
  atomic energy  EATOM  =     14440.52152418
  Solvation  Ediel_sol  =         0.00000000
  ---------------------------------------------------
  free energy    TOTEN  =      -368.90750379 eV

  energy without entropy =     -368.90750379  energy(sigma->0) =     -368.90750379


--------------------------------------------------------------------------------------------------------




----------------------------------------- Iteration    1(  12)  ---------------------------------------


    POTLOK:  cpu time    0.0330: real time    0.0333
    SETDIJ:  cpu time    0.0060: real time    0.0049
    EDDIAG:  cpu time    0.0710: real time    0.0716
  RMM-DIIS:  cpu time    0.2750: real time    0.2743
    ORTHCH:  cpu time    0.0070: real time    0.0077
       DOS:  cpu time    0.0010: real time    0.0002
    CHARGE:  cpu time    0.0250: real time    0.0259
    MIXING:  cpu time    0.0020: real time    0.0014
    --------------------------------------------
      LOOP:  cpu time    0.4209: real time    0.4300

 eigenvalue-minimisations  :   401
 total energy-change (2. order) : 0.6623186E-03  (-0.1774768E-03)
 number of electron     352.0000031 magnetization 
 augmentation part      -42.0672809 magnetization 

 Broyden mixing:
  rms(total) = 0.22315E-02    rms(broyden)= 0.22305E-02
  rms(prec ) = 0.33864E-02
  weight for this iteration     100.00

 eigenvalues of (default mixing * dielectric matrix)
  average eigenvalue GAMMA=   1.9048
  3.4067  2.5015  2.5015  1.6504  1.0131  1.1303  1.1303

 Free energy of the ion-electron system (eV)
  ---------------------------------------------------
  alpha Z        PSCENC =       285.36422273
  Ewald energy   TEWEN  =    -11226.14841565
  -Hartree energ DENC   =     -3496.18620807
  -exchange      EXHF   =         0.00000000
  -V(xc)+E(xc)   XCENC  =       491.57446537
  PAW double counting   =      5825.66329770    -5440.73401169
  entropy T*S    EENTRO =        -0.00000000
  eigenvalues    EBANDS =     -1248.96171603
  atomic energy  EATOM  =     14440.52152418
  Solvation  Ediel_sol  =         0.00000000
  ---------------------------------------------------
  free energy    TOTEN  =      -368.90684147 eV

  energy without entropy =     -368.90684147  energy(sigma->0) =     -368.90684147


--------------------------------------------------------------------------------------------------------




----------------------------------------- Iteration    1(  13)  ---------------------------------------


    POTLOK:  cpu time    0.0320: real time    0.0336
    SETDIJ:  cpu time    0.0060: real time    0.0048
    EDDIAG:  cpu time    0.0720: real time    0.0718
  RMM-DIIS:  cpu time    0.2080: real time    0.2082
    ORTHCH:  cpu time    0.0080: real time    0.0077
       DOS:  cpu time    0.0000: real time    0.0001
    --------------------------------------------
      LOOP:  cpu time    0.3280: real time    0.3364

 eigenvalue-minimisations  :   292
 total energy-change (2. order) :-0.5025750E-04  (-0.5153779E-04)
 number of electron     352.0000031 magnetization 
 augmentation part      -42.0672809 magnetization 

 Free energy of the ion-electron system (eV)
  ---------------------------------------------------
  alpha Z        PSCENC =       285.36422273
  Ewald energy   TEWEN  =    -11226.14841565
  -Hartree energ DENC   =     -3496.21739972
  -exchange      EXHF   =         0.00000000
  -V(xc)+E(xc)   XCENC  =       491.58469089
  PAW double counting   =      5825.71568150    -5440.78788255
  entropy T*S    EENTRO =        -0.00000000
  eigenvalues    EBANDS =     -1248.93931310
  atomic energy  EATOM  =     14440.52152418
  Solvation  Ediel_sol  =         0.00000000
  ---------------------------------------------------
  free energy    TOTEN  =      -368.90689173 eV

  energy without entropy =     -368.90689173  energy(sigma->0) =     -368.90689173


--------------------------------------------------------------------------------------------------------




 average (electrostatic) potential at core
  the test charge radii are     0.9748  0.9587  0.9698
  (the norm of the test charge is              1.0000)
       1 -27.4133       2 -27.4133       3 -27.4133       4 -27.4133       5 -27.3269
       6 -27.3269       7 -27.3269       8 -27.3269       9 -27.3437      10 -27.3437
      11 -27.3437      12 -27.3438      13 -27.4066      14 -27.4066      15 -27.4066
      16 -27.4066      17 -27.8911      18 -27.8911      19 -27.8911      20 -27.8911
      21 -27.6292      22 -27.6292      23 -27.6292      24 -27.6292      25 -27.4087
      26 -27.4087      27 -27.4087      28 -27.4087      29 -88.1548      30 -88.1547
      31 -88.1546      32 -88.1546      33 -88.3674      34 -88.3674      35 -88.3673
      36 -88.3673      37 -87.9922      38 -87.9922      39 -87.9922      40 -87.9922
      41 -88.6320      42 -88.6320      43 -88.6318      44 -88.6317      45 -88.5849
      46 -88.5849      47 -88.5850      48 -88.5850      49 -88.5166      50 -88.5166
      51 -88.5165      52 -88.5165      53 -89.7592      54 -89.7592      55 -89.7592
      56 -89.7591      57 -88.8790      58 -88.8791      59 -88.8789      60 -88.8790
      61 -88.7248      62 -88.7248      63 -88.7248      64 -88.7249      65 -88.8540
      66 -88.8541      67 -88.8540      68 -88.8541      69 -88.4292      70 -88.4294
      71 -88.4295      72 -88.4294      73 -88.3476      74 -88.3477      75 -88.3477
      76 -88.3477      77 -88.4360      78 -88.4361      79 -88.4360      80 -88.4360
      81 -88.4585      82 -88.4585      83 -88.4583      84 -88.4585
 
 
 
 E-fermi :   1.9632     XC(G=0):  -8.1276     alpha+bet : -8.9960


 k-point     1 :       0.0000    0.0000    0.0000
  band No.  band energies     occupation 
      1     -13.6323      2.00000
      2     -13.5851      2.00000
      3     -13.5833      2.00000
      4     -13.5668      2.00000
      5     -12.9735      2.00000
      6     -12.9714      2.00000
      7     -12.9386      2.00000
      8     -12.9378      2.00000
      9     -12.9372      2.00000
     10     -12.9166      2.00000
     11     -12.9147      2.00000
     12     -12.8767      2.00000
     13     -10.8479      2.00000
     14     -10.8394      2.00000
     15     -10.8372      2.00000
     16     -10.8077      2.00000
     17     -10.5231      2.00000
     18     -10.4850      2.00000
     19     -10.4431      2.00000
     20     -10.4414      2.00000
     21     -10.4309      2.00000
     22     -10.3968      2.00000
     23     -10.3089      2.00000
     24     -10.2834      2.00000
     25     -10.2636      2.00000
     26     -10.2370      2.00000
     27     -10.2226      2.00000
     28     -10.2219      2.00000
     29     -10.2168      2.00000
     30     -10.1763      2.00000
     31     -10.0740      2.00000
     32     -10.0696      2.00000
     33     -10.0211      2.00000
     34     -10.0118      2.00000
     35     -10.0105      2.00000
     36     -10.0085      2.00000
     37      -9.9701      2.00000
     38      -9.9625      2.00000
     39      -9.9613      2.00000
     40      -9.9472      2.00000
     41      -9.9386      2.00000
     42      -9.9350      2.00000
     43      -9.8681      2.00000
     44      -9.8403      2.00000
     45      -6.7638      2.00000
     46      -6.7489      2.00000
     47      -6.7359      2.00000
     48      -6.5517      2.00000
     49      -6.1693      2.00000
     50      -5.8016      2.00000
     51      -5.7072      2.00000
     52      -5.6929      2.00000
     53      -5.6921      2.00000
     54      -5.6783      2.00000
     55      -5.6074      2.00000
     56      -5.5221      2.00000
     57      -3.8897      2.00000
     58      -3.8389      2.00000
     59      -3.8235      2.00000
     60      -3.7035      2.00000
     61      -3.4372      2.00000
     62      -3.2636      2.00000
     63      -3.2417      2.00000
     64      -3.1925      2.00000
     65      -3.1879      2.00000
     66      -3.0869      2.00000
     67      -3.0570      2.00000
     68      -3.0042      2.00000
     69      -2.9745      2.00000
     70      -2.8771      2.00000
     71      -2.8613      2.00000
     72      -2.7750      2.00000
     73      -2.7686      2.00000
     74      -2.7593      2.00000
     75      -2.6752      2.00000
     76      -2.6729      2.00000
     77      -2.6575      2.00000
     78      -2.5841      2.00000
     79      -2.5542      2.00000
     80      -2.5162      2.00000
     81      -2.4687      2.00000
     82      -2.4311      2.00000
     83      -2.4138      2.00000
     84      -2.3767      2.00000
     85      -2.3607      2.00000
     86      -2.3001      2.00000
     87      -2.2664      2.00000
     88      -2.2127      2.00000
     89      -2.2090      2.00000
     90      -2.0777      2.00000
     91      -2.0295      2.00000
     92      -2.0284      2.00000
     93      -1.1107      2.00000
     94      -1.0407      2.00000
     95      -0.8542      2.00000
     96      -0.8237      2.00000
     97      -0.7552      2.00000
     98      -0.7229      2.00000
     99      -0.7119      2.00000
    100      -0.6468      2.00000
    101      -0.6450      2.00000
    102      -0.6411      2.00000
    103      -0.5824      2.00000
    104      -0.4731      2.00000
    105      -0.4593      2.00000
    106      -0.4331      2.00000
    107      -0.3953      2.00000
    108      -0.3502      2.00000
    109      -0.3092      2.00000
    110      -0.2954      2.00000
    111      -0.2821      2.00000
    112      -0.1611      2.00000
    113      -0.1585      2.00000
    114      -0.1543      2.00000
    115      -0.1112      2.00000
    116      -0.0619      2.00000
    117      -0.0610      2.00000
    118      -0.0330      2.00000
    119      -0.0226      2.00000
    120      -0.0120      2.00000
    121       0.0618      2.00000
    122       0.0644      2.00000
    123       0.1566      2.00000
    124       0.1988      2.00000
    125       0.2020      2.00000
    126       0.2060      2.00000
    127       0.2744      2.00000
    128       0.2900      2.00000
    129       0.2967      2.00000
    130       0.3230      2.00000
    131       0.3477      2.00000
    132       0.3939      2.00000
    133       0.3977      2.00000
    134       0.4271      2.00000
    135       0.4703      2.00000
    136       0.5005      2.00000
    137       0.5150      2.00000
    138       0.5374      2.00000
    139       0.5378      2.00000
    140       0.5856      2.00000
    141       0.5985      2.00000
    142       0.6143      2.00000
    143       0.6644      2.00000
    144       0.6764      2.00000
    145       0.7111      2.00000
    146       0.7443      2.00000
    147       0.7724      2.00000
    148       0.7922      2.00000
    149       0.8030      2.00000
    150       0.8382      2.00000
    151       0.8948      2.00000
    152       0.9066      2.00000
    153       0.9586      2.00000
    154       1.0030      2.00000
    155       1.0237      2.00000
    156       1.0373      2.00000
    157       1.0383      2.00000
    158       1.0861      2.00000
    159       1.1006      2.00000
    160       1.1009      2.00000
    161       1.1267      2.00000
    162       1.1943      2.00000
    163       1.2085      2.00000
    164       1.2332      2.00000
    165       1.2863      2.00000
    166       1.3100      2.00000
    167       1.3363      2.00000
    168       1.3524      2.00000
    169       1.3867      2.00000
    170       1.4055      2.00000
    171       1.4504      2.00000
    172       1.5488      2.00000
    173       1.5593      2.00000
    174       1.5757      2.00000
    175       1.6849      2.00000
    176       1.7122      2.00000
    177       4.2293      0.00000
    178       4.2506      0.00000
    179       4.3824      0.00000
    180       4.5776      0.00000
    181       4.6060      0.00000
    182       4.6151      0.00000
    183       4.6430      0.00000
    184       4.9138      0.00000
    185       4.9460      0.00000
    186       5.0173      0.00000
    187       5.0378      0.00000
    188       5.1955      0.00000
    189       5.2199      0.00000
    190       5.2200      0.00000
    191       5.3500      0.00000
    192       5.3585      0.00000
    193       5.3587      0.00000
    194       5.6048      0.00000
    195       5.6115      0.00000
    196       5.6362      0.00000
    197       5.6985      0.00000
    198       5.8132      0.00000
    199       5.8348      0.00000
    200       5.8511      0.00000
    201       5.9581      0.00000
    202       5.9588      0.00000
    203       5.9774      0.00000
    204       6.0008      0.00000
    205       6.0104      0.00000
    206       6.1418      0.00000
    207       6.1530      0.00000
    208       6.2116      0.00000
    209       6.2525      0.00000
    210       6.2735      0.00000
    211       6.4453      0.00000
    212       6.4580      0.00000
    213       6.4990      0.00000
    214       6.5590      0.00000
    215       6.5747      0.00000
    216       6.6476      0.00000
    217       6.6566      0.00000
    218       6.8404      0.00000
    219       6.8545      0.00000
    220       6.9935      0.00000
    221       7.0219      0.00000
    222       7.0663      0.00000


--------------------------------------------------------------------------------------------------------


 soft charge-density along one line, spin component           1
         0         1         2         3         4         5         6         7         8         9
 total charge-density along one line
 
 pseudopotential strength for first ion, spin component:           1
  1.166  -0.036   0.002  -0.000   0.002
 -0.036  -0.055  -0.000   0.000  -0.001
  0.002  -0.000  -0.398  -0.000  -0.000
 -0.000   0.000  -0.000  -0.398  -0.000
  0.002  -0.001  -0.000  -0.000  -0.398
 total augmentation occupancy for first ion, spin component:           1
  0.568  -0.062  -0.029  -0.000  -0.030
 -0.062   0.007   0.004  -0.000   0.004
 -0.029   0.004   0.047   0.000  -0.003
 -0.000  -0.000   0.000   0.057  -0.016
 -0.030   0.004  -0.003  -0.016   0.072


------------------------ aborting loop because EDIFF is reached ----------------------------------------


 


 total charge     
 
# of ion     s       p       d       tot
----------------------------------------
  1        0.070   0.127   0.000   0.197
  2        0.070   0.127   0.000   0.197
  3        0.070   0.127   0.000   0.197
  4        0.070   0.127   0.000   0.197
  5        0.082   0.149   0.000   0.232
  6        0.082   0.149   0.000   0.232
  7        0.082   0.149   0.000   0.232
  8        0.082   0.149   0.000   0.232
  9        0.077   0.136   0.000   0.213
 10        0.077   0.136   0.000   0.213
 11        0.077   0.136   0.000   0.213
 12        0.077   0.136   0.000   0.213
 13        0.074   0.129   0.000   0.203
 14        0.074   0.129   0.000   0.203
 15        0.074   0.129   0.000   0.203
 16        0.074   0.129   0.000   0.203
 17        0.069   0.115   0.000   0.184
 18        0.069   0.115   0.000   0.184
 19        0.069   0.115   0.000   0.184
 20        0.069   0.115   0.000   0.184
 21        0.079   0.135   0.000   0.214
 22        0.079   0.135   0.000   0.214
 23        0.079   0.135   0.000   0.214
 24        0.079   0.135   0.000   0.214
 25        0.076   0.131   0.000   0.207
 26        0.076   0.131   0.000   0.207
 27        0.076   0.131   0.000   0.207
 28        0.076   0.131   0.000   0.207
 29        0.980   1.382   0.000   2.362
 30        0.980   1.382   0.000   2.362
 31        0.980   1.382   0.000   2.362
 32        0.980   1.382   0.000   2.362
 33        0.980   1.380   0.000   2.360
 34        0.980   1.380   0.000   2.360
 35        0.980   1.380   0.000   2.359
 36        0.980   1.380   0.000   2.359
 37        0.972   1.378   0.000   2.350
 38        0.972   1.378   0.000   2.350
 39        0.972   1.378   0.000   2.350
 40        0.972   1.378   0.000   2.350
 41        1.343   2.423   0.000   3.766
 42        1.343   2.423   0.000   3.766
 43        1.343   2.423   0.000   3.766
 44        1.343   2.423   0.000   3.766
 45        1.337   2.449   0.000   3.786
 46        1.337   2.449   0.000   3.786
 47        1.337   2.449   0.000   3.786
 48        1.337   2.449   0.000   3.786
 49        1.349   2.428   0.000   3.777
 50        1.349   2.428   0.000   3.777
 51        1.349   2.428   0.000   3.777
 52        1.349   2.428   0.000   3.777
 53        1.366   2.351   0.000   3.716
 54        1.366   2.351   0.000   3.716
 55        1.366   2.351   0.000   3.716
 56        1.366   2.351   0.000   3.716
 57        1.340   2.427   0.000   3.768
 58        1.340   2.427   0.000   3.768
 59        1.340   2.427   0.000   3.768
 60        1.340   2.427   0.000   3.768
 61        1.339   2.435   0.000   3.774
 62        1.339   2.435   0.000   3.774
 63        1.339   2.435   0.000   3.774
 64        1.339   2.435   0.000   3.774
 65        1.339   2.438   0.000   3.777
 66        1.339   2.438   0.000   3.777
 67        1.339   2.438   0.000   3.777
 68        1.339   2.438   0.000   3.777
 69        1.334   2.443   0.000   3.776
 70        1.334   2.443   0.000   3.776
 71        1.334   2.443   0.000   3.776
 72        1.334   2.443   0.000   3.776
 73        1.337   2.453   0.000   3.789
 74        1.337   2.453   0.000   3.789
 75        1.337   2.453   0.000   3.789
 76        1.337   2.453   0.000   3.789
 77        1.343   2.434   0.000   3.777
 78        1.343   2.434   0.000   3.777
 79        1.343   2.434   0.000   3.777
 80        1.343   2.434   0.000   3.777
 81        1.339   2.431   0.000   3.769
 82        1.339   2.431   0.000   3.769
 83        1.339   2.431   0.000   3.769
 84        1.339   2.431   0.000   3.769
------------------------------------------------
tot       72.901 127.084   0.000 199.985
 
    CHARGE:  cpu time    0.0240: real time    0.0242
    FORLOC:  cpu time    0.0210: real time    0.0211
    FORNL :  cpu time    0.1590: real time    0.1588
    FORCOR:  cpu time    0.0550: real time    0.0547
    FORHAR:  cpu time    0.0280: real time    0.0280
    MIXING:  cpu time    0.0010: real time    0.0015
    OFIELD:  cpu time    0.0000: real time    0.0001

 VOLUME and BASIS-vectors are now :
 -----------------------------------------------------------------------------
  energy-cutoff  :      280.00
  volume of cell :     1752.71
      direct lattice vectors                 reciprocal lattice vectors
    11.797205000  0.043027000 -5.073975000     0.085092123 -0.017426779  0.000610842
     2.441136000 11.820736000 -2.822486000    -0.000015140  0.084763451  0.000683589
    -0.111630000 -0.101968000 12.641328000     0.034150888  0.011930757  0.079503421

  length of vectors
    12.842161790 12.395780402 12.642232095     0.086860435  0.084766209  0.087346551


 FORCES acting on ions
    electron-ion (+dipol)            ewald-force                    non-local-force                 convergence-correction
 -----------------------------------------------------------------------------------------------
   -.561E+01 -.467E+01 0.995E+00   0.519E+01 0.429E+01 -.979E+00   0.396E+00 0.373E+00 0.695E-02   0.110E-03 0.127E-04 -.352E-04
   -.561E+01 -.467E+01 0.995E+00   0.519E+01 0.429E+01 -.979E+00   0.396E+00 0.373E+00 0.694E-02   0.993E-04 0.525E-04 -.337E-04
   0.561E+01 0.467E+01 -.995E+00   -.519E+01 -.429E+01 0.979E+00   -.396E+00 -.373E+00 -.695E-02   -.139E-03 -.899E-05 0.457E-04
   0.561E+01 0.467E+01 -.995E+00   -.519E+01 -.429E+01 0.979E+00   -.396E+00 -.373E+00 -.694E-02   -.129E-03 -.433E-04 0.432E-04
   -.478E+01 0.141E+01 0.817E+00   0.456E+01 -.153E+01 -.106E+01   0.226E+00 0.131E+00 0.276E+00   -.389E-05 -.265E-03 -.977E-04
   -.479E+01 0.141E+01 0.817E+00   0.456E+01 -.153E+01 -.106E+01   0.226E+00 0.131E+00 0.276E+00   -.845E-05 -.280E-03 -.103E-03
   0.479E+01 -.141E+01 -.817E+00   -.456E+01 0.153E+01 0.106E+01   -.226E+00 -.131E+00 -.276E+00   -.173E-04 0.287E-03 0.112E-03
   0.479E+01 -.141E+01 -.817E+00   -.456E+01 0.153E+01 0.106E+01   -.226E+00 -.131E+00 -.276E+00   0.184E-06 0.281E-03 0.107E-03
   -.380E+01 -.350E+01 -.447E+01   0.377E+01 0.336E+01 0.453E+01   0.288E-01 0.144E+00 -.992E-02   0.448E-03 -.689E-04 0.297E-03
   -.380E+01 -.350E+01 -.447E+01   0.377E+01 0.336E+01 0.453E+01   0.288E-01 0.144E+00 -.995E-02   0.440E-03 -.784E-04 0.291E-03
   0.380E+01 0.350E+01 0.447E+01   -.377E+01 -.336E+01 -.453E+01   -.288E-01 -.144E+00 0.995E-02   -.461E-03 0.887E-04 -.269E-03
   0.380E+01 0.350E+01 0.447E+01   -.377E+01 -.336E+01 -.453E+01   -.288E-01 -.144E+00 0.995E-02   -.460E-03 0.991E-04 -.253E-03
   0.534E+01 -.112E+00 -.516E+00   -.496E+01 0.196E+00 0.463E+00   -.386E+00 -.638E-01 0.108E+00   -.267E-03 0.308E-03 -.194E-03
   0.534E+01 -.112E+00 -.516E+00   -.496E+01 0.196E+00 0.463E+00   -.386E+00 -.638E-01 0.108E+00   -.287E-03 0.285E-03 -.187E-03
   -.534E+01 0.112E+00 0.516E+00   0.496E+01 -.196E+00 -.463E+00   0.386E+00 0.638E-01 -.108E+00   0.269E-03 -.320E-03 0.176E-03
   -.534E+01 0.112E+00 0.516E+00   0.496E+01 -.196E+00 -.463E+00   0.386E+00 0.638E-01 -.108E+00   0.262E-03 -.290E-03 0.180E-03
   -.244E+01 0.276E+01 -.139E+01   0.261E+01 -.258E+01 0.152E+01   -.151E+00 -.215E+00 -.996E-01   0.859E-03 0.464E-03 0.373E-04
   -.244E+01 0.276E+01 -.139E+01   0.261E+01 -.258E+01 0.152E+01   -.151E+00 -.215E+00 -.997E-01   0.872E-03 0.440E-03 0.342E-04
   0.244E+01 -.276E+01 0.139E+01   -.261E+01 0.258E+01 -.152E+01   0.151E+00 0.215E+00 0.997E-01   -.839E-03 -.471E-03 -.102E-03
   0.244E+01 -.276E+01 0.139E+01   -.261E+01 0.258E+01 -.152E+01   0.151E+00 0.215E+00 0.997E-01   -.824E-03 -.446E-03 -.829E-04
   -.103E+01 -.501E+01 0.342E+01   0.526E+00 0.483E+01 -.327E+01   0.540E+00 0.242E+00 -.132E+00   -.782E-03 0.689E-03 -.312E-03
   -.103E+01 -.501E+01 0.342E+01   0.526E+00 0.483E+01 -.327E+01   0.540E+00 0.242E+00 -.132E+00   -.768E-03 0.670E-03 -.316E-03
   0.103E+01 0.501E+01 -.342E+01   -.526E+00 -.483E+01 0.327E+01   -.540E+00 -.242E+00 0.132E+00   0.807E-03 -.701E-03 0.300E-03
   0.103E+01 0.501E+01 -.342E+01   -.526E+00 -.483E+01 0.327E+01   -.540E+00 -.242E+00 0.132E+00   0.806E-03 -.687E-03 0.300E-03
   -.284E+01 -.947E+00 0.457E+01   0.289E+01 0.961E+00 -.407E+01   -.544E-01 0.444E-01 -.512E+00   -.916E-04 -.518E-03 -.389E-03
   -.284E+01 -.947E+00 0.457E+01   0.289E+01 0.961E+00 -.407E+01   -.544E-01 0.444E-01 -.512E+00   -.938E-04 -.523E-03 -.381E-03
   0.284E+01 0.947E+00 -.457E+01   -.289E+01 -.961E+00 0.407E+01   0.543E-01 -.444E-01 0.512E+00   0.116E-03 0.530E-03 0.353E-03
   0.284E+01 0.947E+00 -.457E+01   -.289E+01 -.961E+00 0.407E+01   0.544E-01 -.444E-01 0.512E+00   0.103E-03 0.486E-03 0.342E-03
   0.275E+02 -.995E+01 -.480E+01   -.300E+02 0.118E+02 0.498E+01   0.256E+01 -.196E+01 -.150E+00   -.443E-02 0.175E-02 0.106E-02
   0.275E+02 -.995E+01 -.480E+01   -.300E+02 0.118E+02 0.498E+01   0.256E+01 -.196E+01 -.150E+00   -.438E-02 0.200E-02 0.101E-02
   -.275E+02 0.995E+01 0.480E+01   0.300E+02 -.118E+02 -.498E+01   -.256E+01 0.196E+01 0.149E+00   0.434E-02 -.159E-02 -.692E-03
   -.275E+02 0.995E+01 0.480E+01   0.300E+02 -.118E+02 -.498E+01   -.256E+01 0.196E+01 0.149E+00   0.433E-02 -.171E-02 -.665E-03
   -.122E+02 -.942E+01 -.127E+02   0.133E+02 0.956E+01 0.138E+02   -.111E+01 -.196E+00 -.103E+01   0.204E-02 -.490E-03 0.228E-02
   -.122E+02 -.942E+01 -.127E+02   0.133E+02 0.956E+01 0.138E+02   -.111E+01 -.196E+00 -.103E+01   0.204E-02 -.258E-03 0.217E-02
   0.122E+02 0.942E+01 0.127E+02   -.133E+02 -.956E+01 -.138E+02   0.111E+01 0.196E+00 0.103E+01   -.213E-02 0.441E-03 -.225E-02
   0.122E+02 0.942E+01 0.127E+02   -.133E+02 -.956E+01 -.138E+02   0.111E+01 0.196E+00 0.103E+01   -.213E-02 0.293E-03 -.220E-02
   0.159E+02 0.754E+00 -.104E+02   -.158E+02 -.594E+00 0.985E+01   -.194E+00 -.187E+00 0.647E+00   -.525E-03 -.128E-02 -.745E-03
   0.159E+02 0.754E+00 -.104E+02   -.158E+02 -.594E+00 0.985E+01   -.194E+00 -.187E+00 0.647E+00   -.484E-03 -.117E-02 -.967E-03
   -.159E+02 -.753E+00 0.104E+02   0.158E+02 0.594E+00 -.985E+01   0.194E+00 0.187E+00 -.647E+00   0.530E-03 0.130E-02 0.960E-03
   -.159E+02 -.753E+00 0.104E+02   0.158E+02 0.594E+00 -.985E+01   0.194E+00 0.187E+00 -.647E+00   0.509E-03 0.112E-02 0.894E-03
   0.720E+02 0.478E+02 0.637E+02   -.732E+02 -.502E+02 -.648E+02   0.123E+01 0.255E+01 0.111E+01   -.109E-01 -.132E-01 -.105E-01
   0.720E+02 0.478E+02 0.637E+02   -.732E+02 -.502E+02 -.648E+02   0.123E+01 0.255E+01 0.111E+01   -.107E-01 -.131E-01 -.104E-01
   -.720E+02 -.478E+02 -.637E+02   0.732E+02 0.502E+02 0.648E+02   -.123E+01 -.255E+01 -.110E+01   0.108E-01 0.135E-01 0.105E-01
   -.720E+02 -.478E+02 -.637E+02   0.732E+02 0.502E+02 0.648E+02   -.123E+01 -.255E+01 -.110E+01   0.109E-01 0.136E-01 0.109E-01
   0.421E+02 0.535E+01 -.753E+02   -.428E+02 -.532E+01 0.785E+02   0.716E+00 -.784E-01 -.323E+01   -.456E-02 -.124E-02 0.126E-01
   0.421E+02 0.535E+01 -.753E+02   -.428E+02 -.532E+01 0.785E+02   0.716E+00 -.784E-01 -.323E+01   -.465E-02 -.707E-03 0.128E-01
   -.421E+02 -.535E+01 0.753E+02   0.428E+02 0.532E+01 -.785E+02   -.717E+00 0.780E-01 0.323E+01   0.453E-02 0.127E-02 -.120E-01
   -.421E+02 -.535E+01 0.753E+02   0.428E+02 0.532E+01 -.785E+02   -.716E+00 0.782E-01 0.323E+01   0.453E-02 0.107E-02 -.125E-01
   0.477E+02 -.978E+02 0.268E+02   -.486E+02 0.997E+02 -.285E+02   0.812E+00 -.193E+01 0.160E+01   -.196E-02 0.166E-01 -.222E-02
   0.477E+02 -.978E+02 0.268E+02   -.486E+02 0.997E+02 -.285E+02   0.812E+00 -.193E+01 0.160E+01   -.182E-02 0.162E-01 -.223E-02
   -.477E+02 0.978E+02 -.268E+02   0.486E+02 -.997E+02 0.285E+02   -.811E+00 0.193E+01 -.160E+01   0.197E-02 -.169E-01 0.277E-02
   -.477E+02 0.978E+02 -.268E+02   0.486E+02 -.997E+02 0.285E+02   -.811E+00 0.193E+01 -.160E+01   0.169E-02 -.164E-01 0.262E-02
[...]
   -.724E+02 -.480E+02 -.643E+02   0.736E+02 0.505E+02 0.654E+02   -.118E+01 -.249E+01 -.104E+01   0.129E-03 -.787E-03 -.330E-03
   0.422E+02 0.525E+01 -.756E+02   -.428E+02 -.522E+01 0.788E+02   0.675E+00 -.724E-01 -.319E+01   0.514E-03 -.738E-03 -.283E-03
   0.421E+02 0.501E+01 -.748E+02   -.428E+02 -.498E+01 0.781E+02   0.705E+00 -.620E-01 -.330E+01   0.289E-03 -.297E-03 -.274E-03
   -.422E+02 -.519E+01 0.758E+02   0.429E+02 0.515E+01 -.790E+02   -.704E+00 0.917E-01 0.318E+01   0.247E-03 0.752E-03 0.318E-03
   -.422E+02 -.487E+01 0.756E+02   0.429E+02 0.486E+01 -.788E+02   -.671E+00 -.129E-01 0.318E+01   0.366E-03 0.542E-03 -.306E-03
   0.477E+02 -.969E+02 0.267E+02   -.485E+02 0.989E+02 -.283E+02   0.832E+00 -.207E+01 0.163E+01   -.495E-03 0.101E-02 0.309E-03
   0.479E+02 -.974E+02 0.268E+02   -.487E+02 0.994E+02 -.284E+02   0.863E+00 -.197E+01 0.166E+01   -.316E-03 0.158E-03 -.125E-03
   -.477E+02 0.967E+02 -.265E+02   0.486E+02 -.987E+02 0.282E+02   -.858E+00 0.210E+01 -.166E+01   0.177E-03 0.372E-03 -.353E-03
   -.477E+02 0.977E+02 -.268E+02   0.485E+02 -.997E+02 0.285E+02   -.858E+00 0.195E+01 -.161E+01   0.534E-03 -.651E-03 -.479E-03
   -.656E+01 0.596E+02 0.528E+02   0.662E+01 -.639E+02 -.565E+02   -.279E-01 0.431E+01 0.370E+01   -.104E-02 -.229E-03 -.306E-03
   -.613E+01 0.593E+02 0.530E+02   0.617E+01 -.636E+02 -.566E+02   -.387E-01 0.429E+01 0.367E+01   -.103E-02 -.428E-03 0.592E-03
   0.571E+01 -.594E+02 -.529E+02   -.573E+01 0.637E+02 0.566E+02   0.290E-01 -.429E+01 -.365E+01   0.795E-03 0.103E-02 0.687E-04
   0.594E+01 -.595E+02 -.532E+02   -.599E+01 0.639E+02 0.568E+02   0.470E-01 -.431E+01 -.365E+01   0.113E-02 -.208E-03 0.435E-03
   -.908E+02 0.451E+02 0.325E+02   0.930E+02 -.467E+02 -.339E+02   -.220E+01 0.170E+01 0.143E+01   0.509E-03 0.318E-03 -.468E-03
   -.911E+02 0.453E+02 0.321E+02   0.933E+02 -.469E+02 -.336E+02   -.219E+01 0.170E+01 0.141E+01   -.121E-03 -.579E-03 0.458E-03
   0.918E+02 -.455E+02 -.328E+02   -.940E+02 0.471E+02 0.342E+02   0.211E+01 -.162E+01 -.138E+01   -.129E-02 0.152E-02 0.203E-03
   0.911E+02 -.451E+02 -.321E+02   -.933E+02 0.468E+02 0.335E+02   0.220E+01 -.168E+01 -.144E+01   -.221E-03 -.493E-03 0.582E-03
   0.510E+01 0.588E+01 -.103E+03   -.482E+01 -.623E+01 0.106E+03   -.268E+00 0.373E+00 -.318E+01   0.148E-03 -.252E-03 -.736E-03
   0.455E+01 0.552E+01 -.102E+03   -.426E+01 -.584E+01 0.106E+03   -.249E+00 0.309E+00 -.320E+01   -.258E-03 -.422E-03 -.172E-02
   -.518E+01 -.498E+01 0.102E+03   0.490E+01 0.529E+01 -.106E+03   0.265E+00 -.321E+00 0.323E+01   -.472E-03 -.116E-04 0.166E-02
   -.483E+01 -.574E+01 0.103E+03   0.455E+01 0.604E+01 -.106E+03   0.255E+00 -.288E+00 0.313E+01   -.403E-03 -.596E-03 0.556E-03
   -.786E+01 -.909E+02 0.100E+02   0.720E+01 0.938E+02 -.107E+02   0.677E+00 -.295E+01 0.652E+00   0.105E-05 0.935E-03 -.287E-03
   -.735E+01 -.904E+02 0.101E+02   0.670E+01 0.934E+02 -.108E+02   0.658E+00 -.297E+01 0.701E+00   -.258E-03 0.169E-02 -.399E-03
   0.773E+01 0.905E+02 -.100E+02   -.707E+01 -.934E+02 0.107E+02   -.678E+00 0.295E+01 -.685E+00   -.412E-03 -.162E-02 0.712E-03
   0.761E+01 0.902E+02 -.974E+01   -.694E+01 -.932E+02 0.104E+02   -.672E+00 0.303E+01 -.715E+00   0.162E-03 -.168E-03 0.390E-03
   0.210E+02 0.955E+00 -.936E+02   -.217E+02 -.127E+01 0.967E+02   0.668E+00 0.290E+00 -.301E+01   0.248E-03 0.247E-03 0.526E-03
   0.209E+02 0.121E+01 -.934E+02   -.215E+02 -.150E+01 0.965E+02   0.672E+00 0.280E+00 -.308E+01   0.344E-03 0.718E-03 -.763E-03
   -.207E+02 -.103E+01 0.940E+02   0.213E+02 0.137E+01 -.971E+02   -.597E+00 -.323E+00 0.299E+01   -.731E-03 0.352E-03 0.583E-03
   -.211E+02 -.173E+01 0.936E+02   0.217E+02 0.206E+01 -.966E+02   -.668E+00 -.299E+00 0.305E+01   -.681E-03 -.291E-03 0.185E-03
   0.789E+01 -.926E+02 0.546E+01   -.728E+01 0.955E+02 -.592E+01   -.648E+00 -.290E+01 0.469E+00   0.400E-03 0.761E-03 -.444E-03
   0.770E+01 -.924E+02 0.532E+01   -.708E+01 0.954E+02 -.579E+01   -.655E+00 -.294E+01 0.529E+00   0.366E-03 -.518E-03 -.933E-03
   -.777E+01 0.931E+02 -.567E+01   0.716E+01 -.960E+02 0.612E+01   0.646E+00 0.283E+01 -.464E+00   -.164E-03 -.140E-02 0.628E-03
   -.733E+01 0.931E+02 -.536E+01   0.671E+01 -.959E+02 0.582E+01   0.652E+00 0.288E+01 -.517E+00   0.115E-03 0.330E-04 0.711E-03
   -.796E+02 0.569E+02 0.433E+02   0.811E+02 -.581E+02 -.444E+02   -.156E+01 0.113E+01 0.114E+01   -.470E-03 0.318E-03 -.311E-03
   -.788E+02 0.568E+02 0.426E+02   0.803E+02 -.580E+02 -.438E+02   -.161E+01 0.117E+01 0.119E+01   -.544E-03 -.370E-03 -.859E-03
   0.793E+02 -.566E+02 -.428E+02   -.809E+02 0.578E+02 0.439E+02   0.162E+01 -.114E+01 -.115E+01   0.100E-02 -.451E-04 -.295E-03
   0.792E+02 -.573E+02 -.428E+02   -.807E+02 0.585E+02 0.439E+02   0.157E+01 -.117E+01 -.118E+01   0.567E-03 0.143E-03 0.236E-03
   0.913E+02 0.193E+02 0.441E+02   -.933E+02 -.192E+02 -.461E+02   0.196E+01 -.589E-01 0.207E+01   0.374E-03 -.120E-03 -.412E-03
   0.904E+02 0.189E+02 0.438E+02   -.924E+02 -.189E+02 -.458E+02   0.207E+01 -.168E-01 0.208E+01   0.634E-03 -.292E-03 -.391E-03
   -.911E+02 -.194E+02 -.443E+02   0.932E+02 0.193E+02 0.463E+02   -.193E+01 0.577E-01 -.205E+01   0.647E-03 0.109E-02 0.625E-03
   -.908E+02 -.194E+02 -.436E+02   0.928E+02 0.194E+02 0.457E+02   -.200E+01 0.202E-01 -.211E+01   -.909E-03 0.161E-03 0.684E-03
 -----------------------------------------------------------------------------------------------
   0.209E-01 0.936E-01 -.110E+00   0.156E-12 0.462E-13 -.419E-12   -.222E-01 -.954E-01 0.112E+00   -.353E-03 0.233E-02 0.126E-02
 
 
 POSITION                                       TOTAL-FORCE (eV/Angst)
 -----------------------------------------------------------------------------------
      4.92486      5.45932      8.32334        -0.010827     -0.016992      0.025899
      6.15285     11.35850      6.91705        -0.033486     -0.006846      0.024338
      7.97573      0.40862     -2.16973         0.032142      0.000056     -0.026152
      9.20275      6.31410     -3.58149         0.014078      0.004788     -0.017526
      5.09476      2.80175     -1.21873        -0.003330      0.017162      0.009327
      6.31986      8.72289     -2.63138        -0.001261     -0.010771      0.008547
      7.81955      3.04773      7.37046        -0.004538     -0.022251     -0.004288
      9.02729      8.95050      5.96289         0.009865      0.006357     -0.001106
     10.28208      2.83428     -1.11323         0.000620      0.002658      0.025043
     11.50521      8.72925     -2.52160         0.009945      0.033252      0.029212
      2.61619      3.01207      7.27044         0.006903      0.017135     -0.016746
      3.84581      8.93016      5.85273        -0.014618     -0.006472     -0.025817
      0.52190      0.94876      9.13869        -0.013480      0.029289      0.043868
      1.74314      6.86168      7.73150        -0.013118      0.017003      0.025995
     12.39534      4.89458     -2.99224        -0.019559      0.012503     -0.028075
     13.60494     10.81969     -4.39285         0.016719     -0.041666     -0.032869
      8.38395      1.71063      4.74138        -0.005159     -0.034047      0.058170
      9.60531      7.61320      3.35374         0.021673     -0.038244      0.009305
      4.51263      4.13011      1.39787         0.003895      0.044913     -0.027578
      5.75235     10.03251     -0.00656        -0.027996      0.032545     -0.019867
      4.36285      1.66935      4.27234         0.030804      0.068815      0.007615
      5.58742      7.59015      2.85820         0.018537      0.062214      0.006182
      8.53611      4.16975      1.88234        -0.012866     -0.061298     -0.004202
      9.75104     10.09660      0.46633         0.001037     -0.068361      0.013791
     10.95652      4.18205      5.69054         0.007084      0.029347     -0.023351
     12.19399     10.09003      4.27685        -0.018840      0.039249      0.003597
      1.94003      1.68062      0.45974         0.000074     -0.043116      0.019913
      3.15935      7.59145     -0.95571         0.000581     -0.040072      0.026898
      3.62007      5.60241      4.48245         0.039516      0.006302     -0.023327
      4.83679     11.51357      3.07199         0.004764      0.016490      0.015425
      9.28886      0.24813      1.67505        -0.036860     -0.013153     -0.023181
     10.51049      6.15948      0.26199        -0.042246     -0.073063      0.003933
      7.28478      5.64909      5.11879         0.003885     -0.068478     -0.059062
      8.50319     11.55427      3.70457         0.047092     -0.023642     -0.006281
      5.62140      0.21094      1.04147         0.000980     -0.067416     -0.039715
      6.84402      6.11312     -0.37186        -0.032418      0.043215      0.045767
      2.73169      4.08787     10.09215        -0.000555      0.022517     -0.100362
      3.95260      9.99953      8.68130        -0.023918     -0.063190     -0.075274
     10.18008      1.76227     -3.93476        -0.098637      0.025200      0.072850
     11.39469      7.67050     -5.34788         0.018491      0.097827      0.081142
      2.76662      4.27104      3.19692         0.001030      0.005535      0.002006
      3.98985     10.17623      1.78506         0.000214      0.068672      0.024299
     10.13363      1.58150      2.96122         0.034122     -0.010640      0.017694
     11.36113      7.49201      1.54338         0.008181     -0.018472      0.041536
      3.19103      5.32230      6.43726        -0.010613     -0.044018      0.021173
      4.40527     11.23429      5.03097         0.018601     -0.037126     -0.049399
      9.72358      0.53053     -0.27790        -0.015375      0.055616     -0.030791
     10.93945      6.44607     -1.69230         0.020049     -0.022558     -0.030775
      2.21376      1.61068      5.32241        -0.007272     -0.063933     -0.013640
      3.43438      7.51492      3.90373         0.005750      0.011150      0.005459
     10.69091      4.24019      0.83498        -0.004334      0.074430     -0.010364
     11.91184     10.15565     -0.57646        -0.013665     -0.019637      0.025798
      5.61155      4.80406      4.02819         0.024546      0.002146      0.080459
      6.82846     10.71722      2.61991         0.006719     -0.035835      0.043341
      7.29421      1.04752      2.12509         0.013294      0.027080     -0.050542
      8.51709      6.95354      0.71165        -0.007070      0.035628     -0.024495
      8.74305      4.46353      4.29632        -0.005765      0.052324     -0.006175
      9.95897     10.36466      2.88622        -0.013621      0.047135     -0.011234
      4.16764      1.39513      1.85534        -0.060343      0.007523      0.043715
      5.38899      7.30331      0.44814        -0.004299     -0.041653     -0.006253
      7.13321      5.37975      7.11420         0.012879      0.027089      0.021389
      8.34658     11.29375      5.70161         0.040069     -0.009090      0.020845
      5.77415      0.46618     -0.95837        -0.016760     -0.008517      0.009845
      6.99809      6.37461     -2.36608        -0.024769      0.012655     -0.067149
      6.18122      1.70096      5.96672         0.010894     -0.000056     -0.018654
      7.39855      7.61716      4.55559         0.007506     -0.023414      0.007112
      6.72287      4.14650      0.19115        -0.016552     -0.002833      0.006478
      7.94424     10.05982     -1.21777        -0.002257      0.053997     -0.021476
      2.85654      3.81380     -0.53569         0.034745     -0.024487      0.066855
      4.08150      9.72353     -1.94429         0.041576     -0.018325      0.015201
     10.04288      2.04234      6.69404        -0.009841      0.019321     -0.076020
     11.26743      7.94846      5.27862        -0.031227      0.032330     -0.032946
      1.75500      0.19860     11.16218        -0.034580     -0.007553      0.010466
      2.97520      6.11036      9.74375        -0.038165     -0.032122      0.058436
     11.15245      5.65374     -5.00598         0.033853     -0.046087     -0.013565
     12.37668     11.56385     -6.41070         0.034110     -0.006075     -0.050787
      4.29852      3.11867      9.14989        -0.049964     -0.045206      0.022919
      5.51888      9.02509      7.73302        -0.088057     -0.017113      0.062470
      8.60631      2.73051     -2.99251         0.091634      0.040960     -0.035646
      9.82774      8.64271     -4.40132         0.063496      0.030572     -0.054984
      0.99364      3.47415      9.16534        -0.069572     -0.025923      0.012862
      2.20965      9.38276      7.75483         0.014398     -0.000590      0.020347
     11.91439      2.38010     -3.00979         0.092827      0.026024      0.009477
     13.13243      8.29058     -4.41747         0.037043      0.001822     -0.044266
 -----------------------------------------------------------------------------------
    total drift:                               -0.001594      0.000508      0.003058


--------------------------------------------------------------------------------------------------------



  FREE ENERGIE OF THE ION-ELECTRON SYSTEM (eV)
  ---------------------------------------------------
  free  energy   TOTEN  =      -368.92647971 eV

  energy  without entropy=     -368.92647971  energy(sigma->0) =     -368.92647971
 
 d Force = 0.2954806E-02[ 0.256E-02, 0.335E-02]  d Energy = 0.2959517E-02-0.471E-05
 d Force = 0.6191402E+00[ 0.616E+00, 0.622E+00]  d Ewald  = 0.6191401E+00 0.401E-07


--------------------------------------------------------------------------------------------------------


    POTLOK:  cpu time    0.0420: real time    0.0416


--------------------------------------------------------------------------------------------------------


 stress matrix after NEB project (eV)
      0.00000      0.00000      0.00000
      0.00000      0.00000      0.00000
      0.00000      0.00000      0.00000
  FORCES: max atom, RMS     0.128437    0.060554
  FORCE total and by dimension    0.554987    0.100362
  Stress total and by dimension    0.000000    0.000000

  ENERGY OF THE ELECTRON-ION-THERMOSTAT SYSTEM (eV)
  ---------------------------------------------------
% ion-electron   TOTEN  =      -368.926480  see above
  kinetic energy EKIN   =         0.041864
  kin. lattice  EKIN_LAT=         0.000000  (temperature    3.90 K)
  nose potential ES     =        -2.615869
  nose kinetic   EPS    =         1.956045
  ---------------------------------------------------
  total energy   ETOTAL =      -369.544440 eV

  maximum distance moved by ions :      0.50E-03


 mean value of Nose-termostat <S>:     0.763 mean value of <T> :     3.902
 mean temperature <T/S>/<1/S>  :     3.902

    WAVPRE:  cpu time    0.0590: real time    0.0598
 FEWALD executed in parallel
    FEWALD:  cpu time    0.0030: real time    0.0024

 real space projection operators:
  total allocation   :       9069.13 KBytes
  max/ min on nodes  :       2267.78       2267.09

    ORTHCH:  cpu time    0.0490: real time    0.0493
 Prediction of Wavefunctions ALPHA= 2.101 BETA=-1.100
    POTLOK:  cpu time    0.0380: real time    0.0386
    EDDIAG:  cpu time    0.0750: real time    0.0740
 writing wavefunctions
     LOOP+:  cpu time    2.0537: real time    2.1048
    4ORBIT:  cpu time    0.0000: real time    0.0000
 


 total charge     
 
# of ion     s       p       d       tot
----------------------------------------
  1        0.070   0.126   0.000   0.196
  2        0.070   0.127   0.000   0.197
  3        0.070   0.126   0.000   0.196
  4        0.070   0.127   0.000   0.197
  5        0.082   0.149   0.000   0.231
  6        0.082   0.148   0.000   0.229
  7        0.083   0.150   0.000   0.232
  8        0.082   0.148   0.000   0.230
  9        0.077   0.136   0.000   0.214
 10        0.078   0.137   0.000   0.215
 11        0.077   0.136   0.000   0.213
 12        0.077   0.136   0.000   0.213
 13        0.074   0.129   0.000   0.203
 14        0.074   0.129   0.000   0.203
 15        0.074   0.128   0.000   0.202
 16        0.074   0.130   0.000   0.204
 17        0.069   0.115   0.000   0.184
 18        0.068   0.115   0.000   0.183
 19        0.069   0.116   0.000   0.185
 20        0.069   0.116   0.000   0.185
 21        0.079   0.133   0.000   0.212
 22        0.079   0.134   0.000   0.213
 23        0.079   0.133   0.000   0.212
 24        0.079   0.134   0.000   0.213
 25        0.076   0.131   0.000   0.207
 26        0.076   0.130   0.000   0.206
 27        0.076   0.131   0.000   0.207
 28        0.076   0.130   0.000   0.206
 29        0.980   1.383   0.000   2.362
 30        0.980   1.380   0.000   2.360
 31        0.980   1.383   0.000   2.363
 32        0.980   1.382   0.000   2.362
 33        0.980   1.377   0.000   2.357
 34        0.980   1.379   0.000   2.358
 35        0.980   1.379   0.000   2.359
 36        0.980   1.379   0.000   2.359
 37        0.972   1.377   0.000   2.349
 38        0.972   1.375   0.000   2.347
 39        0.972   1.378   0.000   2.350
 40        0.972   1.377   0.000   2.349
 41        1.343   2.426   0.000   3.769
 42        1.344   2.422   0.000   3.766
 43        1.343   2.426   0.000   3.769
 44        1.343   2.425   0.000   3.768
 45        1.337   2.450   0.000   3.787
 46        1.337   2.448   0.000   3.785
 47        1.337   2.451   0.000   3.788
 48        1.337   2.451   0.000   3.787
 49        1.349   2.426   0.000   3.775
 50        1.349   2.427   0.000   3.776
 51        1.349   2.426   0.000   3.774
 52        1.349   2.427   0.000   3.776
 53        1.366   2.348   0.000   3.714
 54        1.366   2.350   0.000   3.716
 55        1.366   2.350   0.000   3.716
 56        1.366   2.350   0.000   3.716
 57        1.340   2.425   0.000   3.765
 58        1.341   2.424   0.000   3.764
 59        1.340   2.428   0.000   3.768
 60        1.340   2.425   0.000   3.765
 61        1.339   2.438   0.000   3.777
 62        1.339   2.438   0.000   3.777
 63        1.339   2.438   0.000   3.777
 64        1.339   2.439   0.000   3.778
 65        1.339   2.436   0.000   3.775
 66        1.339   2.436   0.000   3.775
 67        1.339   2.437   0.000   3.776
 68        1.339   2.436   0.000   3.775
 69        1.333   2.447   0.000   3.780
 70        1.334   2.444   0.000   3.778
 71        1.334   2.446   0.000   3.780
 72        1.334   2.445   0.000   3.779
 73        1.337   2.452   0.000   3.788
 74        1.336   2.452   0.000   3.788
 75        1.337   2.454   0.000   3.790
 76        1.337   2.452   0.000   3.788
 77        1.343   2.429   0.000   3.773
 78        1.343   2.428   0.000   3.771
 79        1.343   2.429   0.000   3.772
 80        1.343   2.429   0.000   3.772
 81        1.339   2.431   0.000   3.769
 82        1.339   2.429   0.000   3.768
 83        1.339   2.432   0.000   3.771
 84        1.339   2.429   0.000   3.768
------------------------------------------------
tot       72.898 127.057   0.000 199.955
 

 total amount of memory used by VASP on root node    44741. kBytes
========================================================================

   base      :      30000. kBytes
   nonlr-proj:       2786. kBytes
   fftplans  :       2648. kBytes
   grid      :       4997. kBytes
   one-center:         32. kBytes
   wavefun   :       4278. kBytes
 
  
  
 General timing and accounting informations for this job:
 ========================================================
  
                  Total CPU time used (sec):       25.868
                            User time (sec):       23.780
                          System time (sec):        2.088
                         Elapsed time (sec):       26.493
  
                   Maximum memory used (kb):       92356.
                   Average memory used (kb):           0.
  
                          Minor page faults:        16283
                          Major page faults:           23
                 Voluntary context switches:         1283
