Process 0 of 1 is on n0144.savio1 - thread support 0
initial socket setup ...start
initial socket setup ...done 
now start server 0 ... 
n0144.savio1 10.0.1
Q-Chem Developer Version! Running on 10.0.1.*
                  Welcome to Q-Chem
     A Quantum Leap Into The Future Of Chemistry


 Q-Chem 5.1, Q-Chem, Inc., Pleasanton, CA (2018)

 Yihan Shao,  Zhengting Gan,  E. Epifanovsky,  A. T. B. Gilbert,  M. Wormit,  
 J. Kussmann,  A. W. Lange,  A. Behn,  Jia Deng,  Xintian Feng,  D. Ghosh,  
 M. Goldey,  P. R. Horn,  L. D. Jacobson,  I. Kaliman,  T. Kus,  A. Landau,  
 Jie Liu,  E. I. Proynov,  R. M. Richard,  R. P. Steele,  E. J. Sundstrom,  
 H. L. Woodcock III,  P. M. Zimmerman,  D. Zuev,  B. Albrecht,  E. Alguire,  
 S. A. Baeppler,  D. Barton,  Z. Benda,  Y. A. Bernard,  E. J. Berquist,  
 K. B. Bravaya,  H. Burton,  D. Casanova,  Chun-Min Chang,  Yunqing Chen,  
 A. Chien,  K. D. Closser,  M. P. Coons,  S. Coriani,  S. Dasgupta,  
 A. L. Dempwolff,  M. Diedenhofen,  Hainam Do,  R. G. Edgar,  Po-Tung Fang,  
 S. Faraji,  S. Fatehi,  Qingguo Feng,  K. D. Fenk,  J. Fosso-Tande,  
 Qinghui Ge,  A. Ghysels,  G. Gidofalvi,  J. Gomes,  J. Gonthier,  A. Gunina,  
 M. W. D. Hanson-Heine,  P. H. P. Harbach,  A. W. Hauser,  J. E. Herr,  
 E. G. Hohenstein,  Z. C. Holden,  Kerwin Hui,  T.-C. Jagau,  Hyunjun Ji,  
 B. Kaduk,  K. Khistyaev,  Jaehoon Kim,  P. Klunzinger,  K. Koh,  
 D. Kosenkov,  L. Koulias,  T. Kowalczyk,  C. M. Krauter,  A. Kunitsa,  
 Ka Un Lao,  A. Laurent,  K. V. Lawler,  Joonho Lee,  D. Lefrancois,  
 S. Lehtola,  D. S. Levine,  Yi-Pei Li,  You-Sheng Lin,  Fenglai Liu,  
 E. Livshits,  A. Luenser,  P. Manohar,  E. Mansoor,  S. F. Manzer,  
 Shan-Ping Mao,  Yuezhi Mao,  N. Mardirossian,  A. V. Marenich,  
 T. Markovich,  L. A. Martinez-Martinez,  S. A. Maurer,  N. J. Mayhall,  
 S. C. McKenzie,  J.-M. Mewes,  A. F. Morrison,  J. W. Mullinax,  K. Nanda,  
 T. S. Nguyen-Beck,  R. Olivares-Amaya,  J. A. Parkhill,  T. M. Perrine,  
 F. Plasser,  P. Pokhilko,  S. Prager,  A. Prociuk,  E. Ramos,  D. R. Rehn,  
 F. Rob,  M. Schneider,  N. Sergueev,  S. M. Sharada,  S. Sharma,  
 D. W. Small,  T. Stauch,  T. Stein,  Yu-Chuan Su,  A. J. W. Thom,  
 A. Tkatchenko,  T. Tsuchimochi,  N. M. Tubman,  L. Vogt,  M. L. Vidal,  
 O. Vydrov,  M. A. Watson,  J. Wenzel,  M. de Wergifosse,  T. A. Wesolowski,  
 A. White,  J. Witte,  A. Yamada,  Jun Yang,  K. Yao,  S. Yeganeh,  
 S. R. Yost,  Zhi-Qiang You,  A. Zech,  Igor Ying Zhang,  Xing Zhang,  
 Yan Zhao,  Ying Zhu,  B. R. Brooks,  G. K. L. Chan,  C. J. Cramer,  
 M. S. Gordon,  W. J. Hehre,  A. Klamt,  M. W. Schmidt,  C. D. Sherrill,  
 D. G. Truhlar,  A. Aspuru-Guzik,  R. Baer,  A. T. Bell,  N. A. Besley,  
 Jeng-Da Chai,  R. A. DiStasio Jr.,  A. Dreuw,  B. D. Dunietz,  
 T. R. Furlani,  Chao-Ping Hsu,  Yousung Jung,  Jing Kong,  D. S. Lambrecht,  
 WanZhen Liang,  C. Ochsenfeld,  V. A. Rassolov,  L. V. Slipchenko,  
 J. E. Subotnik,  T. Van Voorhis,  J. M. Herbert,  A. I. Krylov,  
 P. M. W. Gill,  M. Head-Gordon

 Contributors to earlier versions of Q-Chem not listed above: 
 R. D. Adamson,  B. Austin,  J. Baker,  G. J. O. Beran,  K. Brandhorst,  
 S. T. Brown,  E. F. C. Byrd,  A. K. Chakraborty,  C.-L. Cheng,  
 Siu Hung Chien,  D. M. Chipman,  D. L. Crittenden,  H. Dachsel,  
 R. J. Doerksen,  A. D. Dutoi,  L. Fusti-Molnar,  W. A. Goddard III,  
 A. Golubeva-Zadorozhnaya,  S. R. Gwaltney,  G. Hawkins,  A. Heyden,  
 S. Hirata,  G. Kedziora,  F. J. Keil,  C. Kelley,  Jihan Kim,  R. A. King,  
 R. Z. Khaliullin,  P. P. Korambath,  W. Kurlancheek,  A. M. Lee,  M. S. Lee,  
 S. V. Levchenko,  Ching Yeh Lin,  D. Liotard,  R. C. Lochan,  I. Lotan,  
 P. E. Maslen,  N. Nair,  D. P. O'Neill,  D. Neuhauser,  E. Neuscamman,  
 C. M. Oana,  R. Olson,  B. Peters,  R. Peverati,  P. A. Pieniazek,  
 Y. M. Rhee,  J. Ritchie,  M. A. Rohrdanz,  E. Rosta,  N. J. Russ,  
 H. F. Schaefer III,  N. E. Schultz,  N. Shenvi,  A. C. Simmonett,  A. Sodt,  
 D. Stuck,  K. S. Thanthiriwatte,  V. Vanovschi,  Tao Wang,  A. Warshel,  
 C. F. Williams,  Q. Wu,  X. Xu,  W. Zhang

 Please cite Q-Chem as follows:
 Y. Shao et al., Mol. Phys. 113, 184-215 (2015)
 DOI: 10.1080/00268976.2014.952696

 Q-Chem 5.1.0 for Intel X86 EM64T Linux

 Parts of Q-Chem use Armadillo 8.300.2 (Tropical Shenanigans).
 http://arma.sourceforge.net/

 Q-Chem begins on Fri Mar 23 19:23:55 2018  

Host: n0144.savio1
0

     Scratch files written to /global/scratch/smblau/qctest/qchem22992//
 Parallel job on  1  processors

Checking the input file for inconsistencies... 	...done.

--------------------------------------------------------------
User input:
--------------------------------------------------------------
$comment
CAS-50-07-7 singlet neutral B3LYP 6-31+G* geometry optimization
$end


$molecule
0  1
O           9.79830000        4.90640000        5.26520000
C           8.80320000        5.89710000        5.05380000
C           9.50320000        3.76310000        4.47640000
N          10.30210000        0.82690000        3.56460000
C           9.62610000        4.05990000        3.00610000
C           8.46020000        2.77450000        4.94700000
C           8.87360000        1.12510000        3.07070000
C          11.10810000        2.05790000        3.22470000
C          10.53460000        3.09490000        2.29900000
N          11.17420000        4.79260000        2.40000000
C           9.04440000        1.83990000        5.99370000
C           8.05540000        1.98850000        3.68560000
C           6.73410000       -0.08850000        0.19840000
O           8.07030000        0.94410000        6.40900000
C           6.73340000        2.19210000        3.14130000
O           5.61030000        0.08460000       -0.26420000
C           7.14730000        0.63150000        1.37990000
C           7.14540000        1.32510000        7.31410000
O           5.96090000        2.97730000        3.68310000
C           6.32030000        1.47210000        1.95980000
C           6.72320000       -0.10750000        0.16730000
N           6.16460000        0.42320000        7.73220000
O           7.16590000        2.46460000        7.77030000
N           5.04180000        1.66900000        1.43350000
H           9.02560000        6.75860000        5.64820000
H           7.84690000        5.50760000        5.33410000
H           8.78730000        6.17160000        4.01970000
H           8.61340000        4.38110000        2.87890000
H           7.62300000        3.26080000        5.40260000
H          12.02080000        1.71800000        2.78160000
H          11.18030000        2.57300000        4.15980000
H          10.43980000        2.44110000        1.45730000
H          11.93320000        5.04280000        3.03380000
H           9.38420000        2.41130000        6.83210000
H           9.86730000        1.30170000        5.57180000
H           7.52090000       -0.74000000       -0.16210000
H           6.47730000        0.58890000       -0.60700000
H           5.86530000       -0.70480000        0.39550000
H           6.14810000       -0.49070000        7.36640000
H           5.48960000        0.70120000        8.39280000
H           4.42220000        2.29870000        1.86800000
H           4.76010000        1.17800000        0.62800000
$end


$rem
jobtype = opt
exchange = b3lyp
basis = 6-31+g*
mem_static = 100
mem_total = 1100
max_scf_cycles = 200
scf_algorithm = rca_diis
$end

--------------------------------------------------------------
 ----------------------------------------------------------------
             Standard Nuclear Orientation (Angstroms)
    I     Atom           X                Y                Z
 ----------------------------------------------------------------
    1      O      -3.1118257336     1.5718106725    -0.8900075744
    2      C      -2.9625638425     1.4835915958    -2.2993828766
    3      C      -1.8695322466     1.2875344344    -0.2636544370
    4      N      -0.2047983601     0.9737561381     2.4235551115
    5      C      -0.8443600440     2.3476710792    -0.5638360307
    6      C      -1.4229689904    -0.1475949901    -0.0974373702
    7      C       0.6386434888     0.4300119488     1.2546150770
    8      C      -0.7661763357     2.2876622466     1.9346435485
    9      C      -0.2210820454     2.9131192178     0.6805033921
   10      N      -1.2728018016     4.0815228770    -0.2306458239
   11      C      -2.1141538487    -0.7869237607     1.0958228297
   12      C       0.0975866914    -0.0693951669     0.1361952611
   13      C       4.3409635146     0.0550851538     0.5818232630
   14      O      -1.6889364647    -2.1005856132     1.2272962252
   15      C       0.9797873492    -0.5567159523    -0.8980387074
   16      O       5.0908120060    -0.3592177058    -0.2973634011
   17      C       2.9100618589    -0.0027525369     0.3967509981
   18      C      -2.2209643700    -3.0631361089     0.4461113105
   19      O       0.5131936157    -1.0201513184    -1.9345523249
   20      C       2.4106493557    -0.4988107211    -0.7129042635
   21      C       4.3786578832     0.0565693104     0.5867173263
   22      N      -1.7928021133    -4.3857725704     0.5784356567
   23      O      -3.0815431600    -2.7764654085    -0.3810664187
   24      N       3.2637483529    -0.9701479524    -1.7130976775
   25      H      -3.8986905514     1.6978108263    -2.7713280813
   26      H      -2.6477696112     0.4957173670    -2.5635743413
   27      H      -2.2286790389     2.1908451283    -2.6252224165
   28      H      -0.4745208945     1.8864365856    -1.4556837281
   29      H      -1.6675957997    -0.7453738585    -0.9505382075
   30      H      -0.6234013156     2.9977772781     2.7221985279
   31      H      -1.7745478912     2.0441706653     1.6722478245
   32      H       0.7785588498     3.0232239895     1.0458736013
   33      H      -2.1960895662     4.3497994164     0.1098697882
   34      H      -3.1735037102    -0.7682105978     0.9464767604
   35      H      -1.8694583654    -0.2422910921     1.9836981795
   36      H       4.5976682888     0.4873378147     1.5413684866
   37      H       4.8139931280     0.6576694587    -0.1840888079
   38      H       4.7845345037    -0.9323258009     0.5399672701
   39      H      -1.1026447194    -4.6157734229     1.2418190146
   40      H      -2.1810975477    -5.0883055550     0.0083695016
   41      H       2.8895940483    -1.3418610251    -2.5443945245
   42      H       4.2393350300    -0.9307761357    -1.5868176890
 ----------------------------------------------------------------
 Molecular Point Group                 C1    NOp =  1
 Largest Abelian Subgroup              C1    NOp =  1
 Nuclear Repulsion Energy =  2689.1494577553 hartrees
 There are       88 alpha and       88 beta electrons
 Requested basis set is 6-31+G(d)
 There are 156 shells and 492 basis functions

 Total QAlloc Memory Limit   1100 MB
 Mega-Array Size        98 MB
 MEM_STATIC part       100 MB
 A cutoff of  1.0D-12 yielded   9325 shell pairs
 There are     98729 function pairs
 
 -------------------------------------------------------
 OpenMP Integral Computing Module                       
 Release: version 1.0, May 2013, Q-Chem Inc. Pittsburgh 
 -------------------------------------------------------
 Integral Job Info:
 Integral job number is                      11
 Integral operator is                         1
 short-range coefficients                     0
 long-range coefficients              100000000
 Omega coefficients                           0
 if combine SR and LR in K                    0
 Integral screening is                        0
 Integral computing path is                   2
 max size of driver memory is            800000
 size of driver memory is                593474
 size of scratch memory is              2361544
 max col of scratch BK array               1296
 max len of scratch array in speh3          155
 max len of scratch index in speh4           18
 max int batch size is                      520
 min int batch size is                       52
 fixed nKL is                                52
 max L of basis functions is                  2
 order of int derivative is                   0
 number of shells is                        156
 number of basis is                         492
 number of cartesian basis is               492
 number of contracted shell pairs          9325
 number of primitive shell pairs          27958
 maxK2 (contraction) of shell pair           36
 max number of K2 of shell pair               1
 max number of CS2 of shell pair           1232
 max number of PS2 of shell pair           7008
 mem total for path MDJ                  753084
 -------------------------------------------------------
 Smallest overlap matrix eigenvalue = 3.50E-16
 Linear dependence detected in AO basis
 Number of orthogonalized atomic orbitals = 487
 Maximum deviation from orthogonality = 1.740E-10

 Scale SEOQF with 1.000000e-02/1.000000e-01/1.000000e-01

 Standard Electronic Orientation quadrupole field applied
 Nucleus-field energy     =     0.0000000263 hartrees
 Guess from superposition of atomic densities
 Warning:  Energy on first SCF cycle will be non-variational
 SAD guess density has 176.000000 electrons
 A restricted hybrid HF-DFT SCF calculation will be
 performed using Relaxed Constraint Minimization + Pulay DIIS
 Exchange:     0.2000 Hartree-Fock + 0.0800 Slater + 0.7200 B88
 Correlation:  0.1900 VWN1RPA + 0.8100 LYP
 Using SG-1 standard quadrature grid
 SCF converges when DIIS error is below 1.0E-08
 using 12 threads for integral computing
 -------------------------------------------------------
 OpenMP Integral computing Module                
 Release: version 2.0, May 2017, Q-Chem Inc. Pleasanton 
 -------------------------------------------------------
 -------------------------------------------------------
 OpenMP BLAS3 based DFT computing Module                
 Release: version 1.0, May 2013, Q-Chem Inc. Pittsburgh 
 -------------------------------------------------------
 -------------------------------------------------------
 OpenMP BLAS3 based DFT computing Module                
 Release: version 1.0, May 2013, Q-Chem Inc. Pittsburgh 
 -------------------------------------------------------
 ---------------------------------------
  Cycle       Energy         DIIS Error
 ---------------------------------------
    1    -817.0348808986      1.30E-01
    2    -760.5382426409      6.22E-03
    3    -760.7089005100      4.55E-03
    4    -760.8954103740      2.49E-03
    5    -761.1079022491      1.77E-03
    6    -761.1816629755      6.71E-04 Done RCA. Switching to DIIS
    7    -761.3344831233      1.24E-03
    8    -761.3815105806      6.11E-04
    9    -761.3836230842      5.21E-04
   10    -761.3920580166      2.29E-04
   11    -761.3935623648      1.32E-04
   12    -761.3939761070      5.52E-05
   13    -761.3940512231      2.71E-05
   14    -761.3940646152      1.71E-05
   15    -761.3940720478      1.02E-05
   16    -761.3940756137      4.60E-06
   17    -761.3940765420      2.11E-06
   18    -761.3940766427      1.03E-06
   19    -761.3940766831      3.45E-07
   20    -761.3940766890      1.23E-07
   21    -761.3940766903      5.46E-08
   22    -761.3940766897      2.75E-08
   23    -761.3940766896      8.14E-09 Convergence criterion met
 ---------------------------------------
 SCF time:  CPU 1573.91 s  wall 131.27 s
 SCF   energy in the final basis set = -761.39407669
 Total energy in the final basis set = -761.39407669
 
 --------------------------------------------------------------
 
                    Orbital Energies (a.u.)
 --------------------------------------------------------------
 
 Alpha MOs
 -- Occupied --
-36.951 -19.223 -19.218 -19.211 -19.170 -19.138 -14.387 -14.382
-14.373 -14.354 -10.363 -10.344 -10.299 -10.288 -10.276 -10.275
-10.262 -10.262 -10.260 -10.250 -10.246 -10.223 -10.162  -3.549
 -2.793  -1.924  -1.723  -1.138  -1.101  -1.073  -1.034  -1.031
 -0.942  -0.929  -0.923  -0.870  -0.859  -0.811  -0.778  -0.761
 -0.746  -0.722  -0.709  -0.666  -0.658  -0.639  -0.614  -0.607
 -0.585  -0.580  -0.562  -0.553  -0.548  -0.542  -0.531  -0.518
 -0.507  -0.493  -0.483  -0.475  -0.470  -0.467  -0.461  -0.457
 -0.445  -0.443  -0.420  -0.419  -0.409  -0.393  -0.388  -0.376
 -0.372  -0.365  -0.362  -0.349  -0.328  -0.318  -0.307  -0.295
 -0.293  -0.292  -0.289  -0.282  -0.273  -0.260  -0.240  -0.211
 -- Virtual --
 -0.167  -0.137  -0.100  -0.075  -0.047  -0.036  -0.022  -0.009
 -0.000   0.006   0.011   0.014   0.019   0.022   0.033   0.036
  0.038   0.041   0.044   0.050   0.055   0.061   0.066   0.069
  0.072   0.075   0.081   0.082   0.087   0.091   0.093   0.100
  0.102   0.103   0.106   0.109   0.113   0.117   0.122   0.124
  0.128   0.131   0.134   0.137   0.138   0.144   0.149   0.152
  0.156   0.157   0.162   0.168   0.170   0.171   0.177   0.180
  0.184   0.185   0.188   0.189   0.194   0.197   0.200   0.203
  0.208   0.209   0.211   0.213   0.217   0.220   0.223   0.225
  0.230   0.236   0.237   0.243   0.246   0.249   0.250   0.251
  0.257   0.266   0.267   0.269   0.269   0.277   0.279   0.280
  0.282   0.287   0.289   0.291   0.297   0.301   0.305   0.306
  0.310   0.314   0.317   0.317   0.322   0.327   0.332   0.333
  0.339   0.342   0.344   0.347   0.351   0.353   0.357   0.366
  0.368   0.372   0.376   0.378   0.381   0.388   0.392   0.400
  0.404   0.409   0.412   0.417   0.423   0.425   0.431   0.439
  0.443   0.447   0.459   0.461   0.475   0.490   0.492   0.507
  0.517   0.531   0.546   0.556   0.561   0.620   0.658   0.666
  0.684   0.692   0.695   0.700   0.706   0.716   0.720   0.730
  0.737   0.742   0.753   0.758   0.766   0.774   0.778   0.782
  0.792   0.797   0.810   0.822   0.826   0.828   0.842   0.850
  0.855   0.863   0.882   0.886   0.892   0.910   0.916   0.929
  0.937   0.941   0.954   0.958   0.970   0.972   0.991   0.998
  1.007   1.018   1.020   1.025   1.033   1.042   1.046   1.053
  1.059   1.070   1.081   1.096   1.099   1.105   1.108   1.112
  1.125   1.134   1.139   1.143   1.149   1.156   1.165   1.171
  1.176   1.187   1.199   1.211   1.218   1.224   1.233   1.246
  1.254   1.259   1.266   1.272   1.279   1.289   1.296   1.309
  1.322   1.331   1.337   1.350   1.353   1.356   1.369   1.372
  1.380   1.390   1.396   1.404   1.420   1.422   1.438   1.441
  1.459   1.462   1.474   1.480   1.489   1.508   1.522   1.527
  1.534   1.544   1.549   1.560   1.565   1.581   1.584   1.614
  1.624   1.640   1.642   1.648   1.664   1.681   1.689   1.713
  1.719   1.726   1.732   1.740   1.748   1.757   1.764   1.778
  1.789   1.796   1.805   1.814   1.837   1.840   1.862   1.872
  1.879   1.882   1.895   1.908   1.912   1.933   1.936   1.945
  1.957   1.964   1.977   1.998   2.004   2.021   2.029   2.038
  2.058   2.064   2.081   2.085   2.099   2.108   2.116   2.124
  2.138   2.155   2.159   2.182   2.195   2.212   2.228   2.229
  2.249   2.265   2.269   2.305   2.308   2.318   2.322   2.349
  2.354   2.361   2.374   2.382   2.395   2.403   2.416   2.422
  2.423   2.455   2.476   2.481   2.512   2.525   2.542   2.546
  2.561   2.572   2.578   2.631   2.640   2.648   2.658   2.673
  2.692   2.713   2.730   2.752   2.754   2.762   2.776   2.784
  2.796   2.810   2.819   2.873   2.880   2.911   2.955   2.983
  3.028   3.060   3.061   3.081   3.108   3.143   3.187   3.201
  3.229   3.325   3.644   3.655   3.974   3.990   4.092   4.225
  4.287   4.307   4.353   4.368   4.409   4.433   4.467   4.471
  4.497   4.534   4.567   4.594   4.612   4.620   4.659   4.733
  4.836   5.025   5.102   7.755   7.939   9.350  70.740
 --------------------------------------------------------------
 
          Ground-State Mulliken Net Atomic Charges

     Atom                 Charge (a.u.)
  ----------------------------------------
      1 O                    -0.045776
      2 C                    -0.233846
      3 C                    -2.029660
      4 N                    -0.150623
      5 C                     0.725855
      6 C                     0.689946
      7 C                    -0.744298
      8 C                    -0.584370
      9 C                     0.000412
     10 N                    -0.431529
     11 C                    -0.831111
     12 C                     0.354901
     13 C                    -1.924861
     14 O                    -0.198676
     15 C                    -0.208723
     16 O                    -0.283850
     17 C                    -0.701777
     18 C                     0.681297
     19 O                    -0.408791
     20 C                     0.798200
     21 C                     3.051274
     22 N                    -0.817418
     23 O                    -0.496249
     24 N                    -1.008999
     25 H                     0.224888
     26 H                     0.236467
     27 H                     0.230806
     28 H                     0.260201
     29 H                     0.299479
     30 H                     0.242391
     31 H                     0.196293
     32 H                     0.244138
     33 H                     0.372604
     34 H                     0.250599
     35 H                     0.283002
     36 H                    -0.051812
     37 H                     0.130069
     38 H                     0.131020
     39 H                     0.398250
     40 H                     0.420471
     41 H                     0.441758
     42 H                     0.488048
  ----------------------------------------
  Sum of atomic charges =    -0.000000

 -----------------------------------------------------------------
                    Cartesian Multipole Moments
 -----------------------------------------------------------------
    Charge (ESU x 10^10)
                -0.0000
    Dipole Moment (Debye)
         X      -1.8042      Y      -1.4963      Z      -2.3161
       Tot       3.2952
    Quadrupole Moments (Debye-Ang)
        XX    -152.3079     XY     -10.9830     YY    -130.4234
        XZ      -9.7802     YZ      -4.5075     ZZ    -149.4365
    Octopole Moments (Debye-Ang^2)
       XXX     -58.8116    XXY       9.4638    XYY     -26.6600
       YYY    -187.8867    XXZ     -55.4828    XYZ       2.4641
       YYZ      39.4350    XZZ     -45.4857    YZZ      -1.7588
       ZZZ     -65.6043
    Hexadecapole Moments (Debye-Ang^3)
      XXXX   -6073.4873   XXXY    -208.6401   XXYY   -1431.3453
      XYYY     111.6626   YYYY   -2986.3295   XXXZ    -205.1973
      XXYZ     -91.1704   XYYZ     -40.3334   YYYZ      43.7940
      XXZZ   -1161.6008   XYZZ     -72.7614   YYZZ    -766.5930
      XZZZ     -61.1979   YZZZ     -33.9914   ZZZZ   -1455.6872
 -----------------------------------------------------------------
 Calculating analytic gradient of the SCF energy
 Gradient of SCF Energy
            1           2           3           4           5           6
    1  -0.0307512   0.0008942   0.0421428  -0.0843576   0.0356690  -0.0190552
    2   0.0206533  -0.0006091  -0.0240513   0.0002756  -0.0444661  -0.0308887
    3  -0.0396254   0.0082746   0.0380298   0.0884922  -0.0710648  -0.0297995
            7           8           9          10          11          12
    1   0.0470542  -0.0297803   0.0504580  -0.0927314   0.0183240  -0.0083989
    2  -0.0263912   0.0296863  -0.0014280   0.0750039  -0.0084638   0.0111577
    3  -0.0690969  -0.0104345   0.0262247   0.0128001   0.0127389  -0.0002464
           13          14          15          16          17          18
    16772.3894258  -0.0316945   0.0174589  -0.3699141   0.3639317   0.0266702
    2 267.3445557   0.0487121   0.0110443   0.2404410  -0.0284186   0.0131845
    3 878.3493412  -0.0276364   0.0260811   0.5192873  -0.0347519   0.0313027
           19          20          21          22          23          24
    1   0.0047476  -0.0778044-6772.1698210  -0.0029552  -0.0001910   0.0320429
    2   0.0049706   0.0034030-267.4471966  -0.0616063   0.0021214  -0.0073451
    3   0.0148794   0.0008520-878.5859522  -0.0180575   0.0006191  -0.0150901
           25          26          27          28          29          30
    1   0.0155122  -0.0034291  -0.0088719  -0.0271963   0.0025065   0.0152832
    2  -0.0035734   0.0170736  -0.0129896  -0.0258716   0.0062934  -0.0080258
    3   0.0015681   0.0074464   0.0092346   0.0246954   0.0209732  -0.0189031
           31          32          33          34          35          36
    1   0.0461308  -0.0272758   0.0122153   0.0168929  -0.0048722  -0.1840487
    2   0.0071948  -0.0280061   0.0278128  -0.0014206   0.0026666  -0.1425886
    3   0.0012224   0.0325454  -0.0167775   0.0039915  -0.0159953  -0.3235808
           37          38          39          40          41          42
    1   0.0159729   0.0267205  -0.0175591   0.0119238   0.0138484  -0.0151179
    2  -0.0922800   0.1031166   0.0081837   0.0113209   0.0083443  -0.0015959
    3   0.0640936  -0.0299014  -0.0165430   0.0154056   0.0188026  -0.0054452
 Max gradient component =       6.772E+03
 RMS gradient           =       8.610E+02
 Gradient time:  CPU 397.34 s  wall 43.32 s
 Geometry Optimization Parameters
   NAtoms,    NIC,     NZ,  NCons,   NDum,   NFix, NCnnct, MaxDiis
       42     444       0       0       0       0       0       0


** GEOMETRY OPTIMIZATION IN DELOCALIZED INTERNAL COORDINATES **
   Searching for a Minimum

   Optimization Cycle:   1

                       Coordinates (Angstroms)
     ATOM                X               Y               Z
      1  O        -3.1118257336    1.5718106725   -0.8900075744
      2  C        -2.9625638425    1.4835915958   -2.2993828766
      3  C        -1.8695322466    1.2875344344   -0.2636544370
      4  N        -0.2047983601    0.9737561381    2.4235551115
      5  C        -0.8443600440    2.3476710792   -0.5638360307
      6  C        -1.4229689904   -0.1475949901   -0.0974373702
      7  C         0.6386434888    0.4300119488    1.2546150770
      8  C        -0.7661763357    2.2876622466    1.9346435485
      9  C        -0.2210820454    2.9131192178    0.6805033921
     10  N        -1.2728018016    4.0815228770   -0.2306458239
     11  C        -2.1141538487   -0.7869237607    1.0958228297
     12  C         0.0975866914   -0.0693951669    0.1361952611
     13  C         4.3409635146    0.0550851538    0.5818232630
     14  O        -1.6889364647   -2.1005856132    1.2272962252
     15  C         0.9797873492   -0.5567159523   -0.8980387074
     16  O         5.0908120060   -0.3592177058   -0.2973634011
     17  C         2.9100618589   -0.0027525369    0.3967509981
     18  C        -2.2209643700   -3.0631361089    0.4461113105
     19  O         0.5131936157   -1.0201513184   -1.9345523249
     20  C         2.4106493557   -0.4988107211   -0.7129042635
     21  C         4.3786578832    0.0565693104    0.5867173263
     22  N        -1.7928021133   -4.3857725704    0.5784356567
     23  O        -3.0815431600   -2.7764654085   -0.3810664187
     24  N         3.2637483529   -0.9701479524   -1.7130976775
     25  H        -3.8986905514    1.6978108263   -2.7713280813
     26  H        -2.6477696112    0.4957173670   -2.5635743413
     27  H        -2.2286790389    2.1908451283   -2.6252224165
     28  H        -0.4745208945    1.8864365856   -1.4556837281
     29  H        -1.6675957997   -0.7453738585   -0.9505382075
     30  H        -0.6234013156    2.9977772781    2.7221985279
     31  H        -1.7745478912    2.0441706653    1.6722478245
     32  H         0.7785588498    3.0232239895    1.0458736013
     33  H        -2.1960895662    4.3497994164    0.1098697882
     34  H        -3.1735037102   -0.7682105978    0.9464767604
     35  H        -1.8694583654   -0.2422910921    1.9836981795
     36  H         4.5976682888    0.4873378147    1.5413684866
     37  H         4.8139931280    0.6576694587   -0.1840888079
     38  H         4.7845345037   -0.9323258009    0.5399672701
     39  H        -1.1026447194   -4.6157734229    1.2418190146
     40  H        -2.1810975477   -5.0883055550    0.0083695016
     41  H         2.8895940483   -1.3418610251   -2.5443945245
     42  H         4.2393350300   -0.9307761357   -1.5868176890
   Point Group: c1    Number of degrees of freedom:   120


   Energy is   -761.394076690


 Attempting to Generate Delocalized Internal Coordinates

  ***ERROR*** Wrong Number of Internal Coordinates
              Should be: 120  Found: 122
**WARNING** Problems with Internal Coordinates
  Switching to Cartesian Coordinates

 ** Taking Steepest Descent Step **
 Calculated Step too Large.  Step scaled by  0.000031
 Step Taken.  Stepsize is  0.300000

                             Maximum     Tolerance    Cnvgd?
         Gradient           ********      0.000300      NO
         Displacement       0.210212      0.001200      NO
         Energy change     *********      0.000001      NO

 ----------------------------------------------------------------
             Standard Nuclear Orientation (Angstroms)
    I     Atom           X                Y                Z
 ----------------------------------------------------------------
    1      O      -3.1118252285     1.5718103332    -0.8900069235
    2      C      -2.9625638572     1.4835916058    -2.2993830125
    3      C      -1.8695329388     1.2875348294    -0.2636550617
    4      N      -0.2047969745     0.9737561381     2.4235536580
    5      C      -0.8443606299     2.3476718096    -0.5638348634
    6      C      -1.4229686774    -0.1475944827    -0.0974368807
    7      C       0.6386427159     0.4300123823     1.2546162120
    8      C      -0.7661758465     2.2876617590     1.9346437199
    9      C      -0.2210828742     2.9131192412     0.6805029613
   10      N      -1.2728002784     4.0815216450    -0.2306460341
   11      C      -2.1141541497    -0.7869236217     1.0958226205
   12      C       0.0975868293    -0.0693953502     0.1361952611
   13      C       4.2297241679     0.0506939070     0.5673960054
   14      O      -1.6889359441    -2.1005864133     1.2272966791
   15      C       0.9797870624    -0.5567161337    -0.8980391358
   16      O       5.0908180820    -0.3592216552    -0.2973719306
   17      C       2.9100558811    -0.0027520701     0.3967515689
   18      C      -2.2209648081    -3.0631363255     0.4461107963
   19      O       0.5131935377    -1.0201514000    -1.9345525693
   20      C       2.4106506337    -0.4988107770    -0.7129042775
   21      C       4.4898936228     0.0609622432     0.6011484703
   22      N      -1.7928020647    -4.3857715585     0.5784359533
   23      O      -3.0815431600    -2.7764654433    -0.3810664289
   24      N       3.2637478266    -0.9701478317    -1.7130974297
   25      H      -3.8986908062     1.6978108850    -2.7713281071
   26      H      -2.6477695549     0.4957170866    -2.5635744636
   27      H      -2.2286788932     2.1908453417    -2.6252225682
   28      H      -0.4745204478     1.8864370105    -1.4556841338
   29      H      -1.6675958409    -0.7453739619    -0.9505385520
   30      H      -0.6234015666     2.9977774100     2.7221988384
   31      H      -1.7745486489     2.0441705471     1.6722478045
   32      H       0.7785592978     3.0232244495     1.0458730668
   33      H      -2.1960897668     4.3497989596     0.1098700638
   34      H      -3.1735039877    -0.7682105744     0.9464766949
   35      H      -1.8694582854    -0.2422911360     1.9836984423
   36      H       4.5976713119     0.4873401568     1.5413738016
   37      H       4.8139928656     0.6576709744    -0.1840898606
   38      H       4.7845340648    -0.9323274946     0.5399677613
   39      H      -1.1026444310    -4.6157735573     1.2418192863
   40      H      -2.1810977435    -5.0883057410     0.0083692486
   41      H       2.8895938208    -1.3418611622    -2.5443948334
   42      H       4.2393352783    -0.9307761095    -1.5868175996
 ----------------------------------------------------------------
 Molecular Point Group                 C1    NOp =  1
 Largest Abelian Subgroup              C1    NOp =  1
 Nuclear Repulsion Energy =  2261.0490304177 hartrees
 There are       88 alpha and       88 beta electrons
 Applying Cartesian multipole field
    Component          Value
    ---------          -----
     (2,0,0)        1.00000E-12
     (0,2,0)        2.00000E-11
     (0,0,2)       -3.00000E-11
 Nucleus-field energy     =     0.0000000263 hartrees
 Requested basis set is 6-31+G(d)
 There are 156 shells and 492 basis functions
 A cutoff of  1.0D-12 yielded   9326 shell pairs
 There are     98696 function pairs
 Smallest overlap matrix eigenvalue = 1.46E-12
 Linear dependence detected in AO basis
 Number of orthogonalized atomic orbitals = 488
 Maximum deviation from orthogonality = 3.889E-10
 No. of orbitals has changed due to linear dependencies.  Generating new SCF guess.
 Guess from superposition of atomic densities
 Warning:  Energy on first SCF cycle will be non-variational
 SAD guess density has 176.000000 electrons
 A restricted hybrid HF-DFT SCF calculation will be
 performed using Relaxed Constraint Minimization + Pulay DIIS
 Exchange:     0.2000 Hartree-Fock + 0.0800 Slater + 0.7200 B88
 Correlation:  0.1900 VWN1RPA + 0.8100 LYP
 Using SG-1 standard quadrature grid
 SCF converges when DIIS error is below 1.0E-08
 Geometry optimization detected.  Setting ReadMinima to 0
 Setting SaveMinima to 0
 using 12 threads for integral computing
 -------------------------------------------------------
 OpenMP Integral computing Module                
 Release: version 2.0, May 2017, Q-Chem Inc. Pleasanton 
 -------------------------------------------------------
 -------------------------------------------------------
 OpenMP BLAS3 based DFT computing Module                
 Release: version 1.0, May 2013, Q-Chem Inc. Pittsburgh 
 -------------------------------------------------------
 -------------------------------------------------------
 OpenMP BLAS3 based DFT computing Module                
 Release: version 1.0, May 2013, Q-Chem Inc. Pittsburgh 
 -------------------------------------------------------
 ---------------------------------------
  Cycle       Energy         DIIS Error
 ---------------------------------------
    1   -1168.3656843213      4.94E-02
    2   -1153.0989043633      5.87E-03
    3   -1153.3228846124      3.67E-03
    4   -1153.5867601742      1.62E-03
    5   -1153.6697083250      9.18E-04 Done RCA. Switching to DIIS
    6   -1153.6733948173      2.63E-03
    7   -1153.9812874354      9.68E-04
    8   -1153.9595951269      1.30E-03
    9   -1154.0181813931      5.53E-04
   10   -1154.0313307222      1.41E-04
   11   -1154.0316044541      1.07E-04
   12   -1154.0319803821      3.67E-05
   13   -1154.0319509724      4.39E-05
   14   -1154.0319387721      4.53E-05
   15   -1154.0319864283      3.27E-05
   16   -1154.0320212058      1.77E-05
   17   -1154.0320356138      2.46E-06
   18   -1154.0320356991      1.96E-06
   19   -1154.0320358431      7.65E-07
   20   -1154.0320358585      4.99E-07
   21   -1154.0320358646      3.29E-07
   22   -1154.0320358691      1.04E-07
   23   -1154.0320358695      2.47E-08
   24   -1154.0320358696      5.43E-09 Convergence criterion met
 ---------------------------------------
 SCF time:  CPU 1608.00 s  wall 134.08 s
 SCF   energy in the final basis set = -1154.03203587
 Total energy in the final basis set = -1154.03203587
 
 --------------------------------------------------------------
 
                    Orbital Energies (a.u.)
 --------------------------------------------------------------
 
 Alpha MOs
 -- Occupied --
-19.244 -19.213 -19.208 -19.172 -19.134 -16.687 -14.379 -14.379
-14.373 -14.366 -10.360 -10.319 -10.305 -10.282 -10.277 -10.276
-10.266 -10.255 -10.251 -10.242 -10.236 -10.224 -10.214  -9.832
 -1.767  -1.474  -1.451  -1.133  -1.086  -1.076  -1.027  -0.971
 -0.950  -0.926  -0.917  -0.864  -0.852  -0.812  -0.771  -0.764
 -0.738  -0.730  -0.710  -0.700  -0.640  -0.631  -0.609  -0.607
 -0.589  -0.575  -0.570  -0.557  -0.553  -0.547  -0.534  -0.528
 -0.509  -0.499  -0.482  -0.476  -0.467  -0.466  -0.459  -0.456
 -0.446  -0.438  -0.432  -0.415  -0.413  -0.402  -0.378  -0.374
 -0.368  -0.358  -0.345  -0.323  -0.315  -0.308  -0.300  -0.296
 -0.289  -0.287  -0.278  -0.271  -0.259  -0.251  -0.226  -0.183
 -- Virtual --
 -0.158  -0.117  -0.102  -0.058  -0.038  -0.031  -0.017  -0.008
  0.002   0.003   0.012   0.016   0.021   0.024   0.032   0.039
  0.040   0.042   0.044   0.053   0.057   0.064   0.067   0.071
  0.072   0.075   0.079   0.084   0.087   0.093   0.095   0.099
  0.104   0.104   0.106   0.107   0.109   0.114   0.119   0.124
  0.130   0.131   0.136   0.137   0.138   0.140   0.143   0.151
  0.155   0.158   0.162   0.165   0.168   0.172   0.175   0.179
  0.183   0.184   0.186   0.188   0.195   0.198   0.198   0.202
  0.207   0.209   0.212   0.215   0.216   0.219   0.225   0.227
  0.228   0.233   0.236   0.239   0.243   0.248   0.250   0.252
  0.254   0.259   0.263   0.269   0.270   0.273   0.274   0.278
  0.280   0.284   0.288   0.292   0.295   0.297   0.300   0.305
  0.309   0.310   0.313   0.317   0.322   0.323   0.324   0.332
  0.334   0.335   0.341   0.346   0.349   0.355   0.359   0.360
  0.368   0.369   0.374   0.375   0.378   0.387   0.390   0.393
  0.404   0.405   0.412   0.414   0.423   0.427   0.433   0.438
  0.438   0.444   0.451   0.455   0.465   0.481   0.490   0.493
  0.510   0.520   0.536   0.548   0.553   0.565   0.607   0.636
  0.664   0.673   0.694   0.701   0.703   0.706   0.711   0.718
  0.726   0.730   0.738   0.752   0.755   0.760   0.780   0.783
  0.792   0.796   0.801   0.803   0.822   0.830   0.832   0.846
  0.850   0.856   0.862   0.872   0.875   0.888   0.893   0.916
  0.926   0.932   0.942   0.949   0.953   0.968   0.975   0.987
  0.996   1.009   1.014   1.017   1.025   1.031   1.042   1.049
  1.054   1.059   1.062   1.068   1.077   1.090   1.093   1.104
  1.111   1.118   1.125   1.132   1.142   1.145   1.150   1.152
  1.163   1.170   1.173   1.184   1.191   1.200   1.213   1.225
  1.227   1.238   1.247   1.253   1.265   1.270   1.285   1.293
  1.307   1.314   1.330   1.338   1.343   1.346   1.358   1.362
  1.370   1.382   1.390   1.395   1.402   1.408   1.419   1.424
  1.430   1.445   1.454   1.477   1.480   1.481   1.491   1.516
  1.519   1.528   1.535   1.537   1.551   1.559   1.581   1.586
  1.613   1.627   1.629   1.638   1.643   1.652   1.662   1.673
  1.693   1.707   1.722   1.733   1.741   1.745   1.753   1.761
  1.773   1.785   1.800   1.811   1.827   1.836   1.844   1.861
  1.878   1.881   1.887   1.896   1.905   1.916   1.923   1.933
  1.941   1.962   1.969   1.983   1.998   2.007   2.016   2.025
  2.040   2.061   2.083   2.090   2.109   2.114   2.117   2.126
  2.140   2.160   2.164   2.185   2.200   2.213   2.222   2.232
  2.241   2.255   2.262   2.298   2.307   2.315   2.323   2.335
  2.344   2.353   2.365   2.375   2.386   2.399   2.411   2.421
  2.427   2.442   2.472   2.484   2.506   2.509   2.527   2.545
  2.554   2.574   2.581   2.593   2.632   2.647   2.652   2.675
  2.680   2.688   2.695   2.731   2.743   2.760   2.778   2.785
  2.792   2.816   2.817   2.861   2.883   2.894   2.922   2.961
  2.965   2.984   3.061   3.078   3.098   3.114   3.147   3.178
  3.203   3.224   3.317   3.487   3.663   3.812   3.982   3.992
  4.082   4.233   4.295   4.304   4.363   4.375   4.414   4.424
  4.463   4.481   4.506   4.541   4.588   4.615   4.617   4.649
  4.666   4.734   4.846   5.025   6.259   6.461   7.734  26.078
 --------------------------------------------------------------
 
          Ground-State Mulliken Net Atomic Charges

     Atom                 Charge (a.u.)
  ----------------------------------------
      1 O                    -0.050042
      2 C                    -0.229419
      3 C                    -1.998957
      4 N                    -0.122943
      5 C                     0.686566
      6 C                     0.889521
      7 C                    -1.696196
      8 C                    -0.594402
      9 C                     0.001621
     10 N                    -0.434133
     11 C                    -0.821072
     12 C                     0.762388
     13 C                    -2.133304
     14 O                    -0.194170
     15 C                     0.244713
     16 O                     0.066122
     17 C                     0.359134
     18 C                     0.683046
     19 O                    -0.417583
     20 C                     1.078260
     21 C                     1.285036
     22 N                    -0.819039
     23 O                    -0.495937
     24 N                    -1.035994
     25 H                     0.219432
     26 H                     0.231666
     27 H                     0.228004
     28 H                     0.252484
     29 H                     0.294914
     30 H                     0.232241
     31 H                     0.207206
     32 H                     0.237199
     33 H                     0.371166
     34 H                     0.250246
     35 H                     0.279903
     36 H                     0.000133
     37 H                     0.223496
     38 H                     0.228580
     39 H                     0.397090
     40 H                     0.419802
     41 H                     0.449001
     42 H                     0.464220
  ----------------------------------------
  Sum of atomic charges =    -0.000000

 -----------------------------------------------------------------
                    Cartesian Multipole Moments
 -----------------------------------------------------------------
    Charge (ESU x 10^10)
                 0.0000
    Dipole Moment (Debye)
         X       0.6618      Y      -1.9617      Z      -1.7938
       Tot       2.7394
    Quadrupole Moments (Debye-Ang)
        XX    -144.6711     XY      -9.1668     YY    -134.4501
        XZ      -7.4769     YZ      -2.8210     ZZ    -148.5938
    Octopole Moments (Debye-Ang^2)
       XXX       1.3340    XXY      12.2983    XYY     -30.3155
       YYY    -191.4184    XXZ     -37.2196    XYZ       9.5941
       YYZ      37.9197    XZZ     -34.4654    YZZ      -4.5965
       ZZZ     -63.7313
    Hexadecapole Moments (Debye-Ang^3)
      XXXX   -5771.3626   XXXY    -175.0609   XXYY   -1473.0084
      XYYY     124.3934   YYYY   -3034.1898   XXXZ    -126.1045
      XXYZ     -47.6709   XYYZ     -41.5995   YYYZ      45.9510
      XXZZ   -1123.0338   XYZZ     -71.1734   YYZZ    -773.8719
      XZZZ     -58.1131   YZZZ     -31.9080   ZZZZ   -1454.3287
 -----------------------------------------------------------------
 Calculating analytic gradient of the SCF energy
 Gradient of SCF Energy
            1           2           3           4           5           6
    1  -0.0280423   0.0016986   0.0403906  -0.0866147   0.0363788  -0.0138706
    2   0.0202152  -0.0006928  -0.0231830   0.0105638  -0.0421288  -0.0288929
    3  -0.0348253   0.0062674   0.0345679   0.1024139  -0.0688976  -0.0269979
            7           8           9          10          11          12
    1   0.0813454  -0.0220462   0.0514497  -0.0929421   0.0165769  -0.0140709
    2  -0.0367339   0.0200355  -0.0024247   0.0744926  -0.0092444   0.0108138
    3  -0.0955790  -0.0112462   0.0247315   0.0126031   0.0149240   0.0000256
           13          14          15          16          17          18
    1  91.6057063  -0.0313670   0.0380876  -0.6645512   0.2355117   0.0275018
    2   3.5006875   0.0511968   0.0061296   0.2919815  -0.0327573   0.0120655
    3  11.6401853  -0.0271050   0.0147307   0.6139274  -0.0642640   0.0307626
           19          20          21          22          23          24
    1  -0.0031165  -0.0821543 -90.8128079  -0.0033990  -0.0002263   0.0463293
    2   0.0062401   0.0164397  -3.7661838  -0.0608238   0.0027488  -0.0023893
    3   0.0174896   0.0299748 -12.1905735  -0.0179278   0.0004767  -0.0027247
           25          26          27          28          29          30
    1   0.0156021  -0.0035337  -0.0090188  -0.0272347   0.0025879   0.0132782
    2  -0.0035715   0.0172280  -0.0130536  -0.0272346   0.0067616  -0.0093189
    3   0.0022030   0.0075943   0.0093055   0.0244612   0.0191822  -0.0177803
           31          32          33          34          35          36
    1   0.0399474  -0.0271864   0.0120521   0.0169119  -0.0053967  -0.1406110
    2   0.0056271  -0.0275125   0.0280419  -0.0015932   0.0022156  -0.1458843
    3  -0.0035669   0.0322969  -0.0169301   0.0039018  -0.0159239  -0.3271591
           37          38          39          40          41          42
    1  -0.1109433  -0.1008642  -0.0174698   0.0119115   0.0143297  -0.0101299
    2  -0.2272711   0.3426035   0.0081764   0.0113010   0.0086658   0.0066628
    3   0.2533459  -0.0068842  -0.0165540   0.0153505   0.0196634   0.0145543
 Max gradient component =       9.161E+01
 RMS gradient           =       1.160E+01
 Gradient time:  CPU 389.95 s  wall 42.25 s
 Geometry Optimization Parameters
   NAtoms,    NIC,     NZ,  NCons,   NDum,   NFix, NCnnct, MaxDiis
       42     444       0       0       0       0       0       0


** GEOMETRY OPTIMIZATION IN CARTESIAN COORDINATES **
   Searching for a Minimum

   Optimization Cycle:   2

                       Coordinates (Angstroms)
     ATOM                X               Y               Z
      1  O        -3.1118252285    1.5718103332   -0.8900069235
      2  C        -2.9625638572    1.4835916058   -2.2993830125
      3  C        -1.8695329388    1.2875348294   -0.2636550617
      4  N        -0.2047969745    0.9737561381    2.4235536580
      5  C        -0.8443606299    2.3476718096   -0.5638348634
      6  C        -1.4229686774   -0.1475944827   -0.0974368807
      7  C         0.6386427159    0.4300123823    1.2546162120
      8  C        -0.7661758465    2.2876617590    1.9346437199
      9  C        -0.2210828742    2.9131192412    0.6805029613
     10  N        -1.2728002784    4.0815216450   -0.2306460341
     11  C        -2.1141541497   -0.7869236217    1.0958226205
     12  C         0.0975868293   -0.0693953502    0.1361952611
     13  C         4.2297241679    0.0506939070    0.5673960054
     14  O        -1.6889359441   -2.1005864133    1.2272966791
     15  C         0.9797870624   -0.5567161337   -0.8980391358
     16  O         5.0908180820   -0.3592216552   -0.2973719306
     17  C         2.9100558811   -0.0027520701    0.3967515689
     18  C        -2.2209648081   -3.0631363255    0.4461107963
     19  O         0.5131935377   -1.0201514000   -1.9345525693
     20  C         2.4106506337   -0.4988107770   -0.7129042775
     21  C         4.4898936228    0.0609622432    0.6011484703
     22  N        -1.7928020647   -4.3857715585    0.5784359533
     23  O        -3.0815431600   -2.7764654433   -0.3810664289
     24  N         3.2637478266   -0.9701478317   -1.7130974297
     25  H        -3.8986908062    1.6978108850   -2.7713281071
     26  H        -2.6477695549    0.4957170866   -2.5635744636
     27  H        -2.2286788932    2.1908453417   -2.6252225682
     28  H        -0.4745204478    1.8864370105   -1.4556841338
     29  H        -1.6675958409   -0.7453739619   -0.9505385520
     30  H        -0.6234015666    2.9977774100    2.7221988384
     31  H        -1.7745486489    2.0441705471    1.6722478045
     32  H         0.7785592978    3.0232244495    1.0458730668
     33  H        -2.1960897668    4.3497989596    0.1098700638
     34  H        -3.1735039877   -0.7682105744    0.9464766949
     35  H        -1.8694582854   -0.2422911360    1.9836984423
     36  H         4.5976713119    0.4873401568    1.5413738016
     37  H         4.8139928656    0.6576709744   -0.1840898606
     38  H         4.7845340648   -0.9323274946    0.5399677613
     39  H        -1.1026444310   -4.6157735573    1.2418192863
     40  H        -2.1810977435   -5.0883057410    0.0083692486
     41  H         2.8895938208   -1.3418611622   -2.5443948334
     42  H         4.2393352783   -0.9307761095   -1.5868175996
   Point Group: c1    Number of degrees of freedom:   120


   Energy is  -1154.032035870


 ** Taking Steepest Descent Step **
 Calculated Step too Large.  Step scaled by  0.002304
 Step Taken.  Stepsize is  0.300000

                             Maximum     Tolerance    Cnvgd?
         Gradient           ********      0.000300      NO
         Displacement       0.211082      0.001200      NO
         Energy change     *********      0.000001      NO

 ----------------------------------------------------------------
             Standard Nuclear Orientation (Angstroms)
    I     Atom           X                Y                Z
 ----------------------------------------------------------------
    1      O      -3.1117910349     1.5717856837    -0.8899644592
    2      C      -2.9625659285     1.4835924506    -2.2993906547
    3      C      -1.8695821892     1.2875630978    -0.2636972122
    4      N      -0.2046913605     0.9737432571     2.4234287792
    5      C      -0.8444049885     2.3477231796    -0.5637508529
    6      C      -1.4229517641    -0.1475592520    -0.0974039607
    7      C       0.6385435270     0.4300571739     1.2547327567
    8      C      -0.7661489644     2.2876373286     1.9346574330
    9      C      -0.2211456096     2.9131221978     0.6804728049
   10      N      -1.2726869491     4.0814308121    -0.2306614018
   11      C      -2.1141743628    -0.7869123495     1.0958044229
   12      C       0.0976039868    -0.0694085361     0.1361952298
   13      C       4.1180243312     0.0464253276     0.5532024923
   14      O      -1.6888976966    -2.1006488403     1.2273297297
   15      C       0.9797406201    -0.5567236079    -0.8980570978
   16      O       5.0916284055    -0.3595776842    -0.2981205258
   17      C       2.9097687089    -0.0027121274     0.3968299295
   18      C      -2.2209983425    -3.0631510377     0.4460732857
   19      O       0.5131973378    -1.0201590090    -1.9345738954
   20      C       2.4107508089    -0.4988308228    -0.7129408274
   21      C       4.6006266351     0.0655545566     0.6160131019
   22      N      -1.7927979201    -4.3856973928     0.5784578137
   23      O      -3.0815428841    -2.7764687951    -0.3810670101
   24      N       3.2636913347    -0.9701449183    -1.7130941073
   25      H      -3.8987098307     1.6978152400    -2.7713307933
   26      H      -2.6477652460     0.4956960795    -2.5635837238
   27      H      -2.2286678960     2.1908612586    -2.6252339148
   28      H      -0.4744872390     1.8864702191    -1.4557139607
   29      H      -1.6675989965    -0.7453822067    -0.9505619418
   30      H      -0.6234177575     2.9977887730     2.7222205189
   31      H      -1.7745973590     2.0441636857     1.6722521537
   32      H       0.7785924477     3.0232579970     1.0458336854
   33      H      -2.1961044626     4.3497647665     0.1098907076
   34      H      -3.1735246093    -0.7682086318     0.9464719372
   35      H      -1.8694517048    -0.2422938375     1.9837178592
   36      H       4.5978427665     0.4875180415     1.5417727245
   37      H       4.8141281448     0.6579480985    -0.1843987791
   38      H       4.7846570541    -0.9327452497     0.5399761556
   39      H      -1.1026231290    -4.6157835273     1.2418394716
   40      H      -2.1811122678    -5.0883195209     0.0083505308
   41      H       2.8895763478    -1.3418717289    -2.5444188100
   42      H       4.2393476302    -0.9307842338    -1.5868353465
 ----------------------------------------------------------------
 Molecular Point Group                 C1    NOp =  1
 Largest Abelian Subgroup              C1    NOp =  1
 Nuclear Repulsion Energy =  2227.8924242631 hartrees
 There are       88 alpha and       88 beta electrons
 Applying Cartesian multipole field
    Component          Value
    ---------          -----
     (2,0,0)        1.00000E-12
     (0,2,0)        2.00000E-11
     (0,0,2)       -3.00000E-11
 Nucleus-field energy     =     0.0000000263 hartrees
 Requested basis set is 6-31+G(d)
 There are 156 shells and 492 basis functions
 A cutoff of  1.0D-12 yielded   9329 shell pairs
 There are     98764 function pairs
 Smallest overlap matrix eigenvalue = 7.61E-11
 Linear dependence detected in AO basis
 Number of orthogonalized atomic orbitals = 488
 Maximum deviation from orthogonality = 2.552E-10
 Guess MOs from SCF MO coefficient file
 Reading MOs from coefficient file
 Reading MOs from coefficient file
 A restricted hybrid HF-DFT SCF calculation will be
 performed using Relaxed Constraint Minimization + Pulay DIIS
 Exchange:     0.2000 Hartree-Fock + 0.0800 Slater + 0.7200 B88
 Correlation:  0.1900 VWN1RPA + 0.8100 LYP
 Using SG-1 standard quadrature grid
 SCF converges when DIIS error is below 1.0E-08
 Geometry optimization detected.  Setting ReadMinima to 0
 Setting SaveMinima to 0
 using 12 threads for integral computing
 -------------------------------------------------------
 OpenMP Integral computing Module                
 Release: version 2.0, May 2017, Q-Chem Inc. Pleasanton 
 -------------------------------------------------------
 -------------------------------------------------------
 OpenMP BLAS3 based DFT computing Module                
 Release: version 1.0, May 2013, Q-Chem Inc. Pittsburgh 
 -------------------------------------------------------
 -------------------------------------------------------
 OpenMP BLAS3 based DFT computing Module                
 Release: version 1.0, May 2013, Q-Chem Inc. Pittsburgh 
 -------------------------------------------------------
 ---------------------------------------
  Cycle       Energy         DIIS Error
 ---------------------------------------
    1   -1172.1400919003      1.49E-02
    2   -1164.0905897636      9.67E-03
    3   -1165.5021449666      6.10E-03
    4   -1166.0516712451      3.85E-03
    5   -1167.1312582902      2.39E-03
    6   -1167.6756193983      1.64E-03
    7   -1168.2284441749      2.09E-03
    8   -1168.5803004099      8.94E-04 Done RCA. Switching to DIIS
    9   -1170.0583043769      2.39E-03
   10   -1169.6597982181      3.41E-03
   11   -1169.7077524635      3.24E-03
   12   -1169.7142328888      3.22E-03
   13   -1169.7473299319      3.14E-03
   14   -1169.7524262624      3.13E-03
   15   -1169.7667766976      3.09E-03
   16   -1169.7907256002      3.03E-03
   17   -1169.7929305126      3.03E-03
   18   -1169.8195619150      2.97E-03
   19   -1169.8340574284      2.93E-03
   20   -1169.8273604202      2.99E-03
   21   -1151.1228903289      1.84E-02
   22   -1169.4305201763      4.78E-03
   23   -1170.0637217095      2.22E-03
   24   -1170.1810394991      1.46E-03
   25   -1170.2672469849      7.48E-04
   26   -1170.2810079100      3.57E-04
   27   -1170.2838058560      2.39E-04
   28   -1170.2854268280      8.44E-05
   29   -1170.2856055027      4.45E-05
   30   -1170.2856579181      2.01E-05
   31   -1170.2856583937      1.98E-05
   32   -1170.2856711515      1.01E-05
   33   -1170.2856742680      5.76E-06
   34   -1170.2856756429      1.69E-06
   35   -1170.2856757520      5.50E-07
   36   -1170.2856757596      3.11E-07
   37   -1170.2856757632      1.25E-07
   38   -1170.2856757637      7.78E-08
   39   -1170.2856757640      2.09E-08
   40   -1170.2856757640      1.35E-08
   41   -1170.2856757643      1.31E-09 Convergence criterion met
 ---------------------------------------
 SCF time:  CPU 2884.71 s  wall 240.55 s
 SCF   energy in the final basis set = -1170.28567576
 Total energy in the final basis set = -1170.28567576
 
 --------------------------------------------------------------
 
                    Orbital Energies (a.u.)
 --------------------------------------------------------------
 
 Alpha MOs
 -- Occupied --
-19.326 -19.204 -19.195 -19.155 -19.127 -14.373 -14.368 -14.366
-14.353 -11.938 -10.790 -10.352 -10.303 -10.286 -10.270 -10.265
-10.256 -10.256 -10.242 -10.241 -10.227 -10.225 -10.207 -10.184
 -1.597  -1.182  -1.124  -1.107  -1.073  -1.061  -1.019  -0.962
 -0.920  -0.903  -0.897  -0.851  -0.837  -0.794  -0.763  -0.757
 -0.737  -0.724  -0.700  -0.689  -0.632  -0.610  -0.608  -0.597
 -0.587  -0.580  -0.568  -0.564  -0.544  -0.538  -0.529  -0.521
 -0.498  -0.488  -0.487  -0.471  -0.463  -0.457  -0.448  -0.444
 -0.439  -0.430  -0.426  -0.404  -0.400  -0.391  -0.366  -0.365
 -0.357  -0.347  -0.334  -0.314  -0.310  -0.297  -0.288  -0.285
 -0.282  -0.279  -0.267  -0.260  -0.252  -0.242  -0.223  -0.175
 -- Virtual --
 -0.140  -0.094  -0.084  -0.077  -0.030  -0.029  -0.011  -0.006
  0.002   0.007   0.011   0.015   0.023   0.025   0.030   0.033
  0.042   0.045   0.047   0.048   0.057   0.063   0.066   0.070
  0.074   0.077   0.082   0.085   0.090   0.093   0.097   0.099
  0.103   0.105   0.108   0.111   0.114   0.116   0.121   0.128
  0.133   0.137   0.139   0.142   0.144   0.146   0.149   0.153
  0.154   0.164   0.167   0.168   0.172   0.176   0.181   0.181
  0.185   0.188   0.191   0.193   0.197   0.199   0.204   0.206
  0.210   0.212   0.215   0.216   0.219   0.223   0.226   0.230
  0.232   0.233   0.236   0.243   0.245   0.249   0.251   0.257
  0.260   0.262   0.264   0.269   0.271   0.274   0.278   0.281
  0.282   0.289   0.291   0.295   0.298   0.299   0.304   0.306
  0.309   0.316   0.318   0.320   0.327   0.328   0.330   0.335
  0.337   0.340   0.341   0.345   0.354   0.355   0.364   0.365
  0.367   0.375   0.379   0.382   0.384   0.393   0.397   0.401
  0.410   0.411   0.417   0.422   0.430   0.439   0.441   0.442
  0.448   0.451   0.458   0.461   0.473   0.487   0.497   0.500
  0.520   0.529   0.545   0.555   0.557   0.579   0.592   0.626
  0.664   0.675   0.685   0.696   0.705   0.712   0.716   0.722
  0.726   0.730   0.742   0.748   0.761   0.764   0.769   0.790
  0.792   0.802   0.807   0.811   0.818   0.829   0.837   0.843
  0.848   0.859   0.866   0.871   0.882   0.894   0.900   0.904
  0.926   0.933   0.942   0.947   0.956   0.965   0.975   0.978
  0.987   0.998   1.009   1.015   1.020   1.027   1.035   1.041
  1.053   1.058   1.058   1.064   1.072   1.078   1.083   1.095
  1.104   1.115   1.118   1.125   1.131   1.140   1.155   1.156
  1.165   1.173   1.177   1.183   1.187   1.194   1.214   1.223
  1.236   1.241   1.254   1.261   1.275   1.277   1.288   1.301
  1.315   1.322   1.329   1.335   1.340   1.349   1.352   1.367
  1.372   1.380   1.390   1.399   1.401   1.413   1.422   1.431
  1.438   1.451   1.458   1.477   1.486   1.490   1.501   1.509
  1.523   1.528   1.540   1.546   1.560   1.570   1.582   1.585
  1.595   1.623   1.633   1.640   1.643   1.646   1.656   1.663
  1.682   1.703   1.733   1.744   1.751   1.756   1.761   1.772
  1.784   1.792   1.807   1.812   1.824   1.837   1.849   1.858
  1.876   1.881   1.891   1.905   1.906   1.925   1.927   1.943
  1.952   1.973   1.978   1.992   2.002   2.016   2.025   2.034
  2.051   2.074   2.092   2.099   2.120   2.125   2.128   2.136
  2.152   2.171   2.175   2.186   2.202   2.206   2.213   2.228
  2.242   2.259   2.265   2.275   2.312   2.325   2.330   2.342
  2.345   2.360   2.366   2.377   2.389   2.405   2.417   2.427
  2.438   2.449   2.467   2.486   2.492   2.511   2.526   2.536
  2.562   2.581   2.582   2.589   2.609   2.639   2.658   2.660
  2.685   2.695   2.722   2.737   2.760   2.768   2.780   2.791
  2.805   2.805   2.827   2.837   2.839   2.895   2.903   2.939
  2.955   2.994   3.070   3.085   3.111   3.141   3.155   3.190
  3.214   3.225   3.341   3.425   3.708   3.991   3.999   4.044
  4.116   4.251   4.308   4.319   4.374   4.386   4.426   4.441
  4.475   4.494   4.514   4.552   4.592   4.611   4.628   4.675
  4.694   4.748   4.767   4.858   5.000   5.052   5.577  23.984
 --------------------------------------------------------------
 
          Ground-State Mulliken Net Atomic Charges

     Atom                 Charge (a.u.)
  ----------------------------------------
      1 O                    -0.050881
      2 C                    -0.228430
      3 C                    -2.140712
      4 N                    -0.159539
      5 C                     0.693523
      6 C                     0.921574
      7 C                    -1.679171
      8 C                    -0.607311
      9 C                     0.035236
     10 N                    -0.444003
     11 C                    -0.864769
     12 C                     0.754680
     13 C                    -0.685627
     14 O                    -0.196107
     15 C                     0.232585
     16 O                     0.316598
     17 C                     0.225677
     18 C                     0.687714
     19 O                    -0.435738
     20 C                     1.575402
     21 C                    -0.206815
     22 N                    -0.821982
     23 O                    -0.498115
     24 N                    -1.078724
     25 H                     0.215112
     26 H                     0.230410
     27 H                     0.225190
     28 H                     0.249070
     29 H                     0.288481
     30 H                     0.227936
     31 H                     0.203541
     32 H                     0.227399
     33 H                     0.369004
     34 H                     0.246966
     35 H                     0.280692
     36 H                     0.140004
     37 H                     0.020511
     38 H                     0.023357
     39 H                     0.395025
     40 H                     0.418225
     41 H                     0.452124
     42 H                     0.441887
  ----------------------------------------
  Sum of atomic charges =    -0.000000

 -----------------------------------------------------------------
                    Cartesian Multipole Moments
 -----------------------------------------------------------------
    Charge (ESU x 10^10)
                -0.0000
    Dipole Moment (Debye)
         X       4.4002      Y      -2.2522      Z      -1.4516
       Tot       5.1519
    Quadrupole Moments (Debye-Ang)
        XX    -130.4876     XY      -8.8333     YY    -136.7876
        XZ      -6.4133     YZ      -2.5208     ZZ    -148.7397
    Octopole Moments (Debye-Ang^2)
       XXX      82.5215    XXY       6.6321    XYY     -21.9722
       YYY    -196.4235    XXZ     -39.4782    XYZ      11.6174
       YYZ      37.7084    XZZ     -23.4665    YZZ      -4.7748
       ZZZ     -61.6394
    Hexadecapole Moments (Debye-Ang^3)
      XXXX   -5445.7323   XXXY    -212.9955   XXYY   -1465.0764
      XYYY     123.1075   YYYY   -3085.4787   XXXZ    -191.1764
      XXYZ     -34.9187   XYYZ     -40.7319   YYYZ      46.5650
      XXZZ   -1096.2528   XYZZ     -62.7336   YYZZ    -780.1573
      XZZZ     -45.7427   YZZZ     -33.6147   ZZZZ   -1467.0154
 -----------------------------------------------------------------
 Calculating analytic gradient of the SCF energy
 Gradient of SCF Energy
            1           2           3           4           5           6
    1  -0.0268600   0.0021755   0.0412751  -0.0817767   0.0350851  -0.0133823
    2   0.0199292  -0.0006441  -0.0259749   0.0005158  -0.0413889  -0.0268700
    3  -0.0306689   0.0049566   0.0262557   0.0933476  -0.0674842  -0.0252277
            7           8           9          10          11          12
    1   0.0658499  -0.0260101   0.0524704  -0.0925158   0.0164249  -0.0109641
    2  -0.0314614   0.0269468  -0.0022036   0.0736243  -0.0123029   0.0081634
    3  -0.0895245  -0.0123792   0.0254834   0.0128224   0.0146038  -0.0001561
           13          14          15          16          17          18
    1  15.2454263  -0.0312557   0.0344091  -0.6357445   0.2381842   0.0271656
    2   0.4893841   0.0535215   0.0081157   0.2636993   0.0012336   0.0092303
    3   1.7319670  -0.0270289   0.0170813   0.5518485   0.0102098   0.0301607
           19          20          21          22          23          24
    1   0.0012812  -0.0318614 -14.7171163  -0.0035583   0.0000950   0.0429217
    2   0.0084006   0.0102056  -0.7417382  -0.0594728   0.0036341  -0.0016995
    3   0.0230533   0.0181530  -2.2621168  -0.0178524   0.0005573  -0.0011944
           25          26          27          28          29          30
    1   0.0156398  -0.0036603  -0.0091329  -0.0275393   0.0025964   0.0142616
    2  -0.0035854   0.0172437  -0.0130486  -0.0281006   0.0064234  -0.0089778
    3   0.0024897   0.0076917   0.0094395   0.0243772   0.0188708  -0.0182658
           31          32          33          34          35          36
    1   0.0439560  -0.0270168   0.0117187   0.0166757  -0.0050000  -0.1584911
    2   0.0074471  -0.0275943   0.0282252  -0.0013933   0.0023629  -0.0931639
    3   0.0011603   0.0319438  -0.0169213   0.0041550  -0.0160312  -0.2121412
           37          38          39          40          41          42
    1  -0.0102755   0.0012323  -0.0173664   0.0118194   0.0133010  -0.0044374
    2  -0.2762784   0.3215372   0.0080521   0.0111240   0.0089697   0.0079091
    3   0.1857055  -0.0859232  -0.0164698   0.0152147   0.0204328   0.0174041
 Max gradient component =       1.525E+01
 RMS gradient           =       1.909E+00
 Gradient time:  CPU 387.21 s  wall 41.68 s
 Geometry Optimization Parameters
   NAtoms,    NIC,     NZ,  NCons,   NDum,   NFix, NCnnct, MaxDiis
       42     444       0       0       0       0       0       0


** GEOMETRY OPTIMIZATION IN CARTESIAN COORDINATES **
   Searching for a Minimum

   Optimization Cycle:   3

                       Coordinates (Angstroms)
     ATOM                X               Y               Z
      1  O        -3.1117910349    1.5717856837   -0.8899644592
      2  C        -2.9625659285    1.4835924506   -2.2993906547
      3  C        -1.8695821892    1.2875630978   -0.2636972122
      4  N        -0.2046913605    0.9737432571    2.4234287792
      5  C        -0.8444049885    2.3477231796   -0.5637508529
      6  C        -1.4229517641   -0.1475592520   -0.0974039607
      7  C         0.6385435270    0.4300571739    1.2547327567
      8  C        -0.7661489644    2.2876373286    1.9346574330
      9  C        -0.2211456096    2.9131221978    0.6804728049
     10  N        -1.2726869491    4.0814308121   -0.2306614018
     11  C        -2.1141743628   -0.7869123495    1.0958044229
     12  C         0.0976039868   -0.0694085361    0.1361952298
     13  C         4.1180243312    0.0464253276    0.5532024923
     14  O        -1.6888976966   -2.1006488403    1.2273297297
     15  C         0.9797406201   -0.5567236079   -0.8980570978
     16  O         5.0916284055   -0.3595776842   -0.2981205258
     17  C         2.9097687089   -0.0027121274    0.3968299295
     18  C        -2.2209983425   -3.0631510377    0.4460732857
     19  O         0.5131973378   -1.0201590090   -1.9345738954
     20  C         2.4107508089   -0.4988308228   -0.7129408274
     21  C         4.6006266351    0.0655545566    0.6160131019
     22  N        -1.7927979201   -4.3856973928    0.5784578137
     23  O        -3.0815428841   -2.7764687951   -0.3810670101
     24  N         3.2636913347   -0.9701449183   -1.7130941073
     25  H        -3.8987098307    1.6978152400   -2.7713307933
     26  H        -2.6477652460    0.4956960795   -2.5635837238
     27  H        -2.2286678960    2.1908612586   -2.6252339148
     28  H        -0.4744872390    1.8864702191   -1.4557139607
     29  H        -1.6675989965   -0.7453822067   -0.9505619418
     30  H        -0.6234177575    2.9977887730    2.7222205189
     31  H        -1.7745973590    2.0441636857    1.6722521537
     32  H         0.7785924477    3.0232579970    1.0458336854
     33  H        -2.1961044626    4.3497647665    0.1098907076
     34  H        -3.1735246093   -0.7682086318    0.9464719372
     35  H        -1.8694517048   -0.2422938375    1.9837178592
     36  H         4.5978427665    0.4875180415    1.5417727245
     37  H         4.8141281448    0.6579480985   -0.1843987791
     38  H         4.7846570541   -0.9327452497    0.5399761556
     39  H        -1.1026231290   -4.6157835273    1.2418394716
     40  H        -2.1811122678   -5.0883195209    0.0083505308
     41  H         2.8895763478   -1.3418717289   -2.5444188100
     42  H         4.2393476302   -0.9307842338   -1.5868353465
   Point Group: c1    Number of degrees of freedom:   120


   Energy is  -1170.285675764


 ** Taking Steepest Descent Step **
 Calculated Step too Large.  Step scaled by  0.014001
 Step Taken.  Stepsize is  0.300000

                             Maximum     Tolerance    Cnvgd?
         Gradient           ********      0.000300      NO
         Displacement       0.213444      0.001200      NO
         Energy change     *********      0.000001      NO

 ----------------------------------------------------------------
             Standard Nuclear Orientation (Angstroms)
    I     Atom           X                Y                Z
 ----------------------------------------------------------------
    1      O      -3.1115920357     1.5716380332    -0.8897372407
    2      C      -2.9625820462     1.4835972225    -2.2994273767
    3      C      -1.8698879866     1.2877555397    -0.2638917341
    4      N      -0.2040854971     0.9737394355     2.4227371902
    5      C      -0.8446649256     2.3480298194    -0.5632508787
    6      C      -1.4228526177    -0.1473601788    -0.0972170550
    7      C       0.6380556612     0.4302902636     1.2553960215
    8      C      -0.7659562620     2.2874376861     1.9347491473
    9      C      -0.2215343502     2.9131385240     0.6802840047
   10      N      -1.2720015222     4.0808853475    -0.2307563996
   11      C      -2.1142960510    -0.7868212006     1.0956962267
   12      C       0.0976852173    -0.0694690170     0.1361963862
   13      C       4.0050747143     0.0427996008     0.5403707748
   14      O      -1.6886661311    -2.1010453683     1.2275299799
   15      C       0.9794856916    -0.5567837347    -0.8981836490
   16      O       5.0963384800    -0.3615313671    -0.3022090358
   17      C       2.9080040609    -0.0027212665     0.3967542872
   18      C      -2.2211996058    -3.0632194229     0.4458498324
   19      O       0.5131878454    -1.0202212469    -1.9347446915
   20      C       2.4109868622    -0.4989064337    -0.7130753189
   21      C       4.7096621330     0.0710499123     0.6327725695
   22      N      -1.7927715574    -4.3852567735     0.5785900778
   23      O      -3.0815435879    -2.7764957189    -0.3810711392
   24      N       3.2633733382    -0.9701323270    -1.7130852579
   25      H      -3.8988257022     1.6978418036    -2.7713492386
   26      H      -2.6477381278     0.4955683248    -2.5636407097
   27      H      -2.2286002327     2.1909579327    -2.6253038494
   28      H      -0.4742832073     1.8866784096    -1.4558945657
   29      H      -1.6676182322    -0.7454297959    -0.9507017509
   30      H      -0.6235234185     2.9978552872     2.7223558460
   31      H      -1.7749230183     2.0441085122     1.6722435574
   32      H       0.7787926082     3.0234624367     1.0455970216
   33      H      -2.1961912833     4.3495556532     0.1100160734
   34      H      -3.1736481552    -0.7681983094     0.9464411536
   35      H      -1.8694146613    -0.2423113434     1.9838366301
   36      H       4.5990169880     0.4882082702     1.5433444264
   37      H       4.8142042738     0.6599949774    -0.1857746258
   38      H       4.7846479246    -0.9351274398     0.5406127396
   39      H      -1.1024944653    -4.6158431831     1.2419614921
   40      H      -2.1811998349    -5.0884019362     0.0082378086
   41      H       2.8894778042    -1.3419381828    -2.5445701916
   42      H       4.2393805061    -0.9308428302    -1.5869642895
 ----------------------------------------------------------------
 Molecular Point Group                 C1    NOp =  1
 Largest Abelian Subgroup              C1    NOp =  1
 Nuclear Repulsion Energy =  2215.7542724538 hartrees
 There are       88 alpha and       88 beta electrons
 Applying Cartesian multipole field
    Component          Value
    ---------          -----
     (2,0,0)        1.00000E-12
     (0,2,0)        2.00000E-11
     (0,0,2)       -3.00000E-11
 Nucleus-field energy     =     0.0000000262 hartrees
 Requested basis set is 6-31+G(d)
 There are 156 shells and 492 basis functions
 A cutoff of  1.0D-12 yielded   9331 shell pairs
 There are     98789 function pairs
 Smallest overlap matrix eigenvalue = 8.79E-10
 Linear dependence detected in AO basis
 Number of orthogonalized atomic orbitals = 489
 Maximum deviation from orthogonality = 1.624E-10
 No. of orbitals has changed due to linear dependencies.  Generating new SCF guess.
 Guess from superposition of atomic densities
 Warning:  Energy on first SCF cycle will be non-variational
 SAD guess density has 176.000000 electrons
 A restricted hybrid HF-DFT SCF calculation will be
 performed using Relaxed Constraint Minimization + Pulay DIIS
 Exchange:     0.2000 Hartree-Fock + 0.0800 Slater + 0.7200 B88
 Correlation:  0.1900 VWN1RPA + 0.8100 LYP
 Using SG-1 standard quadrature grid
 SCF converges when DIIS error is below 1.0E-08
 Geometry optimization detected.  Setting ReadMinima to 0
 Setting SaveMinima to 0
 using 12 threads for integral computing
 -------------------------------------------------------
 OpenMP Integral computing Module                
 Release: version 2.0, May 2017, Q-Chem Inc. Pleasanton 
 -------------------------------------------------------
 -------------------------------------------------------
 OpenMP BLAS3 based DFT computing Module                
 Release: version 1.0, May 2013, Q-Chem Inc. Pittsburgh 
 -------------------------------------------------------
 -------------------------------------------------------
 OpenMP BLAS3 based DFT computing Module                
 Release: version 1.0, May 2013, Q-Chem Inc. Pittsburgh 
 -------------------------------------------------------
 ---------------------------------------
  Cycle       Energy         DIIS Error
 ---------------------------------------
    1   -1184.4471022767      4.43E-02
    2   -1173.3596972458      6.21E-03
    3   -1173.5929064452      3.62E-03
    4   -1173.8349417659      1.54E-03
    5   -1174.0163348916      1.38E-03
    6   -1174.0819360165      4.36E-04 Done RCA. Switching to DIIS
    7   -1174.3203379789      1.35E-03
    8   -1174.3679332792      7.90E-04
    9   -1174.3808673020      5.49E-04
   10   -1174.3900892923      2.85E-04
   11   -1174.3929819668      1.64E-04
   12   -1174.3932034946      1.23E-04
   13   -1174.3933554984      1.09E-04
   14   -1174.3938296356      2.72E-05
   15   -1174.3938472712      1.73E-05
   16   -1174.3938552024      9.40E-06
   17   -1174.3938569412      6.52E-06
   18   -1174.3938578950      4.13E-06
   19   -1174.3938583206      2.31E-06
   20   -1174.3938585277      2.14E-07
   21   -1174.3938585290      9.24E-08
   22   -1174.3938585292      6.04E-08
   23   -1174.3938585292      3.06E-08
   24   -1174.3938585291      1.14E-08
   25   -1174.3938585290      4.33E-09 Convergence criterion met
 ---------------------------------------
 SCF time:  CPU 1660.78 s  wall 138.47 s
 SCF   energy in the final basis set = -1174.39385853
 Total energy in the final basis set = -1174.39385853
 
 --------------------------------------------------------------
 
                    Orbital Energies (a.u.)
 --------------------------------------------------------------
 
 Alpha MOs
 -- Occupied --
-19.239 -19.203 -19.193 -19.152 -19.126 -14.372 -14.367 -14.357
-14.353 -10.486 -10.351 -10.303 -10.299 -10.282 -10.266 -10.264
-10.256 -10.254 -10.242 -10.239 -10.225 -10.225 -10.207 -10.168
 -1.467  -1.123  -1.071  -1.057  -1.018  -0.966  -0.947  -0.942
 -0.919  -0.903  -0.851  -0.838  -0.830  -0.781  -0.756  -0.741
 -0.728  -0.720  -0.696  -0.686  -0.642  -0.622  -0.598  -0.589
 -0.573  -0.565  -0.554  -0.542  -0.537  -0.526  -0.520  -0.497
 -0.488  -0.486  -0.477  -0.469  -0.462  -0.456  -0.444  -0.443
 -0.434  -0.426  -0.425  -0.403  -0.399  -0.390  -0.366  -0.356
 -0.355  -0.346  -0.338  -0.324  -0.313  -0.303  -0.296  -0.286
 -0.283  -0.281  -0.278  -0.264  -0.258  -0.233  -0.229  -0.172
 -- Virtual --
 -0.140  -0.097  -0.088  -0.028  -0.024  -0.016  -0.010  -0.003
  0.006   0.008   0.017   0.020   0.023   0.031   0.034   0.043
  0.046   0.048   0.050   0.057   0.064   0.068   0.070   0.072
  0.076   0.080   0.083   0.086   0.091   0.095   0.101   0.103
  0.105   0.109   0.111   0.114   0.118   0.120   0.127   0.130
  0.136   0.140   0.141   0.145   0.146   0.147   0.152   0.156
  0.159   0.168   0.171   0.174   0.178   0.180   0.181   0.183
  0.190   0.192   0.193   0.193   0.200   0.202   0.206   0.208
  0.211   0.215   0.215   0.219   0.224   0.229   0.231   0.233
  0.236   0.239   0.240   0.243   0.248   0.251   0.253   0.258
  0.261   0.265   0.266   0.271   0.274   0.276   0.281   0.285
  0.286   0.291   0.293   0.297   0.299   0.302   0.306   0.312
  0.315   0.318   0.320   0.323   0.328   0.332   0.335   0.338
  0.340   0.342   0.346   0.349   0.357   0.359   0.365   0.367
  0.376   0.379   0.381   0.384   0.386   0.396   0.401   0.404
  0.412   0.415   0.421   0.427   0.435   0.442   0.444   0.451
  0.454   0.457   0.463   0.474   0.482   0.498   0.499   0.505
  0.524   0.531   0.549   0.556   0.566   0.581   0.617   0.629
  0.670   0.676   0.689   0.702   0.709   0.713   0.716   0.724
  0.728   0.737   0.740   0.750   0.760   0.766   0.777   0.790
  0.793   0.802   0.807   0.810   0.824   0.830   0.839   0.845
  0.857   0.858   0.863   0.869   0.875   0.895   0.901   0.915
  0.926   0.937   0.948   0.952   0.958   0.971   0.975   0.983
  0.990   1.001   1.012   1.017   1.026   1.027   1.034   1.041
  1.051   1.059   1.064   1.067   1.073   1.085   1.088   1.103
  1.110   1.115   1.117   1.126   1.138   1.147   1.157   1.159
  1.168   1.174   1.178   1.180   1.195   1.197   1.203   1.218
  1.236   1.239   1.251   1.262   1.264   1.278   1.279   1.296
  1.303   1.322   1.329   1.341   1.344   1.353   1.357   1.367
  1.375   1.379   1.384   1.394   1.403   1.408   1.416   1.432
  1.436   1.441   1.456   1.467   1.485   1.491   1.502   1.514
  1.519   1.528   1.532   1.543   1.549   1.563   1.572   1.583
  1.591   1.597   1.628   1.639   1.644   1.646   1.658   1.671
  1.683   1.703   1.716   1.735   1.747   1.752   1.759   1.763
  1.775   1.788   1.802   1.805   1.820   1.826   1.839   1.852
  1.871   1.880   1.886   1.894   1.909   1.915   1.935   1.940
  1.945   1.956   1.977   1.982   1.997   2.021   2.026   2.036
  2.053   2.074   2.091   2.097   2.108   2.122   2.128   2.136
  2.140   2.160   2.176   2.179   2.194   2.209   2.213   2.227
  2.232   2.247   2.263   2.267   2.294   2.312   2.328   2.332
  2.344   2.348   2.364   2.381   2.392   2.410   2.414   2.425
  2.434   2.437   2.448   2.471   2.490   2.496   2.508   2.535
  2.556   2.559   2.568   2.578   2.588   2.591   2.639   2.657
  2.660   2.687   2.696   2.727   2.743   2.745   2.759   2.772
  2.786   2.799   2.808   2.827   2.835   2.839   2.897   2.903
  2.940   2.987   3.019   3.077   3.106   3.124   3.147   3.159
  3.190   3.215   3.277   3.315   3.426   3.643   3.866   3.992
  4.000   4.078   4.131   4.265   4.303   4.314   4.356   4.384
  4.394   4.432   4.465   4.497   4.506   4.539   4.556   4.603
  4.629   4.648   4.678   4.743   4.850   4.869   5.083   5.260
 13.046
 --------------------------------------------------------------
 
          Ground-State Mulliken Net Atomic Charges

     Atom                 Charge (a.u.)
  ----------------------------------------
      1 O                    -0.056516
      2 C                    -0.232904
      3 C                    -2.029331
      4 N                    -0.158687
      5 C                     0.658180
      6 C                     0.874644
      7 C                    -1.604386
      8 C                    -0.596682
      9 C                     0.027862
[...]
 Linear dependence detected in AO basis
 Number of orthogonalized atomic orbitals = 490
 Maximum deviation from orthogonality = 3.476E-10
 Guess MOs from SCF MO coefficient file
 Reading MOs from coefficient file
 Reading MOs from coefficient file
 A restricted hybrid HF-DFT SCF calculation will be
 performed using Relaxed Constraint Minimization + Pulay DIIS
 Exchange:     0.2000 Hartree-Fock + 0.0800 Slater + 0.7200 B88
 Correlation:  0.1900 VWN1RPA + 0.8100 LYP
 Using SG-1 standard quadrature grid
 SCF converges when DIIS error is below 1.0E-08
 Geometry optimization detected.  Setting ReadMinima to 0
 Setting SaveMinima to 0
 using 12 threads for integral computing
 -------------------------------------------------------
 OpenMP Integral computing Module                
 Release: version 2.0, May 2017, Q-Chem Inc. Pleasanton 
 -------------------------------------------------------
 -------------------------------------------------------
 OpenMP BLAS3 based DFT computing Module                
 Release: version 1.0, May 2013, Q-Chem Inc. Pittsburgh 
 -------------------------------------------------------
 -------------------------------------------------------
 OpenMP BLAS3 based DFT computing Module                
 Release: version 1.0, May 2013, Q-Chem Inc. Pittsburgh 
 -------------------------------------------------------
 ---------------------------------------
  Cycle       Energy         DIIS Error
 ---------------------------------------
    1   -1177.3803583380      3.93E-04 Done RCA. Switching to DIIS
    2   -1177.3726233577      8.53E-05
    3   -1177.3712723776      2.15E-04
    4   -1177.3728246834      4.82E-05
    5   -1177.3728985041      1.52E-05
    6   -1177.3729051991      4.64E-06
    7   -1177.3729057387      1.82E-06
    8   -1177.3729058218      8.48E-07
    9   -1177.3729058406      2.77E-07
   10   -1177.3729058427      1.03E-07
   11   -1177.3729058430      3.16E-08
   12   -1177.3729058431      1.25E-08
   13   -1177.3729058431      5.02E-09 Convergence criterion met
 ---------------------------------------
 SCF time:  CPU 792.48 s  wall 66.10 s
 SCF   energy in the final basis set = -1177.37290584
 Total energy in the final basis set = -1177.37290584
 
 --------------------------------------------------------------
 
                    Orbital Energies (a.u.)
 --------------------------------------------------------------
 
 Alpha MOs
 -- Occupied --
-19.265 -19.215 -19.148 -19.138 -19.121 -14.383 -14.378 -14.337
-14.331 -10.360 -10.357 -10.296 -10.278 -10.272 -10.270 -10.258
-10.255 -10.249 -10.247 -10.242 -10.225 -10.218 -10.213 -10.207
 -1.151  -1.126  -1.035  -1.031  -1.007  -0.973  -0.940  -0.935
 -0.917  -0.864  -0.832  -0.799  -0.781  -0.748  -0.735  -0.723
 -0.699  -0.666  -0.629  -0.618  -0.613  -0.586  -0.574  -0.558
 -0.552  -0.546  -0.540  -0.532  -0.518  -0.512  -0.499  -0.496
 -0.491  -0.485  -0.472  -0.471  -0.461  -0.459  -0.452  -0.441
 -0.430  -0.426  -0.422  -0.418  -0.407  -0.401  -0.391  -0.381
 -0.368  -0.356  -0.354  -0.353  -0.333  -0.323  -0.303  -0.300
 -0.297  -0.293  -0.291  -0.271  -0.262  -0.254  -0.243  -0.223
 -- Virtual --
 -0.143  -0.063  -0.048  -0.016  -0.011  -0.008  -0.001   0.006
  0.010   0.013   0.021   0.022   0.027   0.030   0.032   0.040
  0.044   0.051   0.052   0.056   0.060   0.064   0.066   0.071
  0.075   0.076   0.085   0.085   0.087   0.094   0.097   0.101
  0.104   0.105   0.113   0.113   0.118   0.119   0.120   0.128
  0.129   0.134   0.134   0.138   0.140   0.143   0.148   0.156
  0.161   0.163   0.164   0.169   0.170   0.173   0.175   0.179
  0.180   0.187   0.187   0.193   0.194   0.198   0.199   0.203
  0.205   0.211   0.214   0.215   0.220   0.222   0.223   0.228
  0.229   0.234   0.236   0.239   0.243   0.244   0.245   0.247
  0.252   0.254   0.260   0.263   0.269   0.273   0.274   0.278
  0.282   0.284   0.287   0.288   0.293   0.293   0.297   0.299
  0.304   0.305   0.308   0.311   0.316   0.318   0.322   0.324
  0.327   0.330   0.332   0.335   0.338   0.344   0.347   0.349
  0.354   0.357   0.366   0.367   0.369   0.372   0.380   0.381
  0.392   0.392   0.400   0.402   0.410   0.417   0.423   0.426
  0.429   0.434   0.444   0.454   0.461   0.475   0.481   0.486
  0.496   0.506   0.510   0.526   0.539   0.552   0.574   0.612
  0.635   0.645   0.658   0.684   0.698   0.704   0.709   0.728
  0.733   0.737   0.742   0.755   0.763   0.764   0.769   0.781
  0.787   0.795   0.801   0.808   0.809   0.819   0.823   0.836
  0.840   0.850   0.871   0.874   0.883   0.890   0.893   0.897
  0.902   0.918   0.927   0.936   0.941   0.949   0.954   0.963
  0.967   0.973   0.989   1.000   1.001   1.008   1.015   1.019
  1.027   1.030   1.034   1.037   1.044   1.059   1.060   1.066
  1.076   1.084   1.086   1.092   1.100   1.111   1.121   1.134
  1.141   1.146   1.159   1.166   1.172   1.176   1.181   1.193
  1.194   1.204   1.212   1.220   1.230   1.235   1.238   1.253
  1.259   1.266   1.278   1.281   1.288   1.304   1.318   1.319
  1.333   1.344   1.355   1.365   1.375   1.384   1.390   1.391
  1.402   1.413   1.424   1.430   1.448   1.454   1.471   1.474
  1.474   1.487   1.493   1.517   1.530   1.533   1.545   1.553
  1.564   1.580   1.595   1.599   1.614   1.631   1.645   1.650
  1.657   1.670   1.677   1.682   1.688   1.702   1.706   1.732
  1.736   1.752   1.764   1.770   1.774   1.780   1.789   1.799
  1.810   1.815   1.826   1.831   1.835   1.854   1.866   1.872
  1.879   1.886   1.892   1.908   1.930   1.937   1.942   1.952
  1.972   1.973   1.990   2.009   2.029   2.038   2.068   2.074
  2.082   2.091   2.096   2.104   2.112   2.120   2.128   2.139
  2.160   2.171   2.183   2.191   2.195   2.202   2.219   2.225
  2.236   2.254   2.263   2.274   2.275   2.285   2.329   2.337
  2.350   2.363   2.377   2.384   2.398   2.407   2.414   2.432
  2.447   2.463   2.471   2.487   2.497   2.519   2.531   2.548
  2.565   2.583   2.597   2.630   2.647   2.677   2.684   2.695
  2.708   2.732   2.770   2.772   2.778   2.793   2.808   2.835
  2.847   2.869   2.879   2.897   2.904   2.927   2.988   3.016
  3.039   3.068   3.071   3.088   3.122   3.167   3.204   3.292
  3.336   3.388   3.981   3.993   4.059   4.194   4.227   4.264
  4.296   4.322   4.351   4.353   4.390   4.423   4.450   4.499
  4.508   4.555   4.565   4.591   4.612   4.630   4.728   4.806
  4.859   5.007
 --------------------------------------------------------------
 
          Ground-State Mulliken Net Atomic Charges

     Atom                 Charge (a.u.)
  ----------------------------------------
      1 O                    -0.043190
      2 C                    -0.300468
      3 C                    -1.422072
      4 N                    -0.075538
      5 C                    -0.218110
      6 C                     0.048648
      7 C                    -0.836677
      8 C                    -0.339174
      9 C                     0.040717
     10 N                    -0.344817
     11 C                    -0.424044
     12 C                     1.688715
     13 C                     0.684269
     14 O                    -0.179686
     15 C                    -0.616525
     16 O                    -0.945462
     17 C                    -0.318167
     18 C                     0.680749
     19 O                    -0.477063
     20 C                     0.158675
     21 C                    -0.177517
     22 N                    -0.787829
     23 O                    -0.467657
     24 N                    -0.716868
     25 H                     0.232418
     26 H                     0.257649
     27 H                     0.229214
     28 H                     0.246793
     29 H                     0.316793
     30 H                     0.213157
     31 H                     0.168960
     32 H                     0.228171
     33 H                     0.392851
     34 H                     0.235371
     35 H                     0.222384
     36 H                     0.217534
     37 H                     0.222357
     38 H                     0.447494
     39 H                     0.405752
     40 H                     0.415212
     41 H                     0.389509
     42 H                     0.547472
  ----------------------------------------
  Sum of atomic charges =     0.000000

 -----------------------------------------------------------------
                    Cartesian Multipole Moments
 -----------------------------------------------------------------
    Charge (ESU x 10^10)
                 0.0000
    Dipole Moment (Debye)
         X      -6.9439      Y       1.6732      Z       1.7348
       Tot       7.3503
    Quadrupole Moments (Debye-Ang)
        XX    -166.1298     XY      -6.3391     YY    -127.4811
        XZ      15.9363     YZ     -12.9533     ZZ    -141.6853
    Octopole Moments (Debye-Ang^2)
       XXX    -199.2613    XXY      76.0982    XYY      -2.5955
       YYY    -154.6338    XXZ      87.7939    XYZ      -4.0777
       YYZ      21.0807    XZZ     -47.9591    YZZ      21.0109
       ZZZ     -26.9048
    Hexadecapole Moments (Debye-Ang^3)
      XXXX   -7057.5862   XXXY     -41.1724   XXYY   -1483.2825
      XYYY     145.9143   YYYY   -2971.9976   XXXZ     635.3962
      XXYZ    -181.5016   XYYZ     -23.5917   YYYZ     -31.9527
      XXZZ   -1150.7233   XYZZ     -91.3168   YYZZ    -775.1211
      XZZZ     -62.1564   YZZZ    -108.2711   ZZZZ   -1489.5812
 -----------------------------------------------------------------
 Calculating analytic gradient of the SCF energy
 Gradient of SCF Energy
            1           2           3           4           5           6
    1  -0.0017039  -0.0001132   0.0018180   0.0016476  -0.0030993  -0.0017984
    2   0.0033192   0.0000149   0.0027388   0.0015011   0.0047284   0.0011022
    3   0.0032419  -0.0014190  -0.0004597   0.0012640  -0.0009473  -0.0012724
            7           8           9          10          11          12
    1  -0.0010602   0.0001659   0.0014222   0.0022285  -0.0002618  -0.0027358
    2  -0.0007019  -0.0021410   0.0013536  -0.0039259  -0.0009459  -0.0032560
    3   0.0006528   0.0046154   0.0045446  -0.0044814   0.0005222  -0.0025374
           13          14          15          16          17          18
    1   0.0019456   0.0010117   0.0006503  -0.0003300   0.0082084   0.0005920
    2   0.0026728  -0.0006564   0.0032282  -0.0012388  -0.0024821  -0.0006551
    3  -0.0056595  -0.0010009  -0.0021571   0.0046249   0.0106496  -0.0010765
           19          20          21          22          23          24
    1  -0.0043201   0.0010453  -0.0029781   0.0003607   0.0001220  -0.0033769
    2   0.0000689   0.0016375  -0.0038759  -0.0000551  -0.0009760   0.0020264
    3  -0.0009097   0.0054313  -0.0022578  -0.0009176  -0.0012420   0.0012075
           25          26          27          28          29          30
    1  -0.0014104   0.0003483   0.0012302   0.0010513   0.0001645  -0.0013287
    2  -0.0006631  -0.0045589   0.0008901  -0.0006705   0.0015784   0.0022397
    3   0.0002902   0.0020532  -0.0023977   0.0002832   0.0008811   0.0003616
           31          32          33          34          35          36
    1   0.0010039   0.0019425   0.0046823  -0.0008150   0.0002119  -0.0026938
    2  -0.0026918   0.0013828  -0.0008348  -0.0011916  -0.0015271  -0.0019911
    3  -0.0035475  -0.0012366  -0.0027360  -0.0000906   0.0015293  -0.0029290
           37          38          39          40          41          42
    1  -0.0031216   0.0017311  -0.0007756   0.0004748  -0.0016043  -0.0005321
    2   0.0022600   0.0010703  -0.0003051  -0.0008922   0.0001564   0.0022668
    3  -0.0002069   0.0002122  -0.0004452   0.0012674  -0.0010527  -0.0026518
 Max gradient component =       1.065E-02
 RMS gradient           =       2.436E-03
 Gradient time:  CPU 372.11 s  wall 40.90 s
 Geometry Optimization Parameters
   NAtoms,    NIC,     NZ,  NCons,   NDum,   NFix, NCnnct, MaxDiis
       42     444       0       0       0       0       0       0

 Cartesian Hessian Update
 Hessian Updated using BFGS Update


** GEOMETRY OPTIMIZATION IN CARTESIAN COORDINATES **
   Searching for a Minimum

   Optimization Cycle:  50

                       Coordinates (Angstroms)
     ATOM                X               Y               Z
      1  O        -3.0120349292    1.2459810276   -1.2180285576
      2  C        -3.1071064884    1.6075114389   -2.6308631164
      3  C        -1.9196328541    1.2658450986   -0.4892040233
      4  N         0.7532336924    1.2731972415    1.9668530154
      5  C        -0.9913347294    2.4347783097   -0.6103806555
      6  C        -1.5665435701   -0.0992177003    0.0748436516
      7  C         0.8720693018    0.3984004503    1.0101238593
      8  C        -0.4053721275    2.1489265096    1.8957700597
      9  C        -0.2876268327    2.9575204737    0.5999309464
     10  N        -1.3920725608    3.7184867962   -0.0185104638
     11  C        -2.2849497053   -0.7844315941    1.2674138483
     12  C        -0.0874515982   -0.1173306128    0.0433084198
     13  C         3.3991918094    0.3807478018    0.9635723568
     14  O        -1.8363668910   -2.1497705401    1.3283152767
     15  C         0.5774632490   -0.6914688266   -1.0860592541
     16  O         6.0309907125   -1.0565490536   -0.9453546014
     17  C         2.2330970385   -0.0749329730    0.5726892456
     18  C        -2.3686889252   -3.0306557653    0.4233306233
     19  O         0.0912865929   -1.0883751406   -2.1557663780
     20  C         2.0599145910   -0.7269377446   -0.7483585832
     21  C         4.5879167263    0.8079044292    1.2490550158
     22  N        -1.8494091355   -4.2692495203    0.6283104830
     23  O        -3.2002368136   -2.7369644499   -0.4182909895
     24  N         2.9691766571   -1.1547952276   -1.5336590429
     25  H        -4.1607628530    1.8342513816   -2.7974874157
     26  H        -2.8194579618    0.6925152742   -3.1631799941
     27  H        -2.4672647288    2.4546044288   -2.8962060920
     28  H        -0.5001096752    2.5249726322   -1.5807824300
     29  H        -1.8822832726   -0.7235334907   -0.7735683031
     30  H        -0.4301215236    2.8134048949    2.7687719062
     31  H        -1.3737514572    1.6113529221    1.8466955956
     32  H         0.6837794542    3.4284230523    0.4439910406
     33  H        -2.2488533257    3.6133402921    0.5202272941
     34  H        -3.3702272926   -0.7608606871    1.1258570250
     35  H        -2.0111257527   -0.3782832739    2.2434410106
     36  H         5.2607319203    0.2230374516    1.8673186198
     37  H         4.9289674581    1.7682070274    0.8610460187
     38  H         6.0205075647   -1.5211167634   -0.0977601072
     39  H        -1.1032411921   -4.4125683419    1.2913493403
     40  H        -2.0878498444   -5.0117573193   -0.0107144350
     41  H         2.5186450795   -1.4857292733   -2.3991448618
     42  H         5.0921837870   -1.0123447205   -1.2281710996
   Point Group: c1    Number of degrees of freedom:   120


   Energy is  -1177.372905843


 Translations and Rotations Projected Out of Hessian

 69 Hessian modes will be used to form the next step
  Hessian Eigenvalues:
     0.006239    0.088495    0.164388    0.188968    0.223959    0.302990
     0.587394    0.679096    0.999991    0.999999    1.000000    1.000000
     1.000000    1.000000    1.000000    1.000000    1.000000    1.000000
     1.000000    1.000000    1.000000    1.000000    1.000000    1.000000
     1.000000    1.000000    1.000000    1.000000    1.000000    1.000000
     1.000000    1.000000    1.000001    1.000004    1.000007    1.000012
     1.000014    1.000024    1.000028    1.000054    1.000074    1.000125
     1.000159    1.000395    1.000556    1.000702    1.000867    1.001167
     1.001648    1.002465    1.003687    1.005223    1.006711    1.008018
     1.012640    1.016613    1.019122    1.029182    1.057576    1.070438
     1.110532    1.120185    1.143410    1.264085    1.320546    1.432362
     1.818348    2.557113    6.224827

 Minimum Search - Taking Simple RFO Step
 Searching for Lamda that Minimizes Along All modes
 Value Taken    Lamda =  -0.00183887
 Step Taken.  Stepsize is  0.282269

                             Maximum     Tolerance    Cnvgd?
         Gradient           0.010650      0.000300      NO
         Displacement       0.110685      0.001200      NO
         Energy change     -0.001290      0.000001      NO

 ----------------------------------------------------------------
             Standard Nuclear Orientation (Angstroms)
    I     Atom           X                Y                Z
 ----------------------------------------------------------------
    1      O      -3.0024164220     1.2230345971    -1.2402511458
    2      C      -3.1111171617     1.6157132111    -2.6417790018
    3      C      -1.9229181590     1.2582423530    -0.4946285798
    4      N       0.7602241369     1.2772359974     1.9603258469
    5      C      -1.0032423367     2.4331119856    -0.6081350154
    6      C      -1.5690392167    -0.1013220829     0.0815697489
    7      C       0.8817211603     0.3937640353     1.0122241970
    8      C      -0.4016494959     2.1521808881     1.8890180936
    9      C      -0.2972198159     2.9499388081     0.5935032356
   10      N      -1.4136685210     3.7170958293    -0.0050229477
   11      C      -2.2892740953    -0.7808701015     1.2741831958
   12      C      -0.0844482569    -0.1199728844     0.0495624656
   13      C       3.4061040986     0.3801077342     0.9523143834
   14      O      -1.8466243978    -2.1463976591     1.3372513142
   15      C       0.5753018456    -0.6977144738    -1.0838008583
   16      O       6.0701716554    -1.0726331544    -0.9528796427
   17      C       2.2399744813    -0.0675499303     0.5585812412
   18      C      -2.3736875143    -3.0261139649     0.4290739828
   19      O       0.0772759917    -1.0889220501    -2.1497809019
   20      C       2.0642070658    -0.7359924534    -0.7563921150
   21      C       4.5802472560     0.8184934391     1.2660074105
   22      N      -1.8542225701    -4.2655589384     0.6328996949
   23      O      -3.2043671001    -2.7316906191    -0.4125976760
   24      N       2.9696738383    -1.1725168690    -1.5440303500
   25      H      -4.1665809145     1.8440360994    -2.7989859290
   26      H      -2.8260322604     0.7146457151    -3.1977618718
   27      H      -2.4772568507     2.4688473830    -2.8984312987
   28      H      -0.5234953272     2.5407691960    -1.5831231537
   29      H      -1.8781403356    -0.7329863160    -0.7658513679
   30      H      -0.4147191199     2.8197598751     2.7578892168
   31      H      -1.3718387827     1.6208510938     1.8585919529
   32      H       0.6655289011     3.4333788376     0.4407892537
   33      H      -2.2624802469     3.5927948498     0.5467454781
   34      H      -3.3723782674    -0.7521407210     1.1323437787
   35      H      -2.0147933192    -0.3708058589     2.2470369406
   36      H       5.2638023375     0.2254548665     1.8700287663
   37      H       4.9166946441     1.7932909601     0.9196181615
   38      H       6.0537677634    -1.5465079658    -0.1107269080
   39      H      -1.1031431365    -4.4081369325     1.2906008684
   40      H      -2.0837962559    -5.0038819718    -0.0147229217
   41      H       2.5193705054    -1.5142954821    -2.4069365111
   42      H       5.1397637927    -1.0202014100    -1.2435967826
 ----------------------------------------------------------------
 Molecular Point Group                 C1    NOp =  1
 Largest Abelian Subgroup              C1    NOp =  1
 Nuclear Repulsion Energy =  2149.9019198625 hartrees
 There are       88 alpha and       88 beta electrons


 *******************************************
 **  MAXIMUM OPTIMIZATION CYCLES REACHED  **
 *******************************************

 Q-Chem fatal error occurred in module 0, line  456, PE  0:

 Maximum optimization cycles reached

