
Running Job 1 of 1 mol.qin
qchem mol.qin_10791.0 /tmp/scratch/ 0
/clusterfs/mp/software/qchem6.0/exe/qcprog.exe_s mol.qin_10791.0 /tmp/scratch/
                  Welcome to Q-Chem
     A Quantum Leap Into The Future Of Chemistry


 Q-Chem 6.0, Q-Chem, Inc., Pleasanton, CA (2022)

 E. Epifanovsky,  A. T. B. Gilbert,  Xintian Feng,  Joonho Lee,  Yuezhi Mao,  
 N. Mardirossian,  P. Pokhilko,  A. White,  M. Wormit,  M. P. Coons,  
 A. L. Dempwolff,  Zhengting Gan,  D. Hait,  P. R. Horn,  L. D. Jacobson,  
 I. Kaliman,  J. Kussmann,  A. W. Lange,  Ka Un Lao,  D. S. Levine,  Jie Liu,  
 S. C. McKenzie,  A. F. Morrison,  K. Nanda,  F. Plasser,  D. R. Rehn,  
 M. L. Vidal,  Zhi-Qiang You,  Ying Zhu,  B. Alam,  B. Albrecht,  
 A. Aldossary,  E. Alguire,  J. H. Andersen,  V. Athavale,  D. Barton,  
 K. Begam,  A. Behn,  N. Bellonzi,  Y. A. Bernard,  E. J. Berquist,  
 H. Burton,  A. Carreras,  K. Carter-Fenk,  Romit Chakraborty,  
 Chandrima Chakravarty,  Junhan Chen,  A. D. Chien,  K. D. Closser,  
 V. Cofer-Shabica,  L. Cunha,  S. Dasgupta,  Jia Deng,  M. de Wergifosse,  
 M. Diedenhofen,  Hainam Do,  S. Ehlert,  Po-Tung Fang,  S. Fatehi,  
 Qingguo Feng,  T. Friedhoff,  B. Ganoe,  J. Gayvert,  Qinghui Ge,  
 G. Gidofalvi,  M. Goldey,  J. Gomes,  C. Gonzalez-Espinoza,  S. Gulania,  
 A. Gunina,  J. A. Gyamfi,  M. W. D. Hanson-Heine,  P. H. P. Harbach,  
 A. W. Hauser,  M. F. Herbst,  M. Hernandez Vera,  M. Hodecker,  
 Z. C. Holden,  S. Houck,  Xunkun Huang,  Kerwin Hui,  B. C. Huynh,  
 K. Ikeda,  M. Ivanov,  Hyunjun Ji,  Zuxin Jin,  Hanjie Jiang,  B. Kaduk,  
 S. Kaehler,  R. Kang,  K. Khistyaev,  Jaehoon Kim,  Yongbin Kim,  
 P. Klunzinger,  Z. Koczor-Benda,  Joong Hoon Koh,  D. Kosenkov,  
 Saikiran Kotaru,  L. Koulias,  T. Kowalczyk,  C. M. Krauter,  K. Kue,  
 A. Kunitsa,  T. Kus,  A. Landau,  K. V. Lawler,  D. Lefrancois,  S. Lehtola,  
 Rain Li,  Shaozhi Li,  Yi-Pei Li,  Jiashu Liang,  M. Liebenthal,  
 Hung-Hsuan Lin,  You-Sheng Lin,  Fenglai Liu,  Kuan-Yu Liu,  
 M. Loipersberger,  A. Luenser,  C. Malbon,  A. Manjanath,  P. Manohar,  
 E. Mansoor,  S. F. Manzer,  Shan-Ping Mao,  A. V. Marenich,  T. Markovich,  
 S. Mason,  F. Matz,  S. A. Maurer,  P. F. McLaughlin,  M. F. S. J. Menger,  
 J.-M. Mewes,  S. A. Mewes,  P. Morgante,  Mohammad Mostafanejad,  
 J. W. Mullinax,  K. J. Oosterbaan,  G. Paran,  V. Parravicini,  
 Alexander C. Paul,  Suranjan K. Paul,  F. Pavosevic,  Zheng Pei,  S. Prager,  
 E. I. Proynov,  E. Ramos,  B. Rana,  A. E. Rask,  A. Rettig,  R. M. Richard,  
 F. Rob,  E. Rossomme,  T. Scheele,  M. Scheurer,  M. Schneider,  
 P. E. Schneider,  N. Sergueev,  S. M. Sharada,  Hengyuan Shen,  
 W. Skomorowski,  D. W. Small,  C. J. Stein,  Yingli Su,  Yu-Chuan Su,  
 E. J. Sundstrom,  Zhen Tao,  J. Thirman,  Hung-Yi Tsai,  T. Tsuchimochi,  
 N. M. Tubman,  C. Utku,  S. P. Veccham,  O. Vydrov,  J. Wenzel,  
 Jonathan Wong,  J. Witte,  A. Yamada,  Chou-Hsun Yang,  Kun Yao,  
 S. Yeganeh,  S. R. Yost,  A. Zech,  F. Zeller,  Igor Ying Zhang,  
 Xing Zhang,  Yu Zhang,  D. Zuev,  A. Aspuru-Guzik,  A. T. Bell,  
 N. A. Besley,  K. B. Bravaya,  B. R. Brooks,  D. Casanova,  Jeng-Da Chai,  
 Hsing-Ta Chen,  S. Coriani,  C. J. Cramer,  A. E. DePrince, III,  
 R. A. DiStasio Jr.,  A. Dreuw,  B. D. Dunietz,  T. R. Furlani,  
 W. A. Goddard III,  S. Grimme,  S. Hammes-Schiffer,  T. Head-Gordon,  
 W. J. Hehre,  Chao-Ping Hsu,  T.-C. Jagau,  Yousung Jung,  A. Klamt,  
 Jing Kong,  D. S. Lambrecht,  Xiangyuan Li,  WanZhen Liang,  N. J. Mayhall,  
 C. W. McCurdy,  J. B. Neaton,  T. Neudecker,  C. Ochsenfeld,  
 J. A. Parkhill,  R. Peverati,  V. A. Rassolov,  Haisheng Ren,  Yihan Shao,  
 L. V. Slipchenko,  R. P. Steele,  J. E. Subotnik,  A. J. W. Thom,  
 A. Tkatchenko,  D. G. Truhlar,  T. Van Voorhis,  Fan Wang,  
 T. A. Wesolowski,  K. B. Whaley,  H. L. Woodcock III,  P. M. Zimmerman,  
 S. Faraji,  P. M. W. Gill,  M. Head-Gordon,  J. M. Herbert,  A. I. Krylov

 Contributors to earlier versions of Q-Chem not listed above: 
 R. D. Adamson,  B. Austin,  R. Baer,  J. Baker,  G. J. O. Beran,  
 K. Brandhorst,  S. T. Brown,  E. F. C. Byrd,  Arup K. Chakraborty,  
 G. K. L. Chan,  Chun-Min Chang,  Yunqing Chen,  C.-L. Cheng,  
 Siu Hung Chien,  D. M. Chipman,  D. L. Crittenden,  H. Dachsel,  
 R. J. Doerksen,  A. D. Dutoi,  R. G. Edgar,  J. Fosso-Tande,  
 L. Fusti-Molnar,  D. Ghosh,  A. Ghysels,  A. Golubeva-Zadorozhnaya,  
 J. Gonthier,  M. S. Gordon,  S. R. Gwaltney,  G. Hawkins,  J. E. Herr,  
 A. Heyden,  S. Hirata,  E. G. Hohenstein,  G. Kedziora,  F. J. Keil,  
 C. Kelley,  Jihan Kim,  R. A. King,  R. Z. Khaliullin,  P. P. Korambath,  
 W. Kurlancheek,  A. Laurent,  A. M. Lee,  M. S. Lee,  S. V. Levchenko,  
 Ching Yeh Lin,  D. Liotard,  E. Livshits,  R. C. Lochan,  I. Lotan,  
 L. A. Martinez-Martinez,  P. E. Maslen,  N. Nair,  D. P. O'Neill,  
 D. Neuhauser,  E. Neuscamman,  C. M. Oana,  R. Olivares-Amaya,  R. Olson,  
 T. M. Perrine,  B. Peters,  P. A. Pieniazek,  A. Prociuk,  Y. M. Rhee,  
 J. Ritchie,  M. A. Rohrdanz,  E. Rosta,  N. J. Russ,  H. F. Schaefer III,  
 M. W. Schmidt,  N. E. Schultz,  S. Sharma,  N. Shenvi,  C. D. Sherrill,  
 A. C. Simmonett,  A. Sodt,  T. Stein,  D. Stuck,  K. S. Thanthiriwatte,  
 V. Vanovschi,  L. Vogt,  Tao Wang,  A. Warshel,  M. A. Watson,  
 C. F. Williams,  Q. Wu,  X. Xu,  Jun Yang,  W. Zhang,  Yan Zhao

   Please cite Q-Chem as follows:
  "Software for the frontiers of quantum chemistry:
   An overview of developments in the Q-Chem 5 package"
   J. Chem. Phys. 155, 084801 (2021)
   https://doi.org/10.1063/5.0055522 (open access)

 Q-Chem 6.0.2 for Intel X86 EM64T Linux

 Parts of Q-Chem use Armadillo 9.900.5 (Nocturnal Misbehaviour).
 http://arma.sourceforge.net/

 Q-Chem begins on Fri Jun 30 11:40:02 2023  

 Host: 
0

     Scratch files written to /tmp/scratch//
 Dec722 |scratch|qcdevops|jenkins|workspace|build_RNUM -1
 Processing $rem in /clusterfs/mp/software/qchem6.0/config/preferences:
 Processing $rem in /global/home/users/smblau/.qchemrc:
 Symmetry turned off for PCM/SM12/SMD calculation

 Checking the input file for inconsistencies... 	...done.

--------------------------------------------------------------
User input:
--------------------------------------------------------------
$molecule
0 2
O      0.2914152612     -4.5445442042      3.0161751692
O     -1.5304339813     -3.2367784149      2.9281824830
C      0.8295530097     -3.9366715322      4.2435768817
C     -0.1230659566     -4.2007068432      5.3950468933
C      2.1314679452     -4.6891692104      4.4343334880
C      1.0891180123     -2.4551760936      4.0360799358
C     -0.8605961838     -4.1422775145      2.4861350017
C     -1.2116960079     -4.9374875952      1.2364985602
C     -2.6517342220     -4.6163181541      0.8175486720
H     -0.3280027986     -5.2718477365      5.4811047398
H      0.3385752508     -3.8702900027      6.3302131252
H     -1.0648795958     -3.6651308672      5.2679406205
H      2.8060542012     -4.5134182893      3.5911657969
H      1.9470806743     -5.7639090000      4.5122126635
H      2.6262968839     -4.3565250871      5.3502869188
H      1.6558832285     -2.2928927340      3.1137215346
H      0.1610759990     -1.8839982580      3.9934806758
H      1.6896565513     -2.0812658626      4.8711834869
C     -1.0164727255     -6.4347242690      1.4797433050
H     -1.5581303737     -6.7836873265      2.3638647772
H      0.0398286180     -6.6745120675      1.6184484158
H     -1.3829909813     -6.9970496209      0.6140214151
C     -0.2642252347     -4.4709101412      0.1263230216
H     -0.3925640144     -3.4049115606     -0.0773598657
H     -0.4789826082     -5.0237708051     -0.7947386622
H      0.7815646456     -4.6470496024      0.3929852586
C     -3.7386359783     -5.1159593031      1.7522230896
H     -2.8000270794     -5.0438393410     -0.1827625673
H     -2.7338896931     -3.5296566953      0.7024878530
H     -3.7691013071     -6.2090022139      1.7949719714
H     -4.7241345868     -4.7791401993      1.4163909720
H     -3.5933064317     -4.7432620029      2.7707341718
S     -3.1095688405     -0.8338328120      1.9223394071
C     -1.4763090285     -0.6530852521      0.5550909541
C     -1.7891128457     -0.8441888555     -0.7833876727
H     -2.8272949027     -0.8142864366     -1.1170758647
C     -0.7598974121     -1.0500002977     -1.7040885688
H     -0.9909069977     -1.1779594339     -2.7596192371
C      0.5668601276     -1.0856329376     -1.2708524494
H      1.3694627147     -1.2422432626     -1.9871957374
C      0.8611607361     -0.9378379065      0.0855095498
H      1.8948169178     -0.9779391480      0.4236494734
C     -0.1682729563     -0.7392449587      1.0085213741
H      0.0565492183     -0.6401064636      2.0671273707
C     -2.3463554075     -0.1413857476      3.3511116054
C     -1.6861008228      1.0969952276      3.3571269080
C     -1.1464262498      1.5804639094      4.5468959620
H     -0.6384784857      2.5416032340      4.5463233852
C     -1.2451485056      0.8426672145      5.7244777657
H     -0.8196610583      1.2241103280      6.6487441345
C     -1.9004041859     -0.3950415761      5.7114055631
H     -1.9807860619     -0.9794453631      6.6245370395
C     -2.4557420740     -0.8829375023      4.5380818681
H     -2.9596492827     -1.8437276305      4.5221216535
C     -4.1249281175      0.4004756787      1.1655216406
C     -3.6353302924      1.6229046114      0.6843711827
H     -1.5667550440      1.6629973908      2.4414322262
C     -4.5234891084      2.5509004307      0.1444384244
H     -4.1442520184      3.5017916858     -0.2216525594
C     -5.8845872809      2.2671234587      0.0644736389
H     -6.5705578262      2.9985074190     -0.3548381451
C     -6.3661310487      1.0371574340      0.5275291796
H     -7.4256662542      0.8058548518      0.4619447035
C     -5.4944582701      0.1113707308      1.0849708426
H     -5.8630706203     -0.8369243514      1.4678940842
H     -2.5707192368      1.8246188792      0.6894404950
$end

$rem
job_type = freq
basis = def2-svpd
max_scf_cycles = 100
gen_scfman = true
xc_grid = 3
thresh = 14
s2thresh = 16
scf_algorithm = diis
resp_charges = true
symmetry = false
sym_ignore = true
method = b97mv
solvent_method = pcm
mem_total = 170000
$end

$pcm
heavypoints 194
hpoints 194
radii uff
theory cpcm
vdwscale 1.1
$end

$solvent
dielectric 78.39
$end
--------------------------------------------------------------
 ----------------------------------------------------------------
             Standard Nuclear Orientation (Angstroms)
    I     Atom           X                Y                Z
 ----------------------------------------------------------------
    1      O       0.2914152612    -4.5445442042     3.0161751692
    2      O      -1.5304339813    -3.2367784149     2.9281824830
    3      C       0.8295530097    -3.9366715322     4.2435768817
    4      C      -0.1230659566    -4.2007068432     5.3950468933
    5      C       2.1314679452    -4.6891692104     4.4343334880
    6      C       1.0891180123    -2.4551760936     4.0360799358
    7      C      -0.8605961838    -4.1422775145     2.4861350017
    8      C      -1.2116960079    -4.9374875952     1.2364985602
    9      C      -2.6517342220    -4.6163181541     0.8175486720
   10      H      -0.3280027986    -5.2718477365     5.4811047398
   11      H       0.3385752508    -3.8702900027     6.3302131252
   12      H      -1.0648795958    -3.6651308672     5.2679406205
   13      H       2.8060542012    -4.5134182893     3.5911657969
   14      H       1.9470806743    -5.7639090000     4.5122126635
   15      H       2.6262968839    -4.3565250871     5.3502869188
   16      H       1.6558832285    -2.2928927340     3.1137215346
   17      H       0.1610759990    -1.8839982580     3.9934806758
   18      H       1.6896565513    -2.0812658626     4.8711834869
   19      C      -1.0164727255    -6.4347242690     1.4797433050
   20      H      -1.5581303737    -6.7836873265     2.3638647772
   21      H       0.0398286180    -6.6745120675     1.6184484158
   22      H      -1.3829909813    -6.9970496209     0.6140214151
   23      C      -0.2642252347    -4.4709101412     0.1263230216
   24      H      -0.3925640144    -3.4049115606    -0.0773598657
   25      H      -0.4789826082    -5.0237708051    -0.7947386622
   26      H       0.7815646456    -4.6470496024     0.3929852586
   27      C      -3.7386359783    -5.1159593031     1.7522230896
   28      H      -2.8000270794    -5.0438393410    -0.1827625673
   29      H      -2.7338896931    -3.5296566953     0.7024878530
   30      H      -3.7691013071    -6.2090022139     1.7949719714
   31      H      -4.7241345868    -4.7791401993     1.4163909720
   32      H      -3.5933064317    -4.7432620029     2.7707341718
   33      S      -3.1095688405    -0.8338328120     1.9223394071
   34      C      -1.4763090285    -0.6530852521     0.5550909541
   35      C      -1.7891128457    -0.8441888555    -0.7833876727
   36      H      -2.8272949027    -0.8142864366    -1.1170758647
   37      C      -0.7598974121    -1.0500002977    -1.7040885688
   38      H      -0.9909069977    -1.1779594339    -2.7596192371
   39      C       0.5668601276    -1.0856329376    -1.2708524494
   40      H       1.3694627147    -1.2422432626    -1.9871957374
   41      C       0.8611607361    -0.9378379065     0.0855095498
   42      H       1.8948169178    -0.9779391480     0.4236494734
   43      C      -0.1682729563    -0.7392449587     1.0085213741
   44      H       0.0565492183    -0.6401064636     2.0671273707
   45      C      -2.3463554075    -0.1413857476     3.3511116054
   46      C      -1.6861008228     1.0969952276     3.3571269080
   47      C      -1.1464262498     1.5804639094     4.5468959620
   48      H      -0.6384784857     2.5416032340     4.5463233852
   49      C      -1.2451485056     0.8426672145     5.7244777657
   50      H      -0.8196610583     1.2241103280     6.6487441345
   51      C      -1.9004041859    -0.3950415761     5.7114055631
   52      H      -1.9807860619    -0.9794453631     6.6245370395
   53      C      -2.4557420740    -0.8829375023     4.5380818681
   54      H      -2.9596492827    -1.8437276305     4.5221216535
   55      C      -4.1249281175     0.4004756787     1.1655216406
   56      C      -3.6353302924     1.6229046114     0.6843711827
   57      H      -1.5667550440     1.6629973908     2.4414322262
   58      C      -4.5234891084     2.5509004307     0.1444384244
   59      H      -4.1442520184     3.5017916858    -0.2216525594
   60      C      -5.8845872809     2.2671234587     0.0644736389
   61      H      -6.5705578262     2.9985074190    -0.3548381451
   62      C      -6.3661310487     1.0371574340     0.5275291796
   63      H      -7.4256662542     0.8058548518     0.4619447035
   64      C      -5.4944582701     0.1113707308     1.0849708426
   65      H      -5.8630706203    -0.8369243514     1.4678940842
   66      H      -2.5707192368     1.8246188792     0.6894404950
 ----------------------------------------------------------------
 Nuclear Repulsion Energy =        3446.26455428 hartrees
 There are      118 alpha and      117 beta electrons
 Requested basis set is def2-SVPD
 There are 393 shells and 913 basis functions

 Total QAlloc Memory Limit 170000 MB
 Mega-Array Size       188 MB
 MEM_STATIC part       192 MB

 Using C-PCM dielectric factor f(eps) = (eps-1)/eps = 0.987243
 Discretize the solute cavity surface with Lebedev spheres
	Using 194 Lebedev grid points for each H atom
	Using 194 Lebedev grid points for other atoms
	Atomic van der Waals radii (UFF set) will be scaled by 1.10
 Using smooth SwiG surface discretization
 Remove points where switching function is < 1.0e-08
 Keep 4608 surface tesserae and discard 8196 interior tesserae
 Molecular Surface Area = 532.774 Angst**2

 A cutoff of  1.0D-16 yielded  66530 shell pairs
 There are    358784 function pairs (    409471 Cartesian)
 Smallest overlap matrix eigenvalue = 1.70E-06
 Guess from superposition of atomic densities
 Warning:  Energy on first SCF cycle will be non-variational
 SAD guess density has 235.000000 electrons

 -----------------------------------------------------------------------
  General SCF calculation program by
  Eric Jon Sundstrom, Paul Horn, Yuezhi Mao, Dmitri Zuev, Alec White,
  David Stuck, Shaama M.S., Shane Yost, Joonho Lee, David Small,
  Daniel Levine, Susi Lehtola, Hugh Burton, Evgeny Epifanovsky,
  Bang C. Huynh
 -----------------------------------------------------------------------
 Exchange:  B97M-V      Correlation:  B97M-V
 Using SG-3 standard quadrature grid
 Nonlocal Correlation:  VV10 with C = 0.0100 and b = 6.00 and scale = 1.00000
 Grid used for NLC:  SG-1 standard quadrature
 using 40 threads for integral computing
 -------------------------------------------------------
 OpenMP Integral computing Module                
 Release: version 1.0, May 2013, Q-Chem Inc. Pittsburgh 
 -------------------------------------------------------
 C-PCM solvent model [f = (eps-1)/eps], solve by matrix inversion
 A unrestricted SCF calculation will be
 performed using DIIS
 SCF converges when DIIS error is below 1.0e-08
 ---------------------------------------
  Cycle       Energy         DIIS error
 ---------------------------------------
    1   -1641.0290347638      1.03e-02  
    2   -1634.7843761788      1.27e-03  
    3   -1634.0613181571      1.83e-03  
    4   -1635.4711581448      3.81e-04  
    5   -1635.5247517298      1.76e-04  
    6   -1635.5367056813      7.94e-05  
    7   -1635.5392603182      3.24e-05  
    8   -1635.5396909643      1.11e-05  
    9   -1635.5397442115      4.57e-06  
   10   -1635.5397553829      3.01e-06  
   11   -1635.5397612249      1.20e-06  
   12   -1635.5397622936      7.29e-07  
   13   -1635.5397628627      3.09e-07  
   14   -1635.5397629836      2.36e-07  
   15   -1635.5397630408      9.17e-08  
   16   -1635.5397630488      4.32e-08  
   17   -1635.5397630500      1.81e-08  
   18   -1635.5397630502      7.29e-09  Convergence criterion met
 ---------------------------------------
 SCF time:   CPU 25465.89s  wall 1193.00s 
<S^2> =          0.758919214

************** Final PCM Free Energy Summary **************
 G_electrostatic  =      -0.00822432 hartree =      -5.16083699 kcal/mol
 G_cavitation     =       0.00000000 hartree =       0.00000000 kcal/mol
 G_dispersion     =       0.00000000 hartree =       0.00000000 kcal/mol
 G_repulsion      =       0.00000000 hartree =       0.00000000 kcal/mol
 --------------------------------------------------
 Non-electrostatic Free Energy =       0.00000000 hartree =       0.00000000 kcal/mol
 Total                         =      -0.00822432 hartree =      -5.16083699 kcal/mol
 --------------------------------------------------
 SCF Energy (H0 + V/2)                       =   -1635.53976305 
 Solute Internal Energy (H0)                 =   -1635.53153873 
 Total Free Energy (H0 + V/2 + non-elec)     =   -1635.53976305 hartree
                                             = -1026316.69151108 kcal/mol
***********************************************************

 SCF   energy in the final basis set =    -1635.5397630502
 Total energy in the final basis set =    -1635.5397630502
 
 --------------------------------------------------------------
 
                    Orbital Energies (a.u.)
 --------------------------------------------------------------
 
 Alpha MOs
 -- Occupied --
-89.0103 -19.1996 -19.1439 -10.3135 -10.2644 -10.2311 -10.2299 -10.2094
-10.2064 -10.2050 -10.2022 -10.2021 -10.2009 -10.2004 -10.1993 -10.1987
-10.1982 -10.1969 -10.1966 -10.1965 -10.1952 -10.1947 -10.1932 -10.1924
-10.1797 -10.1788 -10.1776 -10.1769 -10.1768 -10.1758 -10.1712  -8.0346
 -5.9105  -5.9081  -5.9051  -1.0817  -0.9970  -0.8594  -0.8389  -0.8313
 -0.8078  -0.7915  -0.7814  -0.7334  -0.7316  -0.7276  -0.7212  -0.7175
 -0.7075  -0.6789  -0.6669  -0.6660  -0.6589  -0.6235  -0.5970  -0.5925
 -0.5916  -0.5832  -0.5753  -0.5699  -0.5545  -0.5420  -0.5037  -0.4921
 -0.4876  -0.4830  -0.4627  -0.4540  -0.4477  -0.4451  -0.4429  -0.4344
 -0.4302  -0.4274  -0.4254  -0.4224  -0.4196  -0.4125  -0.4065  -0.4038
 -0.4018  -0.3995  -0.3977  -0.3944  -0.3897  -0.3870  -0.3666  -0.3635
 -0.3623  -0.3568  -0.3552  -0.3537  -0.3533  -0.3504  -0.3458  -0.3400
 -0.3348  -0.3324  -0.3321  -0.3295  -0.3258  -0.3220  -0.3195  -0.3177
 -0.3133  -0.3026  -0.3011  -0.2960  -0.2916  -0.2786  -0.2553  -0.2513
 -0.2473  -0.2462  -0.2404  -0.2382  -0.2367  -0.1081
 -- Virtual --
 -0.0571  -0.0531  -0.0457  -0.0422  -0.0320  -0.0252  -0.0191  -0.0052
  0.0025   0.0073   0.0125   0.0225   0.0259   0.0301   0.0338   0.0348
  0.0389   0.0439   0.0449   0.0485   0.0512   0.0547   0.0572   0.0623
  0.0642   0.0660   0.0704   0.0739   0.0764   0.0789   0.0823   0.0850
  0.0879   0.0928   0.0939   0.0961   0.1000   0.1006   0.1027   0.1074
  0.1084   0.1115   0.1130   0.1157   0.1195   0.1202   0.1214   0.1250
  0.1278   0.1287   0.1303   0.1337   0.1365   0.1401   0.1422   0.1446
  0.1467   0.1490   0.1501   0.1542   0.1591   0.1598   0.1651   0.1662
  0.1702   0.1710   0.1747   0.1772   0.1783   0.1802   0.1826   0.1883
  0.1907   0.1940   0.1961   0.1984   0.2021   0.2051   0.2077   0.2110
  0.2142   0.2151   0.2179   0.2200   0.2205   0.2221   0.2253   0.2275
  0.2311   0.2340   0.2355   0.2395   0.2400   0.2428   0.2462   0.2472
  0.2499   0.2515   0.2532   0.2580   0.2590   0.2620   0.2623   0.2641
  0.2686   0.2704   0.2730   0.2749   0.2768   0.2819   0.2839   0.2859
  0.2876   0.2893   0.2919   0.2949   0.2968   0.2978   0.3012   0.3020
  0.3062   0.3077   0.3114   0.3131   0.3143   0.3181   0.3188   0.3228
  0.3240   0.3260   0.3285   0.3329   0.3330   0.3360   0.3365   0.3386
  0.3391   0.3430   0.3445   0.3462   0.3490   0.3506   0.3536   0.3550
  0.3583   0.3591   0.3610   0.3634   0.3643   0.3652   0.3675   0.3694
  0.3727   0.3743   0.3750   0.3772   0.3806   0.3815   0.3821   0.3835
  0.3847   0.3862   0.3873   0.3907   0.3913   0.3935   0.3939   0.3954
  0.3993   0.4026   0.4044   0.4051   0.4059   0.4076   0.4085   0.4120
  0.4130   0.4140   0.4173   0.4192   0.4205   0.4229   0.4236   0.4250
  0.4280   0.4320   0.4335   0.4351   0.4370   0.4389   0.4408   0.4420
  0.4431   0.4490   0.4500   0.4543   0.4550   0.4572   0.4582   0.4613
  0.4623   0.4642   0.4659   0.4665   0.4700   0.4719   0.4737   0.4780
  0.4801   0.4811   0.4841   0.4864   0.4899   0.4904   0.4932   0.4944
  0.4955   0.4974   0.4997   0.5080   0.5121   0.5137   0.5147   0.5172
  0.5179   0.5211   0.5236   0.5274   0.5311   0.5338   0.5353   0.5387
  0.5398   0.5422   0.5435   0.5474   0.5478   0.5508   0.5529   0.5572
  0.5583   0.5617   0.5638   0.5645   0.5666   0.5703   0.5707   0.5745
  0.5758   0.5774   0.5818   0.5824   0.5852   0.5863   0.5895   0.5917
  0.5950   0.5971   0.6003   0.6007   0.6019   0.6047   0.6053   0.6090
  0.6106   0.6134   0.6146   0.6174   0.6202   0.6224   0.6275   0.6295
  0.6325   0.6338   0.6342   0.6401   0.6411   0.6444   0.6480   0.6489
  0.6526   0.6556   0.6562   0.6596   0.6635   0.6656   0.6674   0.6734
  0.6755   0.6801   0.6808   0.6843   0.6858   0.6885   0.6911   0.6947
  0.6997   0.7043   0.7053   0.7089   0.7108   0.7161   0.7199   0.7234
  0.7254   0.7301   0.7338   0.7356   0.7395   0.7417   0.7440   0.7465
  0.7477   0.7530   0.7552   0.7588   0.7615   0.7671   0.7682   0.7707
  0.7732   0.7740   0.7812   0.7825   0.7835   0.7884   0.7915   0.7944
  0.7993   0.8014   0.8044   0.8075   0.8094   0.8125   0.8170   0.8205
  0.8227   0.8241   0.8272   0.8310   0.8340   0.8390   0.8418   0.8448
  0.8461   0.8503   0.8525   0.8554   0.8591   0.8626   0.8645   0.8696
  0.8761   0.8811   0.8851   0.8880   0.8905   0.8924   0.8945   0.9039
  0.9076   0.9115   0.9183   0.9193   0.9236   0.9249   0.9293   0.9348
  0.9369   0.9410   0.9449   0.9499   0.9536   0.9581   0.9615   0.9692
  0.9701   0.9713   0.9762   0.9845   0.9880   0.9909   0.9924   0.9969
  1.0008   1.0034   1.0070   1.0097   1.0135   1.0203   1.0220   1.0245
  1.0288   1.0308   1.0329   1.0363   1.0410   1.0452   1.0522   1.0535
  1.0544   1.0581   1.0610   1.0650   1.0686   1.0766   1.0802   1.0825
  1.0867   1.0947   1.0995   1.1025   1.1077   1.1156   1.1169   1.1241
  1.1253   1.1265   1.1301   1.1366   1.1389   1.1442   1.1500   1.1517
  1.1547   1.1581   1.1641   1.1682   1.1727   1.1761   1.1817   1.1843
  1.1898   1.1969   1.1998   1.2095   1.2099   1.2159   1.2216   1.2252
  1.2277   1.2311   1.2385   1.2452   1.2546   1.2551   1.2601   1.2644
  1.2727   1.2744   1.2775   1.2790   1.2853   1.2933   1.2979   1.2995
  1.3083   1.3100   1.3118   1.3177   1.3197   1.3268   1.3286   1.3334
  1.3397   1.3474   1.3508   1.3535   1.3546   1.3664   1.3678   1.3714
  1.3778   1.3818   1.3850   1.3928   1.4017   1.4057   1.4099   1.4135
  1.4200   1.4277   1.4317   1.4443   1.4492   1.4539   1.4577   1.4627
  1.4661   1.4739   1.4747   1.4773   1.4832   1.4848   1.4879   1.4958
  1.5037   1.5068   1.5102   1.5185   1.5227   1.5265   1.5322   1.5374
  1.5453   1.5507   1.5627   1.5646   1.5696   1.5737   1.5773   1.5840
  1.5915   1.5923   1.6037   1.6082   1.6142   1.6165   1.6274   1.6345
  1.6380   1.6493   1.6515   1.6609   1.6704   1.6731   1.6799   1.6829
  1.6885   1.6928   1.6959   1.6985   1.7110   1.7133   1.7187   1.7198
  1.7308   1.7320   1.7403   1.7421   1.7482   1.7514   1.7594   1.7666
  1.7713   1.7768   1.7770   1.7854   1.7893   1.7933   1.8009   1.8068
  1.8119   1.8148   1.8197   1.8282   1.8339   1.8376   1.8450   1.8517
  1.8572   1.8629   1.8684   1.8722   1.8770   1.8801   1.8872   1.8908
  1.8944   1.9026   1.9098   1.9140   1.9203   1.9213   1.9275   1.9331
  1.9387   1.9402   1.9458   1.9477   1.9534   1.9591   1.9610   1.9655
  1.9700   1.9783   1.9832   1.9878   1.9898   1.9963   2.0007   2.0031
  2.0082   2.0138   2.0184   2.0264   2.0333   2.0349   2.0410   2.0445
  2.0478   2.0518   2.0533   2.0611   2.0634   2.0690   2.0729   2.0790
  2.0846   2.0894   2.0902   2.0941   2.1008   2.1063   2.1083   2.1170
  2.1216   2.1234   2.1289   2.1324   2.1370   2.1410   2.1516   2.1549
  2.1605   2.1689   2.1724   2.1795   2.1806   2.1866   2.1940   2.1965
  2.1990   2.2027   2.2072   2.2141   2.2194   2.2215   2.2256   2.2359
  2.2391   2.2448   2.2487   2.2555   2.2613   2.2659   2.2705   2.2822
  2.2872   2.2882   2.3047   2.3083   2.3133   2.3204   2.3388   2.3461
  2.3615   2.3706   2.3727   2.3826   2.3854   2.3940   2.4069   2.4090
  2.4139   2.4213   2.4259   2.4309   2.4352   2.4418   2.4463   2.4478
  2.4510   2.4562   2.4610   2.4733   2.4747   2.4770   2.4870   2.4932
  2.5041   2.5071   2.5151   2.5194   2.5227   2.5250   2.5293   2.5461
  2.5553   2.5564   2.5670   2.5702   2.5762   2.5835   2.5866   2.5965
  2.6022   2.6081   2.6171   2.6183   2.6307   2.6344   2.6437   2.6497
  2.6525   2.6616   2.6666   2.6700   2.6725   2.6792   2.6910   2.6992
  2.7036   2.7207   2.7312   2.7336   2.7467   2.7519   2.7534   2.7584
  2.7638   2.7835   2.7905   2.8086   2.8302   2.8344   2.8487   2.8641
  2.8814   2.8850   2.9107   2.9346   2.9379   2.9479   2.9554   2.9640
  2.9666   2.9729   2.9740   2.9855   2.9938   3.0005   3.0163   3.0331
  3.0465   3.0586   3.0845   3.0891   3.1039   3.1091   3.1198   3.1282
  3.1303   3.1353   3.1419   3.1539   3.1789   3.1854   3.1949   3.2073
  3.2128   3.2195   3.2213   3.2272   3.2301   3.2403   3.2441   3.2500
  3.2567   3.2669   3.2793   3.2932   3.2939   3.3056   3.3112   3.3224
  3.3331   3.3392   3.3489   3.3582   3.3836   3.3988   3.4028   3.4093
  3.4212   3.4324   3.4441   3.4701   3.5810   3.7485   3.7535   3.7566
  3.7719   3.9527   4.1089
 
 Beta MOs
 -- Occupied --
-89.0090 -19.1996 -19.1439 -10.3135 -10.2644 -10.2309 -10.2299 -10.2094
-10.2060 -10.2015 -10.2014 -10.2009 -10.1994 -10.1993 -10.1988 -10.1972
-10.1968 -10.1966 -10.1965 -10.1961 -10.1946 -10.1938 -10.1932 -10.1923
-10.1798 -10.1788 -10.1776 -10.1769 -10.1768 -10.1758 -10.1712  -8.0339
 -5.9094  -5.9055  -5.9035  -1.0817  -0.9970  -0.8561  -0.8375  -0.8279
 -0.8078  -0.7873  -0.7814  -0.7320  -0.7299  -0.7258  -0.7200  -0.7121
 -0.7075  -0.6744  -0.6669  -0.6659  -0.6589  -0.6235  -0.5970  -0.5914
 -0.5888  -0.5821  -0.5739  -0.5656  -0.5519  -0.5420  -0.5023  -0.4895
 -0.4868  -0.4812  -0.4627  -0.4539  -0.4476  -0.4440  -0.4406  -0.4328
 -0.4291  -0.4264  -0.4235  -0.4217  -0.4174  -0.4121  -0.4058  -0.4027
 -0.4014  -0.3971  -0.3947  -0.3929  -0.3893  -0.3869  -0.3666  -0.3634
 -0.3597  -0.3550  -0.3535  -0.3526  -0.3512  -0.3490  -0.3451  -0.3398
 -0.3338  -0.3318  -0.3313  -0.3285  -0.3254  -0.3206  -0.3171  -0.3149
 -0.3128  -0.3026  -0.3008  -0.2946  -0.2844  -0.2786  -0.2498  -0.2483
 -0.2440  -0.2426  -0.2384  -0.2371  -0.2297
 -- Virtual --
 -0.0795  -0.0517  -0.0489  -0.0404  -0.0371  -0.0292  -0.0188  -0.0115
 -0.0032   0.0036   0.0083   0.0155   0.0237   0.0272   0.0314   0.0351
  0.0363   0.0404   0.0456   0.0463   0.0493   0.0524   0.0556   0.0577
  0.0628   0.0651   0.0674   0.0712   0.0750   0.0784   0.0804   0.0831
  0.0858   0.0884   0.0935   0.0957   0.0973   0.1012   0.1018   0.1043
  0.1079   0.1103   0.1123   0.1155   0.1178   0.1203   0.1211   0.1229
  0.1259   0.1285   0.1295   0.1310   0.1343   0.1376   0.1411   0.1430
  0.1452   0.1472   0.1496   0.1515   0.1550   0.1598   0.1607   0.1662
  0.1667   0.1708   0.1721   0.1758   0.1779   0.1790   0.1810   0.1837
  0.1893   0.1918   0.1951   0.1974   0.2000   0.2031   0.2062   0.2082
  0.2118   0.2149   0.2173   0.2187   0.2210   0.2217   0.2226   0.2261
  0.2296   0.2325   0.2346   0.2360   0.2409   0.2420   0.2440   0.2473
  0.2482   0.2511   0.2523   0.2539   0.2587   0.2605   0.2630   0.2637
  0.2666   0.2695   0.2712   0.2738   0.2766   0.2781   0.2827   0.2849
  0.2870   0.2888   0.2903   0.2932   0.2963   0.2983   0.2987   0.3018
  0.3033   0.3071   0.3093   0.3125   0.3137   0.3155   0.3187   0.3199
  0.3233   0.3247   0.3267   0.3294   0.3335   0.3339   0.3370   0.3377
  0.3395   0.3398   0.3443   0.3457   0.3473   0.3496   0.3516   0.3545
  0.3557   0.3591   0.3600   0.3619   0.3640   0.3652   0.3663   0.3684
  0.3701   0.3735   0.3749   0.3756   0.3779   0.3816   0.3821   0.3828
  0.3843   0.3854   0.3872   0.3879   0.3913   0.3923   0.3939   0.3946
  0.3965   0.3999   0.4034   0.4053   0.4060   0.4068   0.4085   0.4093
  0.4132   0.4137   0.4148   0.4182   0.4202   0.4217   0.4242   0.4252
  0.4263   0.4287   0.4332   0.4347   0.4361   0.4385   0.4403   0.4418
  0.4435   0.4442   0.4498   0.4508   0.4556   0.4565   0.4582   0.4594
  0.4624   0.4638   0.4651   0.4669   0.4674   0.4709   0.4732   0.4746
  0.4790   0.4811   0.4824   0.4848   0.4876   0.4910   0.4914   0.4941
  0.4960   0.4965   0.4989   0.5007   0.5091   0.5130   0.5149   0.5159
  0.5185   0.5187   0.5227   0.5245   0.5283   0.5322   0.5355   0.5368
  0.5395   0.5408   0.5430   0.5451   0.5486   0.5492   0.5522   0.5537
  0.5583   0.5597   0.5632   0.5650   0.5661   0.5674   0.5714   0.5719
  0.5760   0.5768   0.5786   0.5830   0.5834   0.5864   0.5875   0.5908
  0.5927   0.5971   0.5994   0.6014   0.6017   0.6029   0.6059   0.6079
  0.6097   0.6113   0.6150   0.6159   0.6182   0.6215   0.6239   0.6289
  0.6306   0.6340   0.6348   0.6362   0.6418   0.6432   0.6456   0.6494
  0.6508   0.6539   0.6568   0.6571   0.6616   0.6651   0.6667   0.6683
  0.6744   0.6768   0.6814   0.6825   0.6852   0.6873   0.6900   0.6924
  0.6966   0.7011   0.7056   0.7068   0.7101   0.7133   0.7175   0.7220
  0.7249   0.7267   0.7313   0.7355   0.7370   0.7416   0.7430   0.7455
  0.7482   0.7493   0.7538   0.7570   0.7597   0.7632   0.7682   0.7706
  0.7720   0.7747   0.7755   0.7823   0.7839   0.7846   0.7900   0.7929
  0.7965   0.8007   0.8029   0.8059   0.8086   0.8114   0.8139   0.8182
  0.8221   0.8243   0.8251   0.8283   0.8320   0.8357   0.8408   0.8436
  0.8459   0.8475   0.8516   0.8539   0.8568   0.8605   0.8649   0.8658
  0.8713   0.8788   0.8824   0.8857   0.8896   0.8919   0.8940   0.8959
  0.9047   0.9092   0.9125   0.9197   0.9209   0.9250   0.9261   0.9302
  0.9359   0.9384   0.9421   0.9462   0.9512   0.9549   0.9594   0.9630
  0.9707   0.9715   0.9723   0.9775   0.9857   0.9901   0.9920   0.9943
  0.9982   1.0019   1.0045   1.0088   1.0108   1.0143   1.0216   1.0231
  1.0255   1.0306   1.0318   1.0347   1.0378   1.0423   1.0461   1.0538
  1.0541   1.0557   1.0590   1.0620   1.0670   1.0713   1.0778   1.0825
  1.0834   1.0879   1.0966   1.1016   1.1043   1.1094   1.1165   1.1183
  1.1257   1.1271   1.1283   1.1317   1.1381   1.1403   1.1460   1.1512
  1.1530   1.1562   1.1598   1.1664   1.1701   1.1746   1.1776   1.1830
  1.1857   1.1918   1.1985   1.2011   1.2114   1.2120   1.2173   1.2232
  1.2266   1.2301   1.2323   1.2405   1.2484   1.2567   1.2577   1.2619
  1.2663   1.2745   1.2770   1.2795   1.2810   1.2879   1.2957   1.2996
  1.3012   1.3100   1.3120   1.3133   1.3198   1.3225   1.3286   1.3312
  1.3352   1.3423   1.3489   1.3534   1.3554   1.3561   1.3688   1.3699
  1.3735   1.3810   1.3836   1.3874   1.3942   1.4039   1.4069   1.4119
  1.4154   1.4216   1.4303   1.4333   1.4464   1.4509   1.4562   1.4603
  1.4649   1.4679   1.4753   1.4768   1.4800   1.4843   1.4882   1.4906
  1.4986   1.5054   1.5088   1.5124   1.5205   1.5244   1.5286   1.5357
  1.5410   1.5469   1.5523   1.5645   1.5665   1.5712   1.5757   1.5803
  1.5857   1.5934   1.5957   1.6051   1.6097   1.6165   1.6187   1.6296
  1.6377   1.6398   1.6511   1.6524   1.6628   1.6720   1.6751   1.6814
  1.6865   1.6900   1.6954   1.6986   1.7008   1.7126   1.7148   1.7208
  1.7220   1.7327   1.7339   1.7421   1.7435   1.7499   1.7531   1.7611
  1.7686   1.7746   1.7778   1.7785   1.7868   1.7909   1.7954   1.8025
  1.8084   1.8133   1.8168   1.8211   1.8291   1.8369   1.8396   1.8463
  1.8535   1.8599   1.8647   1.8699   1.8732   1.8790   1.8820   1.8884
  1.8927   1.8957   1.9041   1.9116   1.9162   1.9217   1.9224   1.9301
  1.9351   1.9405   1.9421   1.9472   1.9496   1.9545   1.9615   1.9630
  1.9682   1.9717   1.9807   1.9846   1.9887   1.9917   1.9977   2.0027
  2.0054   2.0105   2.0155   2.0198   2.0289   2.0345   2.0363   2.0421
  2.0458   2.0496   2.0531   2.0548   2.0622   2.0658   2.0698   2.0750
  2.0805   2.0862   2.0910   2.0924   2.0956   2.1022   2.1080   2.1117
  2.1180   2.1242   2.1259   2.1318   2.1333   2.1385   2.1431   2.1531
  2.1560   2.1623   2.1708   2.1743   2.1814   2.1819   2.1884   2.1962
  2.1987   2.2008   2.2058   2.2109   2.2158   2.2211   2.2244   2.2277
  2.2373   2.2404   2.2462   2.2508   2.2574   2.2635   2.2684   2.2725
  2.2834   2.2884   2.2894   2.3077   2.3109   2.3141   2.3241   2.3395
  2.3479   2.3628   2.3715   2.3747   2.3858   2.3903   2.3961   2.4076
  2.4113   2.4149   2.4233   2.4276   2.4330   2.4369   2.4442   2.4475
  2.4491   2.4536   2.4584   2.4626   2.4753   2.4781   2.4783   2.4899
  2.4957   2.5069   2.5088   2.5181   2.5227   2.5240   2.5275   2.5311
  2.5479   2.5563   2.5585   2.5701   2.5718   2.5774   2.5854   2.5874
  2.5979   2.6036   2.6093   2.6187   2.6205   2.6324   2.6369   2.6454
  2.6524   2.6559   2.6653   2.6684   2.6721   2.6784   2.6817   2.6926
  2.7022   2.7078   2.7214   2.7335   2.7348   2.7484   2.7529   2.7580
  2.7605   2.7658   2.7843   2.7911   2.8088   2.8306   2.8348   2.8490
  2.8643   2.8816   2.8853   2.9131   2.9371   2.9400   2.9493   2.9570
  2.9663   2.9681   2.9742   2.9769   2.9875   2.9954   3.0018   3.0174
  3.0347   3.0473   3.0607   3.0867   3.0912   3.1059   3.1109   3.1212
  3.1334   3.1349   3.1373   3.1421   3.1545   3.1791   3.1870   3.1956
  3.2081   3.2139   3.2202   3.2252   3.2284   3.2315   3.2422   3.2461
  3.2509   3.2569   3.2671   3.2796   3.2934   3.2941   3.3058   3.3116
  3.3226   3.3344   3.3402   3.3511   3.3584   3.3839   3.4000   3.4044
  3.4100   3.4227   3.4418   3.4444   3.4703   3.5811   3.7492   3.7558
  3.7602   3.7720   3.9527   4.1091
 --------------------------------------------------------------
 
          Ground-State Mulliken Net Atomic Charges

     Atom                 Charge (a.u.)    Spin (a.u.)
  --------------------------------------------------------
      1 O                    -0.495426       0.000268
      2 O                    -1.096590       0.014642
      3 C                    -4.651302       0.001426
      4 C                     1.557182      -0.000809
      5 C                     1.381552      -0.000089
      6 C                     1.714709       0.001866
      7 C                     2.047289       0.004245
      8 C                    -5.155258      -0.000422
      9 C                     0.260921       0.000990
     10 H                     0.137651      -0.000099
     11 H                     0.108343       0.000028
     12 H                    -0.284699      -0.000355
     13 H                     0.063653       0.000005
     14 H                     0.068625      -0.000054
     15 H                     0.116352       0.000003
     16 H                     0.129736      -0.000166
     17 H                    -0.235193      -0.003741
     18 H                     0.010049      -0.000058
     19 C                     1.474138       0.000157
     20 H                     0.115388       0.000001
     21 H                     0.072072      -0.000016
     22 H                     0.012793       0.000007
     23 C                     1.705384      -0.000814
     24 H                    -0.249996       0.000359
     25 H                     0.162251      -0.000068
     26 H                     0.081701      -0.000371
     27 C                     1.238188      -0.000613
     28 H                    -0.129436       0.000247
     29 H                    -0.100849      -0.000624
     30 H                     0.113691      -0.000004
     31 H                     0.033994      -0.000190
     32 H                    -0.158098      -0.000506
     33 S                    -1.402607       0.224553
     34 C                    -0.789694       0.383562
     35 C                     0.169611       0.002480
     36 H                    -0.052802       0.033744
     37 C                    -0.186324       0.018883
     38 H                     0.168359      -0.000906
     39 C                    -0.068720      -0.006438
     40 H                     0.496168       0.000244
     41 C                    -0.278766       0.017857
     42 H                     0.196040      -0.000543
     43 C                     0.363860      -0.054308
     44 H                    -0.075384       0.045145
     45 C                    -1.566818      -0.089707
     46 C                     0.490152       0.202521
     47 C                    -0.391308      -0.094475
     48 H                     0.495360       0.005706
     49 C                    -0.226317       0.153506
     50 H                     0.505168      -0.018583
     51 C                    -0.388757      -0.066411
     52 H                     0.227424       0.003712
     53 C                     0.820051       0.096629
     54 H                     0.488605       0.003717
     55 C                    -1.312113      -0.083691
     56 C                     0.523947       0.149583
     57 H                     0.252216      -0.014585
     58 C                    -0.449003      -0.063227
     59 H                     0.292159       0.003913
     60 C                    -0.154574       0.106560
     61 H                     0.530136      -0.012652
     62 C                    -0.400102      -0.028382
     63 H                     0.276953      -0.001148
     64 C                     0.560732       0.069081
     65 H                     0.472377       0.014391
     66 H                     0.365153      -0.015976
  --------------------------------------------------------
  Sum of atomic charges =     0.000000
  Sum of spin   charges =     1.000000

  Building new vdw surfaces
         Merz-Kollman RESP Net Atomic Charges

     Atom                 Charge (a.u.)
  ----------------------------------------
      1 O                    -0.438388
      2 O                    -0.356904
      3 C                     0.874819
      4 C                    -0.693138
      5 C                    -0.638565
      6 C                    -0.644113
      7 C                     0.395311
      8 C                     0.415456
      9 C                     0.240133
     10 H                     0.170403
     11 H                     0.170403
     12 H                     0.170403
     13 H                     0.157585
     14 H                     0.157585
     15 H                     0.157585
     16 H                     0.154679
     17 H                     0.180732
     18 H                     0.154679
     19 C                    -0.558214
     20 H                     0.133792
     21 H                     0.133792
     22 H                     0.133792
     23 C                    -0.552699
     24 H                     0.134683
     25 H                     0.134683
     26 H                     0.134683
     27 C                    -0.458392
     28 H                    -0.033229
     29 H                    -0.033229
     30 H                     0.099444
     31 H                     0.099444
     32 H                     0.099444
     33 S                    -0.336949
     34 C                     0.424800
     35 C                    -0.395062
     36 H                     0.182240
     37 C                    -0.114710
     38 H                     0.147156
     39 C                    -0.190893
     40 H                     0.139216
     41 C                    -0.047740
     42 H                     0.125753
     43 C                    -0.448827
     44 H                     0.216054
     45 C                     0.089435
     46 C                    -0.147875
     47 C                    -0.148610
     48 H                     0.142601
     49 C                    -0.173389
     50 H                     0.140878
     51 C                    -0.120128
     52 H                     0.134787
     53 C                    -0.159413
     54 H                     0.139386
     55 C                     0.455761
     56 C                    -0.313370
     57 H                     0.115575
     58 C                    -0.127728
     59 H                     0.148539
     60 C                    -0.169163
     61 H                     0.142208
     62 C                    -0.113462
     63 H                     0.145824
     64 C                    -0.325295
     65 H                     0.180129
     66 H                     0.165615
  ----------------------------------------
  Sum of atomic charges =     0.000000

  Related Dipole Moment =     2.0381 (X  1.6904 Y -0.9561 Z  0.6186)

 -----------------------------------------------------------------
                    Cartesian Multipole Moments
 -----------------------------------------------------------------
    Charge (ESU x 10^10)
                 0.0000
    Dipole Moment (Debye)
         X       1.6858      Y      -0.9090      Z       0.6002
       Tot       2.0071
    Quadrupole Moments (Debye-Ang)
        XX    -190.5703     XY      -3.2582     YY    -185.3894
        XZ      12.3126     YZ      -7.0716     ZZ    -182.9046
    Octopole Moments (Debye-Ang^2)
       XXX     958.4000    XXY     327.6180    XYY     329.9563
       YYY     952.9876    XXZ    -433.1765    XYZ       2.7569
       YYZ    -372.8059    XZZ     395.1172    YZZ     269.9143
       ZZZ   -1094.1070
    Hexadecapole Moments (Debye-Ang^3)
      XXXX   -8333.9064   XXXY    -243.7942   XXYY   -3278.1288
      XYYY    -151.0287   YYYY  -10686.7498   XXXZ    1500.6375
      XXYZ     686.8212   XYYZ     550.5794   YYYZ    2252.7041
      XXZZ   -3367.9578   XYZZ     -42.6974   YYZZ   -3322.9076
      XZZZ    1528.6240   YZZZ    2088.1881   ZZZZ   -9326.2798
 -----------------------------------------------------------------
 Calculating MO derivatives via CPSCF
 CPSCF will be done in 2 segments to save memory.
 Computing fast CPCM-SWIG hessian.
 Computing fast CPCM-SWIG hessian.
   1         0          99      0.251587    0.013107
   2         0          99      0.048418    0.001982
   3         0          99      0.004366    0.000332
   4         0          99      0.000474    0.000060
   5        35          64      0.000070    0.000016
   6        84          15      0.000012    0.000004
   7        96           3      0.000002    0.000001
   8        99           0      0.000000    0.000000    Roots Converged
   1         0         102      0.618701    0.036403
   2         0         102      0.083578    0.006111
   3         0         102      0.010124    0.001624
   4         0         102      0.001592    0.000361
   5         0         102      0.000198    0.000048
   6        70          29      0.000018    0.000005    Collapsing Subspace

 Q-Chem fatal error occurred in module libmdc/newfileman.C, line 376:

 FileMan error: End of file reached prematurely reading (1495536) bytes in file FILE_SET_TMP_A
 Path: /tmp/scratch/78.0


 Please submit a crash report at q-chem.com/reporter 
 
 
