
Running Job 1 of 1 mol.qin
qchem mol.qin_90679.0 /tmp/scratch/ 0
/global/common/software/m4119/qchem/exe/qcprog.exe_s mol.qin_90679.0 /tmp/scratch/
                  Welcome to Q-Chem
     A Quantum Leap Into The Future Of Chemistry


 Q-Chem 6.0, Q-Chem, Inc., Pleasanton, CA (2022)

 License issued to: National Energy Research Scientific Computing Center (site)

 E. Epifanovsky,  A. T. B. Gilbert,  Xintian Feng,  Joonho Lee,  Yuezhi Mao,  
 N. Mardirossian,  P. Pokhilko,  A. White,  M. Wormit,  M. P. Coons,  
 A. L. Dempwolff,  Zhengting Gan,  D. Hait,  P. R. Horn,  L. D. Jacobson,  
 I. Kaliman,  J. Kussmann,  A. W. Lange,  Ka Un Lao,  D. S. Levine,  Jie Liu,  
 S. C. McKenzie,  A. F. Morrison,  K. Nanda,  F. Plasser,  D. R. Rehn,  
 M. L. Vidal,  Zhi-Qiang You,  Ying Zhu,  B. Alam,  B. Albrecht,  
 A. Aldossary,  E. Alguire,  J. H. Andersen,  V. Athavale,  D. Barton,  
 K. Begam,  A. Behn,  N. Bellonzi,  Y. A. Bernard,  E. J. Berquist,  
 H. Burton,  A. Carreras,  K. Carter-Fenk,  Romit Chakraborty,  
 Chandrima Chakravarty,  Junhan Chen,  A. D. Chien,  K. D. Closser,  
 V. Cofer-Shabica,  L. Cunha,  S. Dasgupta,  Jia Deng,  M. de Wergifosse,  
 M. Diedenhofen,  Hainam Do,  S. Ehlert,  Po-Tung Fang,  S. Fatehi,  
 Qingguo Feng,  T. Friedhoff,  B. Ganoe,  J. Gayvert,  Qinghui Ge,  
 G. Gidofalvi,  M. Goldey,  J. Gomes,  C. Gonzalez-Espinoza,  S. Gulania,  
 A. Gunina,  J. A. Gyamfi,  M. W. D. Hanson-Heine,  P. H. P. Harbach,  
 A. W. Hauser,  M. F. Herbst,  M. Hernandez Vera,  M. Hodecker,  
 Z. C. Holden,  S. Houck,  Xunkun Huang,  Kerwin Hui,  B. C. Huynh,  
 K. Ikeda,  M. Ivanov,  Hyunjun Ji,  Zuxin Jin,  Hanjie Jiang,  B. Kaduk,  
 S. Kaehler,  R. Kang,  K. Khistyaev,  Jaehoon Kim,  Yongbin Kim,  
 P. Klunzinger,  Z. Koczor-Benda,  Joong Hoon Koh,  D. Kosenkov,  
 Saikiran Kotaru,  L. Koulias,  T. Kowalczyk,  C. M. Krauter,  K. Kue,  
 A. Kunitsa,  T. Kus,  A. Landau,  K. V. Lawler,  D. Lefrancois,  S. Lehtola,  
 Rain Li,  Shaozhi Li,  Yi-Pei Li,  Jiashu Liang,  M. Liebenthal,  
 Hung-Hsuan Lin,  You-Sheng Lin,  Fenglai Liu,  Kuan-Yu Liu,  
 M. Loipersberger,  A. Luenser,  C. Malbon,  A. Manjanath,  P. Manohar,  
 E. Mansoor,  S. F. Manzer,  Shan-Ping Mao,  A. V. Marenich,  T. Markovich,  
 S. Mason,  F. Matz,  S. A. Maurer,  P. F. McLaughlin,  M. F. S. J. Menger,  
 J.-M. Mewes,  S. A. Mewes,  P. Morgante,  Mohammad Mostafanejad,  
 J. W. Mullinax,  K. J. Oosterbaan,  G. Paran,  V. Parravicini,  
 Alexander C. Paul,  Suranjan K. Paul,  F. Pavosevic,  Zheng Pei,  S. Prager,  
 E. I. Proynov,  E. Ramos,  B. Rana,  A. E. Rask,  A. Rettig,  R. M. Richard,  
 F. Rob,  E. Rossomme,  T. Scheele,  M. Scheurer,  M. Schneider,  
 P. E. Schneider,  N. Sergueev,  S. M. Sharada,  Hengyuan Shen,  
 W. Skomorowski,  D. W. Small,  C. J. Stein,  Yingli Su,  Yu-Chuan Su,  
 E. J. Sundstrom,  Zhen Tao,  J. Thirman,  Hung-Yi Tsai,  T. Tsuchimochi,  
 N. M. Tubman,  C. Utku,  S. P. Veccham,  O. Vydrov,  J. Wenzel,  
 Jonathan Wong,  J. Witte,  A. Yamada,  Chou-Hsun Yang,  Kun Yao,  
 S. Yeganeh,  S. R. Yost,  A. Zech,  F. Zeller,  Igor Ying Zhang,  
 Xing Zhang,  Yu Zhang,  D. Zuev,  A. Aspuru-Guzik,  A. T. Bell,  
 N. A. Besley,  K. B. Bravaya,  B. R. Brooks,  D. Casanova,  Jeng-Da Chai,  
 Hsing-Ta Chen,  S. Coriani,  C. J. Cramer,  A. E. DePrince, III,  
 R. A. DiStasio Jr.,  A. Dreuw,  B. D. Dunietz,  T. R. Furlani,  
 W. A. Goddard III,  S. Grimme,  S. Hammes-Schiffer,  T. Head-Gordon,  
 W. J. Hehre,  Chao-Ping Hsu,  T.-C. Jagau,  Yousung Jung,  A. Klamt,  
 Jing Kong,  D. S. Lambrecht,  Xiangyuan Li,  WanZhen Liang,  N. J. Mayhall,  
 C. W. McCurdy,  J. B. Neaton,  T. Neudecker,  C. Ochsenfeld,  
 J. A. Parkhill,  R. Peverati,  V. A. Rassolov,  Haisheng Ren,  Yihan Shao,  
 L. V. Slipchenko,  R. P. Steele,  J. E. Subotnik,  A. J. W. Thom,  
 A. Tkatchenko,  D. G. Truhlar,  T. Van Voorhis,  Fan Wang,  
 T. A. Wesolowski,  K. B. Whaley,  H. L. Woodcock III,  P. M. Zimmerman,  
 S. Faraji,  P. M. W. Gill,  M. Head-Gordon,  J. M. Herbert,  A. I. Krylov

 Contributors to earlier versions of Q-Chem not listed above: 
 R. D. Adamson,  B. Austin,  R. Baer,  J. Baker,  G. J. O. Beran,  
 K. Brandhorst,  S. T. Brown,  E. F. C. Byrd,  Arup K. Chakraborty,  
 G. K. L. Chan,  Chun-Min Chang,  Yunqing Chen,  C.-L. Cheng,  
 Siu Hung Chien,  D. M. Chipman,  D. L. Crittenden,  H. Dachsel,  
 R. J. Doerksen,  A. D. Dutoi,  R. G. Edgar,  J. Fosso-Tande,  
 L. Fusti-Molnar,  D. Ghosh,  A. Ghysels,  A. Golubeva-Zadorozhnaya,  
 J. Gonthier,  M. S. Gordon,  S. R. Gwaltney,  G. Hawkins,  J. E. Herr,  
 A. Heyden,  S. Hirata,  E. G. Hohenstein,  G. Kedziora,  F. J. Keil,  
 C. Kelley,  Jihan Kim,  R. A. King,  R. Z. Khaliullin,  P. P. Korambath,  
 W. Kurlancheek,  A. Laurent,  A. M. Lee,  M. S. Lee,  S. V. Levchenko,  
 Ching Yeh Lin,  D. Liotard,  E. Livshits,  R. C. Lochan,  I. Lotan,  
 L. A. Martinez-Martinez,  P. E. Maslen,  N. Nair,  D. P. O'Neill,  
 D. Neuhauser,  E. Neuscamman,  C. M. Oana,  R. Olivares-Amaya,  R. Olson,  
 T. M. Perrine,  B. Peters,  P. A. Pieniazek,  A. Prociuk,  Y. M. Rhee,  
 J. Ritchie,  M. A. Rohrdanz,  E. Rosta,  N. J. Russ,  H. F. Schaefer III,  
 M. W. Schmidt,  N. E. Schultz,  S. Sharma,  N. Shenvi,  C. D. Sherrill,  
 A. C. Simmonett,  A. Sodt,  T. Stein,  D. Stuck,  K. S. Thanthiriwatte,  
 V. Vanovschi,  L. Vogt,  Tao Wang,  A. Warshel,  M. A. Watson,  
 C. F. Williams,  Q. Wu,  X. Xu,  Jun Yang,  W. Zhang,  Yan Zhao

   Please cite Q-Chem as follows:
  "Software for the frontiers of quantum chemistry:
   An overview of developments in the Q-Chem 5 package"
   J. Chem. Phys. 155, 084801 (2021)
   https://doi.org/10.1063/5.0055522 (open access)

 Q-Chem 6.0.1 for Intel X86 EM64T Linux

 Parts of Q-Chem use Armadillo 9.900.5 (Nocturnal Misbehaviour).
 http://arma.sourceforge.net/

 Q-Chem begins on Mon Apr  3 11:33:57 2023  

 Host: login23
0

     Scratch files written to /tmp/scratch//
 Aug2322 |scratch|qcdevops|jenkins|workspace|build_RNUM -1
 Processing $rem in /global/common/software/m4119/qchem/config/preferences:
 Processing $rem in /global/homes/s/sblau/.qchemrc:

 Checking the input file for inconsistencies... 	...done.
 Reading auxiliary files from /global/common/software/m4119/qchem/qcaux (QCAUX)

--------------------------------------------------------------
User input:
--------------------------------------------------------------
$molecule
2 4
Co      3.9649000000      2.0123000000      40.9150000000
C      5.1562000000     -1.1009000000      41.1795000000
H      5.4039000000     -1.8436000000      41.9527000000
H      6.0838000000     -0.8168000000      40.6705000000
N      4.6095000000      0.0865000000      41.7792000000
C      4.5447000000      0.1908000000      43.0569000000
H      4.8480000000     -0.6139000000      43.7260000000
C      4.1436000000      1.4472000000      43.6236000000
N      3.9167000000      2.4208000000      42.7114000000
C      3.6254000000      3.6692000000      43.1371000000
C      3.5522000000      3.9809000000      44.4917000000
H      3.3254000000      4.9892000000      44.7989000000
C      3.7790000000      2.9836000000      45.4289000000
H      3.7290000000      3.2031000000      46.4829000000
C      4.0778000000      1.7025000000      44.9894000000
H      4.2712000000      0.9091000000      45.6935000000
C      3.4200000000      4.6189000000      42.0745000000
H      3.1325000000      5.6421000000      42.3193000000
N      3.6025000000      4.2238000000      40.8694000000
C      3.4469000000      5.1379000000      39.7714000000
H      2.9852000000      6.0784000000      40.1036000000
H      4.4465000000      5.3623000000      39.3836000000
C      2.6269000000      4.5116000000      38.6753000000
C      3.2082000000      4.1194000000      37.4743000000
H      4.2626000000      4.2848000000      37.3081000000
C      2.4468000000      3.5431000000      36.4830000000
H      2.8838000000      3.2572000000      35.5395000000
C      1.0746000000      3.3349000000      36.6690000000
C      0.4874000000      3.7376000000      37.8679000000
H     -0.5711000000      3.6221000000      38.0358000000
C      1.2633000000      4.3219000000      38.8508000000
H      0.7908000000      4.6533000000      39.7637000000
O      0.4295000000      2.7371000000      35.6493000000
C     -0.9720000000      2.5275000000      35.7277000000
H     -1.4914000000      3.4871000000      35.8456000000
H     -1.2041000000      1.8917000000      36.5943000000
C     -1.4248000000      1.8415000000      34.4420000000
H     -1.2006000000      2.4925000000      33.5971000000
H     -2.5051000000      1.7037000000      34.4931000000
C     -0.7260000000      0.4978000000      34.2495000000
H      0.3445000000      0.6856000000      34.1572000000
H     -0.8940000000     -0.1247000000      35.1330000000
C     -1.2338000000     -0.2379000000      33.0139000000
H     -2.3137000000     -0.3986000000      33.1000000000
H     -1.0958000000      0.3930000000      32.1281000000
C     -0.5816000000     -1.5512000000      32.7513000000
H     -1.0431000000     -2.1502000000      31.9780000000
C      0.5006000000     -2.0194000000      33.3778000000
H      0.9760000000     -1.4185000000      34.1400000000
C      1.1083000000     -3.3578000000      33.1395000000
H      2.1871000000     -3.3017000000      33.2946000000
H      0.9228000000     -3.6778000000      32.1133000000
C      0.5123000000     -4.4282000000      34.0797000000
H     -0.4871000000     -4.6793000000      33.7223000000
H      1.1259000000     -5.3282000000      34.0185000000
C      0.3882000000     -3.9836000000      35.5352000000
H     -0.2941000000     -3.1341000000      35.6035000000
H     -0.0441000000     -4.7994000000      36.1160000000
C      1.7159000000     -3.5985000000      36.1823000000
H      2.4350000000     -4.4241000000      36.1079000000
H      2.1441000000     -2.7125000000      35.6980000000
O      1.4439000000     -3.3195000000      37.5470000000
C      2.4072000000     -2.8279000000      38.3478000000
C      2.0577000000     -2.6747000000      39.6961000000
H      1.0837000000     -3.0114000000      40.0107000000
C      2.9526000000     -2.1374000000      40.5902000000
H      2.6911000000     -2.0586000000      41.6342000000
C      4.2121000000     -1.7106000000      40.1749000000
C      4.5721000000     -1.9001000000      38.8501000000
H      5.5607000000     -1.6202000000      38.5145000000
C      3.6902000000     -2.4616000000      37.9421000000
H      4.0144000000     -2.6211000000      36.9260000000
C      0.8867000000      1.9441000000      41.5862000000
H     -0.0550000000      1.6310000000      41.1138000000
H      0.8585000000      3.0334000000      41.7051000000
N      1.9928000000      1.6194000000      40.7177000000
C      1.7334000000      1.1048000000      39.5523000000
H      0.7239000000      0.8417000000      39.2508000000
C      2.8286000000      0.9876000000      38.6494000000
N      3.9677000000      1.4835000000      39.1902000000
C      5.1082000000      1.5330000000      38.4646000000
C      5.1351000000      1.0868000000      37.1487000000
H      6.0481000000      1.1419000000      36.5774000000
C      3.9706000000      0.5779000000      36.5841000000
H      3.9746000000      0.2343000000      35.5622000000
C      2.8060000000      0.5240000000      37.3370000000
H      1.8855000000      0.1457000000      36.9205000000
C      6.1833000000      2.1011000000      39.2202000000
H      7.1654000000      2.2504000000      38.7760000000
N      5.9143000000      2.4541000000      40.4365000000
C      6.9372000000      3.1023000000      41.2218000000
H      6.6073000000      4.1268000000      41.4256000000
H      7.8774000000      3.1473000000      40.6544000000
C      7.1682000000      2.3924000000      42.5322000000
C      6.9081000000      3.0101000000      43.7507000000
H      6.5694000000      4.0355000000      43.7718000000
C      7.0880000000      2.3329000000      44.9362000000
H      6.8977000000      2.8102000000      45.8837000000
C      7.5347000000      1.0062000000      44.9383000000
C      7.8498000000      0.4027000000      43.7208000000
H      8.2516000000     -0.5973000000      43.6854000000
C      7.6671000000      1.0970000000      42.5397000000
H      7.9310000000      0.6206000000      41.6073000000
O      7.6074000000      0.4080000000      46.1444000000
C      8.1173000000     -0.9125000000      46.2429000000
H      9.1550000000     -0.9372000000      45.8881000000
H      7.5156000000     -1.5941000000      45.6248000000
C      8.0553000000     -1.3474000000      47.7035000000
H      8.5845000000     -2.2961000000      47.7970000000
H      8.5710000000     -0.6051000000      48.3121000000
C      6.6176000000     -1.5064000000      48.1906000000
H      6.1197000000     -0.5351000000      48.1606000000
H      6.0793000000     -2.1852000000      47.5244000000
C      6.5586000000     -2.0718000000      49.6204000000
H      7.0377000000     -3.0526000000      49.6273000000
H      7.1087000000     -1.4080000000      50.2875000000
C      5.1374000000     -2.1873000000      50.0584000000
H      4.6881000000     -1.2977000000      50.4805000000
C      4.4026000000     -3.2921000000      49.8981000000
H      4.8626000000     -4.1724000000      49.4667000000
C      2.9505000000     -3.4125000000      50.2047000000
H      2.6344000000     -2.6368000000      50.9029000000
H      2.7600000000     -4.3886000000      50.6528000000
C      2.1197000000     -3.2977000000      48.9128000000
H      2.5554000000     -3.9469000000      48.1502000000
H      1.1036000000     -3.6420000000      49.1039000000
C      2.0863000000     -1.8533000000      48.4196000000
H      3.0940000000     -1.4326000000      48.4486000000
H      1.4533000000     -1.2540000000      49.0757000000
C      1.5576000000     -1.7341000000      46.9930000000
H      2.2701000000     -2.1939000000      46.2969000000
H      0.5886000000     -2.2400000000      46.8915000000
O      1.4036000000     -0.3514000000      46.7186000000
C      1.2250000000      0.0972000000      45.4628000000
C      1.2903000000     -0.6719000000      44.3006000000
H      1.4132000000     -1.7420000000      44.3491000000
C      1.1750000000     -0.0601000000      43.0658000000
H      1.2154000000     -0.6560000000      42.1684000000
C      0.9941000000      1.3112000000      42.9498000000
C      0.8626000000      2.0649000000      44.1105000000
H      0.6610000000      3.1247000000      44.0469000000
C      0.9762000000      1.4711000000      45.3464000000
H      0.8686000000      2.0456000000      46.2526000000
$end

$rem
job_type = opt
basis = def2-svpd
max_scf_cycles = 500
gen_scfman = true
xc_grid = 3
thresh = 14
s2thresh = 16
scf_algorithm = gdm
resp_charges = false
symmetry = false
sym_ignore = true
method = wb97mv
geom_opt_max_cycles = 200
ecp = def2-ecp
scf_convergence = 6
mem_total = 450000
$end

$geom_opt
maxiter = 200
coordinates = redundant
max_displacement = 0.1
optimization_restart = false
$end
--------------------------------------------------------------
 ----------------------------------------------------------------
             Standard Nuclear Orientation (Angstroms)
    I     Atom           X                Y                Z
 ----------------------------------------------------------------
    1      Co      3.9649000000     2.0123000000    40.9150000000
    2      C       5.1562000000    -1.1009000000    41.1795000000
    3      H       5.4039000000    -1.8436000000    41.9527000000
    4      H       6.0838000000    -0.8168000000    40.6705000000
    5      N       4.6095000000     0.0865000000    41.7792000000
    6      C       4.5447000000     0.1908000000    43.0569000000
    7      H       4.8480000000    -0.6139000000    43.7260000000
    8      C       4.1436000000     1.4472000000    43.6236000000
    9      N       3.9167000000     2.4208000000    42.7114000000
   10      C       3.6254000000     3.6692000000    43.1371000000
   11      C       3.5522000000     3.9809000000    44.4917000000
   12      H       3.3254000000     4.9892000000    44.7989000000
   13      C       3.7790000000     2.9836000000    45.4289000000
   14      H       3.7290000000     3.2031000000    46.4829000000
   15      C       4.0778000000     1.7025000000    44.9894000000
   16      H       4.2712000000     0.9091000000    45.6935000000
   17      C       3.4200000000     4.6189000000    42.0745000000
   18      H       3.1325000000     5.6421000000    42.3193000000
   19      N       3.6025000000     4.2238000000    40.8694000000
   20      C       3.4469000000     5.1379000000    39.7714000000
   21      H       2.9852000000     6.0784000000    40.1036000000
   22      H       4.4465000000     5.3623000000    39.3836000000
   23      C       2.6269000000     4.5116000000    38.6753000000
   24      C       3.2082000000     4.1194000000    37.4743000000
   25      H       4.2626000000     4.2848000000    37.3081000000
   26      C       2.4468000000     3.5431000000    36.4830000000
   27      H       2.8838000000     3.2572000000    35.5395000000
   28      C       1.0746000000     3.3349000000    36.6690000000
   29      C       0.4874000000     3.7376000000    37.8679000000
   30      H      -0.5711000000     3.6221000000    38.0358000000
   31      C       1.2633000000     4.3219000000    38.8508000000
   32      H       0.7908000000     4.6533000000    39.7637000000
   33      O       0.4295000000     2.7371000000    35.6493000000
   34      C      -0.9720000000     2.5275000000    35.7277000000
   35      H      -1.4914000000     3.4871000000    35.8456000000
   36      H      -1.2041000000     1.8917000000    36.5943000000
   37      C      -1.4248000000     1.8415000000    34.4420000000
   38      H      -1.2006000000     2.4925000000    33.5971000000
   39      H      -2.5051000000     1.7037000000    34.4931000000
   40      C      -0.7260000000     0.4978000000    34.2495000000
   41      H       0.3445000000     0.6856000000    34.1572000000
   42      H      -0.8940000000    -0.1247000000    35.1330000000
   43      C      -1.2338000000    -0.2379000000    33.0139000000
   44      H      -2.3137000000    -0.3986000000    33.1000000000
   45      H      -1.0958000000     0.3930000000    32.1281000000
   46      C      -0.5816000000    -1.5512000000    32.7513000000
   47      H      -1.0431000000    -2.1502000000    31.9780000000
   48      C       0.5006000000    -2.0194000000    33.3778000000
   49      H       0.9760000000    -1.4185000000    34.1400000000
   50      C       1.1083000000    -3.3578000000    33.1395000000
   51      H       2.1871000000    -3.3017000000    33.2946000000
   52      H       0.9228000000    -3.6778000000    32.1133000000
   53      C       0.5123000000    -4.4282000000    34.0797000000
   54      H      -0.4871000000    -4.6793000000    33.7223000000
   55      H       1.1259000000    -5.3282000000    34.0185000000
   56      C       0.3882000000    -3.9836000000    35.5352000000
   57      H      -0.2941000000    -3.1341000000    35.6035000000
   58      H      -0.0441000000    -4.7994000000    36.1160000000
   59      C       1.7159000000    -3.5985000000    36.1823000000
   60      H       2.4350000000    -4.4241000000    36.1079000000
   61      H       2.1441000000    -2.7125000000    35.6980000000
   62      O       1.4439000000    -3.3195000000    37.5470000000
   63      C       2.4072000000    -2.8279000000    38.3478000000
   64      C       2.0577000000    -2.6747000000    39.6961000000
   65      H       1.0837000000    -3.0114000000    40.0107000000
   66      C       2.9526000000    -2.1374000000    40.5902000000
   67      H       2.6911000000    -2.0586000000    41.6342000000
   68      C       4.2121000000    -1.7106000000    40.1749000000
   69      C       4.5721000000    -1.9001000000    38.8501000000
   70      H       5.5607000000    -1.6202000000    38.5145000000
   71      C       3.6902000000    -2.4616000000    37.9421000000
   72      H       4.0144000000    -2.6211000000    36.9260000000
   73      C       0.8867000000     1.9441000000    41.5862000000
   74      H      -0.0550000000     1.6310000000    41.1138000000
   75      H       0.8585000000     3.0334000000    41.7051000000
   76      N       1.9928000000     1.6194000000    40.7177000000
   77      C       1.7334000000     1.1048000000    39.5523000000
   78      H       0.7239000000     0.8417000000    39.2508000000
   79      C       2.8286000000     0.9876000000    38.6494000000
   80      N       3.9677000000     1.4835000000    39.1902000000
   81      C       5.1082000000     1.5330000000    38.4646000000
   82      C       5.1351000000     1.0868000000    37.1487000000
   83      H       6.0481000000     1.1419000000    36.5774000000
   84      C       3.9706000000     0.5779000000    36.5841000000
   85      H       3.9746000000     0.2343000000    35.5622000000
   86      C       2.8060000000     0.5240000000    37.3370000000
   87      H       1.8855000000     0.1457000000    36.9205000000
   88      C       6.1833000000     2.1011000000    39.2202000000
   89      H       7.1654000000     2.2504000000    38.7760000000
   90      N       5.9143000000     2.4541000000    40.4365000000
   91      C       6.9372000000     3.1023000000    41.2218000000
   92      H       6.6073000000     4.1268000000    41.4256000000
   93      H       7.8774000000     3.1473000000    40.6544000000
   94      C       7.1682000000     2.3924000000    42.5322000000
   95      C       6.9081000000     3.0101000000    43.7507000000
   96      H       6.5694000000     4.0355000000    43.7718000000
   97      C       7.0880000000     2.3329000000    44.9362000000
   98      H       6.8977000000     2.8102000000    45.8837000000
   99      C       7.5347000000     1.0062000000    44.9383000000
  100      C       7.8498000000     0.4027000000    43.7208000000
  101      H       8.2516000000    -0.5973000000    43.6854000000
  102      C       7.6671000000     1.0970000000    42.5397000000
  103      H       7.9310000000     0.6206000000    41.6073000000
  104      O       7.6074000000     0.4080000000    46.1444000000
  105      C       8.1173000000    -0.9125000000    46.2429000000
  106      H       9.1550000000    -0.9372000000    45.8881000000
  107      H       7.5156000000    -1.5941000000    45.6248000000
  108      C       8.0553000000    -1.3474000000    47.7035000000
  109      H       8.5845000000    -2.2961000000    47.7970000000
  110      H       8.5710000000    -0.6051000000    48.3121000000
  111      C       6.6176000000    -1.5064000000    48.1906000000
  112      H       6.1197000000    -0.5351000000    48.1606000000
  113      H       6.0793000000    -2.1852000000    47.5244000000
  114      C       6.5586000000    -2.0718000000    49.6204000000
  115      H       7.0377000000    -3.0526000000    49.6273000000
  116      H       7.1087000000    -1.4080000000    50.2875000000
  117      C       5.1374000000    -2.1873000000    50.0584000000
  118      H       4.6881000000    -1.2977000000    50.4805000000
  119      C       4.4026000000    -3.2921000000    49.8981000000
  120      H       4.8626000000    -4.1724000000    49.4667000000
  121      C       2.9505000000    -3.4125000000    50.2047000000
  122      H       2.6344000000    -2.6368000000    50.9029000000
  123      H       2.7600000000    -4.3886000000    50.6528000000
  124      C       2.1197000000    -3.2977000000    48.9128000000
  125      H       2.5554000000    -3.9469000000    48.1502000000
  126      H       1.1036000000    -3.6420000000    49.1039000000
  127      C       2.0863000000    -1.8533000000    48.4196000000
  128      H       3.0940000000    -1.4326000000    48.4486000000
  129      H       1.4533000000    -1.2540000000    49.0757000000
  130      C       1.5576000000    -1.7341000000    46.9930000000
  131      H       2.2701000000    -2.1939000000    46.2969000000
  132      H       0.5886000000    -2.2400000000    46.8915000000
  133      O       1.4036000000    -0.3514000000    46.7186000000
  134      C       1.2250000000     0.0972000000    45.4628000000
  135      C       1.2903000000    -0.6719000000    44.3006000000
  136      H       1.4132000000    -1.7420000000    44.3491000000
  137      C       1.1750000000    -0.0601000000    43.0658000000
  138      H       1.2154000000    -0.6560000000    42.1684000000
  139      C       0.9941000000     1.3112000000    42.9498000000
  140      C       0.8626000000     2.0649000000    44.1105000000
  141      H       0.6610000000     3.1247000000    44.0469000000
  142      C       0.9762000000     1.4711000000    45.3464000000
  143      H       0.8686000000     2.0456000000    46.2526000000
 ----------------------------------------------------------------
 Nuclear Repulsion Energy =       13828.20107576 hartrees
 There are      272 alpha and      269 beta electrons
 Requested basis set is def2-SVPD
 There are 872 shells and 2046 basis functions

 Total QAlloc Memory Limit 450000 MB
 Mega-Array Size       188 MB
 MEM_STATIC part       192 MB

 -----------------------------------------------------------------------
                STARTING GEOMETRY OPTIMIZER USING LIBOPT3
                by Peter F. McLaughlin, Yu Zhang, Evgeny Epifanovsky
 -----------------------------------------------------------------------

              Initial Energy and Gradient Calculation
   -- Checking Topology for Ill-Behaving Coordinates --

 -------------------------------------------
   Coordinate       |  Removed | Additions 
 -------------------------------------------
	Bonds                     0          0
	Angles                    1          0
	Torsions                  4          4
	Co-Linear Type5s          0          4
	Co-Linear Type6s          0          4
 -------------------------------------------

 ** Ill-Behaving Topology Definitions (No action needed.) **

  Ill-Defined Angles Removed: 
   9   1  80

  Ill-Defined Torsions Removed: 
   8   9   1  80,   9   1  80  79,   9   1  80  81,  10   9   1  80

     Done Checking Topology
 ----------------------------------------------------------------
             Standard Nuclear Orientation (Angstroms)
    I     Atom           X                Y                Z
 ----------------------------------------------------------------
    1      Co      3.9649000000     2.0123000000    40.9150000000
    2      C       5.1562000000    -1.1009000000    41.1795000000
    3      H       5.4039000000    -1.8436000000    41.9527000000
    4      H       6.0838000000    -0.8168000000    40.6705000000
    5      N       4.6095000000     0.0865000000    41.7792000000
    6      C       4.5447000000     0.1908000000    43.0569000000
    7      H       4.8480000000    -0.6139000000    43.7260000000
    8      C       4.1436000000     1.4472000000    43.6236000000
    9      N       3.9167000000     2.4208000000    42.7114000000
   10      C       3.6254000000     3.6692000000    43.1371000000
   11      C       3.5522000000     3.9809000000    44.4917000000
   12      H       3.3254000000     4.9892000000    44.7989000000
   13      C       3.7790000000     2.9836000000    45.4289000000
   14      H       3.7290000000     3.2031000000    46.4829000000
   15      C       4.0778000000     1.7025000000    44.9894000000
   16      H       4.2712000000     0.9091000000    45.6935000000
   17      C       3.4200000000     4.6189000000    42.0745000000
   18      H       3.1325000000     5.6421000000    42.3193000000
   19      N       3.6025000000     4.2238000000    40.8694000000
   20      C       3.4469000000     5.1379000000    39.7714000000
   21      H       2.9852000000     6.0784000000    40.1036000000
   22      H       4.4465000000     5.3623000000    39.3836000000
   23      C       2.6269000000     4.5116000000    38.6753000000
   24      C       3.2082000000     4.1194000000    37.4743000000
   25      H       4.2626000000     4.2848000000    37.3081000000
   26      C       2.4468000000     3.5431000000    36.4830000000
   27      H       2.8838000000     3.2572000000    35.5395000000
   28      C       1.0746000000     3.3349000000    36.6690000000
   29      C       0.4874000000     3.7376000000    37.8679000000
   30      H      -0.5711000000     3.6221000000    38.0358000000
   31      C       1.2633000000     4.3219000000    38.8508000000
   32      H       0.7908000000     4.6533000000    39.7637000000
   33      O       0.4295000000     2.7371000000    35.6493000000
   34      C      -0.9720000000     2.5275000000    35.7277000000
   35      H      -1.4914000000     3.4871000000    35.8456000000
   36      H      -1.2041000000     1.8917000000    36.5943000000
   37      C      -1.4248000000     1.8415000000    34.4420000000
   38      H      -1.2006000000     2.4925000000    33.5971000000
   39      H      -2.5051000000     1.7037000000    34.4931000000
   40      C      -0.7260000000     0.4978000000    34.2495000000
   41      H       0.3445000000     0.6856000000    34.1572000000
   42      H      -0.8940000000    -0.1247000000    35.1330000000
   43      C      -1.2338000000    -0.2379000000    33.0139000000
   44      H      -2.3137000000    -0.3986000000    33.1000000000
   45      H      -1.0958000000     0.3930000000    32.1281000000
   46      C      -0.5816000000    -1.5512000000    32.7513000000
   47      H      -1.0431000000    -2.1502000000    31.9780000000
   48      C       0.5006000000    -2.0194000000    33.3778000000
   49      H       0.9760000000    -1.4185000000    34.1400000000
   50      C       1.1083000000    -3.3578000000    33.1395000000
   51      H       2.1871000000    -3.3017000000    33.2946000000
   52      H       0.9228000000    -3.6778000000    32.1133000000
   53      C       0.5123000000    -4.4282000000    34.0797000000
   54      H      -0.4871000000    -4.6793000000    33.7223000000
   55      H       1.1259000000    -5.3282000000    34.0185000000
   56      C       0.3882000000    -3.9836000000    35.5352000000
   57      H      -0.2941000000    -3.1341000000    35.6035000000
   58      H      -0.0441000000    -4.7994000000    36.1160000000
   59      C       1.7159000000    -3.5985000000    36.1823000000
   60      H       2.4350000000    -4.4241000000    36.1079000000
   61      H       2.1441000000    -2.7125000000    35.6980000000
   62      O       1.4439000000    -3.3195000000    37.5470000000
   63      C       2.4072000000    -2.8279000000    38.3478000000
   64      C       2.0577000000    -2.6747000000    39.6961000000
   65      H       1.0837000000    -3.0114000000    40.0107000000
   66      C       2.9526000000    -2.1374000000    40.5902000000
   67      H       2.6911000000    -2.0586000000    41.6342000000
   68      C       4.2121000000    -1.7106000000    40.1749000000
   69      C       4.5721000000    -1.9001000000    38.8501000000
   70      H       5.5607000000    -1.6202000000    38.5145000000
   71      C       3.6902000000    -2.4616000000    37.9421000000
   72      H       4.0144000000    -2.6211000000    36.9260000000
   73      C       0.8867000000     1.9441000000    41.5862000000
   74      H      -0.0550000000     1.6310000000    41.1138000000
   75      H       0.8585000000     3.0334000000    41.7051000000
   76      N       1.9928000000     1.6194000000    40.7177000000
   77      C       1.7334000000     1.1048000000    39.5523000000
   78      H       0.7239000000     0.8417000000    39.2508000000
   79      C       2.8286000000     0.9876000000    38.6494000000
   80      N       3.9677000000     1.4835000000    39.1902000000
   81      C       5.1082000000     1.5330000000    38.4646000000
   82      C       5.1351000000     1.0868000000    37.1487000000
   83      H       6.0481000000     1.1419000000    36.5774000000
   84      C       3.9706000000     0.5779000000    36.5841000000
   85      H       3.9746000000     0.2343000000    35.5622000000
   86      C       2.8060000000     0.5240000000    37.3370000000
   87      H       1.8855000000     0.1457000000    36.9205000000
   88      C       6.1833000000     2.1011000000    39.2202000000
   89      H       7.1654000000     2.2504000000    38.7760000000
   90      N       5.9143000000     2.4541000000    40.4365000000
   91      C       6.9372000000     3.1023000000    41.2218000000
   92      H       6.6073000000     4.1268000000    41.4256000000
   93      H       7.8774000000     3.1473000000    40.6544000000
   94      C       7.1682000000     2.3924000000    42.5322000000
   95      C       6.9081000000     3.0101000000    43.7507000000
   96      H       6.5694000000     4.0355000000    43.7718000000
   97      C       7.0880000000     2.3329000000    44.9362000000
   98      H       6.8977000000     2.8102000000    45.8837000000
   99      C       7.5347000000     1.0062000000    44.9383000000
  100      C       7.8498000000     0.4027000000    43.7208000000
  101      H       8.2516000000    -0.5973000000    43.6854000000
  102      C       7.6671000000     1.0970000000    42.5397000000
  103      H       7.9310000000     0.6206000000    41.6073000000
  104      O       7.6074000000     0.4080000000    46.1444000000
  105      C       8.1173000000    -0.9125000000    46.2429000000
  106      H       9.1550000000    -0.9372000000    45.8881000000
  107      H       7.5156000000    -1.5941000000    45.6248000000
  108      C       8.0553000000    -1.3474000000    47.7035000000
  109      H       8.5845000000    -2.2961000000    47.7970000000
  110      H       8.5710000000    -0.6051000000    48.3121000000
  111      C       6.6176000000    -1.5064000000    48.1906000000
  112      H       6.1197000000    -0.5351000000    48.1606000000
  113      H       6.0793000000    -2.1852000000    47.5244000000
  114      C       6.5586000000    -2.0718000000    49.6204000000
  115      H       7.0377000000    -3.0526000000    49.6273000000
  116      H       7.1087000000    -1.4080000000    50.2875000000
  117      C       5.1374000000    -2.1873000000    50.0584000000
  118      H       4.6881000000    -1.2977000000    50.4805000000
  119      C       4.4026000000    -3.2921000000    49.8981000000
  120      H       4.8626000000    -4.1724000000    49.4667000000
  121      C       2.9505000000    -3.4125000000    50.2047000000
  122      H       2.6344000000    -2.6368000000    50.9029000000
  123      H       2.7600000000    -4.3886000000    50.6528000000
  124      C       2.1197000000    -3.2977000000    48.9128000000
  125      H       2.5554000000    -3.9469000000    48.1502000000
  126      H       1.1036000000    -3.6420000000    49.1039000000
  127      C       2.0863000000    -1.8533000000    48.4196000000
  128      H       3.0940000000    -1.4326000000    48.4486000000
  129      H       1.4533000000    -1.2540000000    49.0757000000
  130      C       1.5576000000    -1.7341000000    46.9930000000
  131      H       2.2701000000    -2.1939000000    46.2969000000
  132      H       0.5886000000    -2.2400000000    46.8915000000
  133      O       1.4036000000    -0.3514000000    46.7186000000
  134      C       1.2250000000     0.0972000000    45.4628000000
  135      C       1.2903000000    -0.6719000000    44.3006000000
  136      H       1.4132000000    -1.7420000000    44.3491000000
  137      C       1.1750000000    -0.0601000000    43.0658000000
  138      H       1.2154000000    -0.6560000000    42.1684000000
  139      C       0.9941000000     1.3112000000    42.9498000000
  140      C       0.8626000000     2.0649000000    44.1105000000
  141      H       0.6610000000     3.1247000000    44.0469000000
  142      C       0.9762000000     1.4711000000    45.3464000000
  143      H       0.8686000000     2.0456000000    46.2526000000
 ----------------------------------------------------------------
 Nuclear Repulsion Energy =       13828.20107576 hartrees
 There are      272 alpha and      269 beta electrons
 Requested basis set is def2-SVPD
 There are 872 shells and 2046 basis functions
 A cutoff of  1.0D-16 yielded 244926 shell pairs
 There are   1333752 function pairs (   1539617 Cartesian)
 Smallest overlap matrix eigenvalue = 9.55E-07
 Linear dependence detected in AO basis
 Number of orthogonalized atomic orbitals = 2045
 Maximum deviation from orthogonality = 1.265E-10

 Scale SEOQF with 1.000000e-02/1.000000e-02/1.000000e-03

 Standard Electronic Orientation quadrupole field applied
 Nucleus-field energy     =    -0.0000009420 hartrees
 Guess from superposition of atomic densities
 Warning:  Energy on first SCF cycle will be non-variational
 SAD guess density has 543.000000 electrons

 -----------------------------------------------------------------------
  General SCF calculation program by
  Eric Jon Sundstrom, Paul Horn, Yuezhi Mao, Dmitri Zuev, Alec White,
  David Stuck, Shaama M.S., Shane Yost, Joonho Lee, David Small,
  Daniel Levine, Susi Lehtola, Hugh Burton, Evgeny Epifanovsky,
  Bang C. Huynh
 -----------------------------------------------------------------------
 Exchange:     0.1500 Hartree-Fock + 1.0000 wB97M-V + LR-HF
 Correlation:  1.0000 wB97M-V
 Using SG-3 standard quadrature grid
 Nonlocal Correlation:  VV10 with C = 0.0100 and b = 6.00 and scale = 1.00000
 Grid used for NLC:  SG-1 standard quadrature
 using 128 threads for integral computing
 -------------------------------------------------------
 OpenMP Integral computing Module                
 Release: version 1.0, May 2013, Q-Chem Inc. Pittsburgh 
 -------------------------------------------------------
 A unrestricted SCF calculation will be
 performed using Roothaan-Hall, GDM
 SCF converges when RMS gradient is below 1.0e-06
 ---------------------------------------
  Cycle       Energy         DIIS error
 ---------------------------------------
    1   -4440.7997320748      7.43e-03  Roothaan Step
 ---------------------------------------
  Cycle       Energy        RMS Gradient
 ---------------------------------------
    1   -4411.7037773801      2.00e-01   Descent step
    2   -4412.3368023021      2.35e-01   Descent step
    3   -4412.6071996904      6.29e-02   Descent step
    4   -4412.7602121579      2.34e-01   Descent step
    5   -4412.7317363203      5.02e-01  Line search: overstep
    6   -4412.8213041294      3.90e-02   Descent step
    7   -4412.8758238423      4.46e-01   Descent step
    8   -4412.7853566681      6.57e-01  Line search: overstep
    9   -4412.9247805260      8.92e-02   Dog-leg BFGS step
   10   -4412.9845663167      1.13e-01   Dog-leg BFGS step
   11   -4413.0118392123      1.89e-02   Normal BFGS step
   12   -4413.0157530247      1.14e-02   Normal BFGS step
   13   -4413.0174626774      6.15e-03   Normal BFGS step
   14   -4413.0179838742      3.47e-03   Normal BFGS step
   15   -4413.0182275010      2.27e-03   Normal BFGS step
   16   -4413.0183265116      1.46e-03   Normal BFGS step
   17   -4413.0183745276      1.07e-03   Normal BFGS step
   18   -4413.0183998335      5.50e-04   Normal BFGS step
   19   -4413.0184107250      4.89e-04   Normal BFGS step
   20   -4413.0184169588      5.05e-04   Normal BFGS step
   21   -4413.0184219482      4.93e-04   Normal BFGS step
   22   -4413.0184260232      4.93e-04   Normal BFGS step
   23   -4413.0184300260      4.70e-04   Normal BFGS step
   24   -4413.0184371416      4.64e-04   Normal BFGS step
   25   -4413.0184472386      4.97e-04   Normal BFGS step
   26   -4413.0184587913      5.96e-04   Normal BFGS step
   27   -4413.0184697219      4.55e-04   Normal BFGS step
   28   -4413.0184767860      5.19e-04   Normal BFGS step
   29   -4413.0184811519      5.18e-04   Normal BFGS step
   30   -4413.0184857183      5.65e-04   Normal BFGS step
   31   -4413.0184925062      5.64e-04   Normal BFGS step
   32   -4413.0184990551      5.48e-04   Normal BFGS step
   33   -4413.0185048120      3.89e-04   Normal BFGS step
   34   -4413.0185085666      2.29e-04   Normal BFGS step
   35   -4413.0185111574      1.77e-04   Normal BFGS step
   36   -4413.0185128300      1.53e-04   Normal BFGS step
   37   -4413.0185138902      1.09e-04   Normal BFGS step
   38   -4413.0185144924      9.10e-05   Normal BFGS step
   39   -4413.0185147714      6.75e-05   Normal BFGS step
   40   -4413.0185148920      5.11e-05   Normal BFGS step
   41   -4413.0185149455      3.43e-05   Normal BFGS step
   42   -4413.0185149727      1.82e-05   Normal BFGS step
   43   -4413.0185149842      6.35e-06   Normal BFGS step
   44   -4413.0185149870      5.94e-06   Normal BFGS step
   45   -4413.0185149874      3.78e-06   Normal BFGS step
   46   -4413.0185149878      2.59e-06   Normal BFGS step
   47   -4413.0185149880      1.30e-06   Normal BFGS step
   48   -4413.0185149879      1.04e-06   Normal BFGS step
   49   -4413.0185149881      8.86e-07  Convergence criterion met
 ---------------------------------------
 SCF time:   CPU 1151815.98s  wall 27852.00s 
<S^2> =          3.768671364
 SCF   energy in the final basis set =    -4413.0185149881
 Total energy in the final basis set =    -4413.0185149881
 
 --------------------------------------------------------------
 
                    Orbital Energies (a.u.)
 --------------------------------------------------------------
 
 Alpha MOs
 -- Occupied --
******** -33.3450 -28.9083 -28.8991 -28.8869 -19.5399 -19.5374 -19.5325
-19.5324 -14.7592 -14.7566 -14.7562 -14.7497 -14.7495 -14.7426 -10.6273
-10.6267 -10.6234 -10.6213 -10.6204 -10.6198 -10.6176 -10.6166 -10.5947
-10.5935 -10.5897 -10.5895 -10.5878 -10.5872 -10.5863 -10.5834 -10.5825
-10.5811 -10.5809 -10.5803 -10.5793 -10.5782 -10.5621 -10.5589 -10.5557
-10.5542 -10.5399 -10.5395 -10.5384 -10.5379 -10.5375 -10.5369 -10.5364
-10.5358 -10.5344 -10.5339 -10.5333 -10.5328 -10.5305 -10.5294 -10.5270
-10.5269 -10.5254 -10.5252 -10.5230 -10.5214 -10.4926 -10.4887 -10.4856
-10.4828 -10.4825 -10.4813 -10.4784 -10.4770 -10.4761 -10.4755 -10.4743
-10.4741 -10.4719 -10.4679 -10.4672 -10.4668  -4.1639  -2.8434  -2.8248
 -2.8073  -1.3519  -1.3489  -1.3449  -1.3445  -1.3202  -1.3102  -1.2752
 -1.2701  -1.2539  -1.2510  -1.1591  -1.1578  -1.1542  -1.1533  -1.1404
 -1.1370  -1.1319  -1.1273  -1.0823  -1.0805  -1.0716  -1.0713  -1.0674
 -1.0633  -1.0507  -1.0500  -1.0438  -1.0421  -1.0399  -1.0389  -1.0333
 -1.0329  -1.0140  -1.0111  -1.0078  -1.0072  -0.9861  -0.9839  -0.9750
 -0.9725  -0.9520  -0.9507  -0.9472  -0.9467  -0.9223  -0.9190  -0.9149
 -0.9116  -0.9080  -0.9041  -0.9023  -0.9003  -0.8932  -0.8890  -0.8769
 -0.8742  -0.8681  -0.8649  -0.8628  -0.8570  -0.8510  -0.8442  -0.8413
 -0.8331  -0.8289  -0.8244  -0.8207  -0.8186  -0.8177  -0.8157  -0.8117
 -0.8111  -0.8058  -0.8022  -0.7957  -0.7935  -0.7916  -0.7886  -0.7807
 -0.7785  -0.7766  -0.7759  -0.7716  -0.7714  -0.7710  -0.7684  -0.7649
 -0.7629  -0.7580  -0.7516  -0.7503  -0.7492  -0.7483  -0.7454  -0.7423
 -0.7415  -0.7397  -0.7283  -0.7245  -0.7229  -0.7217  -0.7191  -0.7178
 -0.7147  -0.7121  -0.7086  -0.7068  -0.7057  -0.7050  -0.7020  -0.7013
 -0.6980  -0.6969  -0.6958  -0.6922  -0.6914  -0.6905  -0.6876  -0.6849
 -0.6810  -0.6779  -0.6756  -0.6724  -0.6704  -0.6686  -0.6660  -0.6650
 -0.6643  -0.6620  -0.6566  -0.6527  -0.6503  -0.6496  -0.6481  -0.6469
 -0.6409  -0.6387  -0.6370  -0.6359  -0.6340  -0.6323  -0.6310  -0.6278
 -0.6257  -0.6239  -0.6209  -0.6182  -0.6179  -0.6149  -0.6112  -0.6089
 -0.6069  -0.6020  -0.6005  -0.5993  -0.5941  -0.5919  -0.5889  -0.5868
 -0.5851  -0.5814  -0.5795  -0.5771  -0.5769  -0.5749  -0.5684  -0.5666
 -0.5638  -0.5629  -0.5620  -0.5608  -0.5570  -0.5543  -0.5500  -0.5497
 -0.5445  -0.5425  -0.5386  -0.5326  -0.5273  -0.5243  -0.5204  -0.5158
 -0.5142  -0.4851  -0.4798  -0.4753  -0.4736  -0.4705  -0.4597  -0.4531
 -- Virtual --
 -0.2215  -0.2143  -0.2075  -0.1922  -0.1248  -0.1240  -0.1187  -0.1144
 -0.1127  -0.1125  -0.1106  -0.1094  -0.1087  -0.1023  -0.1004  -0.0974
 -0.0951  -0.0929  -0.0915  -0.0878  -0.0864  -0.0819  -0.0809  -0.0793
 -0.0730  -0.0702  -0.0658  -0.0647  -0.0607  -0.0571  -0.0553  -0.0536
 -0.0521  -0.0502  -0.0483  -0.0477  -0.0461  -0.0437  -0.0409  -0.0407
 -0.0381  -0.0377  -0.0353  -0.0331  -0.0300  -0.0278  -0.0270  -0.0259
 -0.0242  -0.0225  -0.0195  -0.0180  -0.0176  -0.0156  -0.0144  -0.0127
 -0.0111  -0.0103  -0.0065  -0.0056  -0.0048  -0.0031  -0.0017  -0.0003
  0.0027   0.0038   0.0052   0.0080   0.0103   0.0132   0.0141   0.0149
  0.0185   0.0200   0.0202   0.0217   0.0246   0.0255   0.0268   0.0273
  0.0289   0.0296   0.0303   0.0317   0.0346   0.0368   0.0378   0.0427
  0.0435   0.0445   0.0464   0.0471   0.0480   0.0487   0.0508   0.0518
  0.0530   0.0543   0.0550   0.0575   0.0580   0.0585   0.0610   0.0623
  0.0631   0.0658   0.0667   0.0674   0.0688   0.0705   0.0717   0.0732
  0.0748   0.0762   0.0771   0.0776   0.0790   0.0803   0.0820   0.0829
  0.0830   0.0842   0.0855   0.0871   0.0886   0.0893   0.0905   0.0922
  0.0931   0.0950   0.0962   0.0979   0.1004   0.1021   0.1027   0.1028
  0.1041   0.1049   0.1080   0.1098   0.1102   0.1118   0.1138   0.1142
  0.1155   0.1163   0.1177   0.1193   0.1202   0.1218   0.1220   0.1234
  0.1258   0.1265   0.1270   0.1292   0.1299   0.1314   0.1321   0.1336
  0.1349   0.1359   0.1361   0.1387   0.1395   0.1404   0.1424   0.1437
  0.1442   0.1464   0.1479   0.1485   0.1493   0.1511   0.1519   0.1528
  0.1538   0.1552   0.1557   0.1572   0.1588   0.1593   0.1607   0.1615
  0.1628   0.1636   0.1657   0.1667   0.1671   0.1687   0.1689   0.1704
  0.1714   0.1725   0.1745   0.1754   0.1759   0.1775   0.1782   0.1796
  0.1809   0.1817   0.1821   0.1835   0.1839   0.1845   0.1865   0.1889
  0.1900   0.1902   0.1912   0.1919   0.1930   0.1933   0.1956   0.1973
  0.1982   0.1990   0.2000   0.2006   0.2017   0.2023   0.2033   0.2047
  0.2065   0.2078   0.2088   0.2101   0.2104   0.2110   0.2125   0.2128
  0.2145   0.2151   0.2165   0.2175   0.2191   0.2197   0.2213   0.2224
  0.2231   0.2248   0.2252   0.2260   0.2273   0.2282   0.2291   0.2295
  0.2310   0.2315   0.2318   0.2332   0.2342   0.2350   0.2358   0.2370
  0.2385   0.2396   0.2407   0.2412   0.2423   0.2428   0.2435   0.2454
  0.2461   0.2466   0.2472   0.2486   0.2498   0.2508   0.2521   0.2525
  0.2535   0.2549   0.2553   0.2560   0.2570   0.2583   0.2597   0.2603
  0.2612   0.2623   0.2628   0.2646   0.2657   0.2665   0.2675   0.2693
  0.2703   0.2712   0.2717   0.2729   0.2733   0.2742   0.2756   0.2760
  0.2768   0.2781   0.2787   0.2809   0.2814   0.2823   0.2838   0.2840
  0.2846   0.2864   0.2871   0.2883   0.2892   0.2899   0.2914   0.2918
  0.2918   0.2928   0.2934   0.2952   0.2961   0.2963   0.2976   0.2986
  0.2992   0.3013   0.3024   0.3034   0.3043   0.3052   0.3056   0.3068
  0.3076   0.3079   0.3093   0.3102   0.3120   0.3129   0.3135   0.3145
  0.3152   0.3156   0.3165   0.3177   0.3184   0.3192   0.3208   0.3221
  0.3231   0.3233   0.3240   0.3250   0.3266   0.3271   0.3289   0.3289
  0.3299   0.3310   0.3316   0.3327   0.3336   0.3344   0.3349   0.3359
  0.3365   0.3375   0.3382   0.3388   0.3402   0.3408   0.3424   0.3438
  0.3455   0.3460   0.3464   0.3473   0.3484   0.3489   0.3498   0.3522
  0.3526   0.3539   0.3546   0.3555   0.3559   0.3569   0.3578   0.3586
  0.3595   0.3613   0.3618   0.3623   0.3640   0.3655   0.3659   0.3675
  0.3682   0.3694   0.3698   0.3707   0.3717   0.3724   0.3732   0.3748
  0.3763   0.3780   0.3786   0.3796   0.3804   0.3814   0.3828   0.3838
  0.3840   0.3851   0.3853   0.3869   0.3877   0.3881   0.3902   0.3911
  0.3927   0.3930   0.3934   0.3947   0.3963   0.3971   0.3980   0.3984
  0.4007   0.4018   0.4022   0.4036   0.4045   0.4049   0.4060   0.4067
  0.4070   0.4081   0.4110   0.4115   0.4124   0.4131   0.4147   0.4154
  0.4156   0.4179   0.4184   0.4197   0.4206   0.4219   0.4226   0.4242
  0.4243   0.4261   0.4271   0.4278   0.4290   0.4318   0.4326   0.4334
  0.4337   0.4357   0.4374   0.4379   0.4393   0.4396   0.4410   0.4416
  0.4429   0.4435   0.4441   0.4456   0.4468   0.4491   0.4504   0.4510
  0.4518   0.4522   0.4531   0.4544   0.4564   0.4572   0.4590   0.4593
  0.4605   0.4617   0.4619   0.4623   0.4631   0.4640   0.4654   0.4663
  0.4677   0.4691   0.4695   0.4699   0.4707   0.4720   0.4727   0.4746
  0.4755   0.4769   0.4797   0.4802   0.4814   0.4819   0.4839   0.4850
  0.4856   0.4864   0.4866   0.4888   0.4905   0.4917   0.4920   0.4927
  0.4935   0.4952   0.4973   0.4988   0.4995   0.4998   0.5010   0.5023
  0.5042   0.5055   0.5066   0.5068   0.5085   0.5090   0.5105   0.5116
  0.5122   0.5134   0.5144   0.5152   0.5176   0.5183   0.5188   0.5211
  0.5227   0.5232   0.5246   0.5259   0.5265   0.5276   0.5285   0.5297
  0.5306   0.5320   0.5332   0.5342   0.5354   0.5364   0.5380   0.5388
  0.5398   0.5415   0.5427   0.5433   0.5446   0.5453   0.5470   0.5480
  0.5495   0.5515   0.5521   0.5529   0.5536   0.5550   0.5569   0.5578
  0.5591   0.5607   0.5619   0.5627   0.5643   0.5649   0.5663   0.5674
  0.5687   0.5715   0.5728   0.5733   0.5737   0.5747   0.5751   0.5762
  0.5774   0.5787   0.5802   0.5813   0.5831   0.5834   0.5846   0.5861
  0.5863   0.5869   0.5885   0.5905   0.5920   0.5925   0.5932   0.5942
  0.5957   0.5967   0.5975   0.5984   0.5995   0.6014   0.6020   0.6030
  0.6055   0.6076   0.6085   0.6088   0.6098   0.6105   0.6118   0.6136
  0.6141   0.6161   0.6176   0.6197   0.6210   0.6215   0.6230   0.6234
  0.6245   0.6265   0.6276   0.6282   0.6287   0.6309   0.6317   0.6327
  0.6337   0.6353   0.6378   0.6388   0.6393   0.6402   0.6415   0.6418
  0.6433   0.6444   0.6457   0.6487   0.6491   0.6503   0.6526   0.6538
  0.6549   0.6561   0.6574   0.6582   0.6591   0.6604   0.6617   0.6623
  0.6642   0.6666   0.6671   0.6682   0.6695   0.6707   0.6718   0.6741
  0.6749   0.6777   0.6778   0.6790   0.6804   0.6825   0.6834   0.6844
  0.6858   0.6868   0.6884   0.6896   0.6897   0.6908   0.6924   0.6939
  0.6953   0.6960   0.6972   0.6989   0.7009   0.7023   0.7031   0.7041
  0.7051   0.7064   0.7082   0.7084   0.7114   0.7125   0.7139   0.7154
  0.7166   0.7179   0.7202   0.7217   0.7227   0.7238   0.7247   0.7269
  0.7281   0.7288   0.7308   0.7329   0.7343   0.7353   0.7362   0.7387
  0.7405   0.7419   0.7441   0.7445   0.7479   0.7489   0.7493   0.7514
  0.7520   0.7540   0.7566   0.7572   0.7579   0.7586   0.7614   0.7636
  0.7658   0.7673   0.7681   0.7699   0.7711   0.7722   0.7734   0.7755
  0.7768   0.7794   0.7808   0.7821   0.7833   0.7847   0.7852   0.7862
  0.7883   0.7899   0.7905   0.7913   0.7938   0.7949   0.7988   0.8000
  0.8015   0.8017   0.8025   0.8048   0.8074   0.8084   0.8113   0.8115
  0.8130   0.8138   0.8157   0.8177   0.8205   0.8217   0.8233   0.8261
  0.8272   0.8287   0.8322   0.8338   0.8355   0.8361   0.8377   0.8394
  0.8409   0.8430   0.8443   0.8450   0.8469   0.8491   0.8508   0.8519
  0.8532   0.8574   0.8591   0.8614   0.8630   0.8649   0.8664   0.8676
  0.8690   0.8714   0.8736   0.8748   0.8779   0.8786   0.8805   0.8836
  0.8854   0.8878   0.8892   0.8911   0.8924   0.8944   0.8971   0.8990
  0.8996   0.9028   0.9040   0.9052   0.9070   0.9086   0.9095   0.9127
  0.9142   0.9149   0.9180   0.9192   0.9220   0.9234   0.9240   0.9264
  0.9277   0.9300   0.9310   0.9333   0.9352   0.9371   0.9393   0.9399
  0.9440   0.9448   0.9475   0.9481   0.9497   0.9502   0.9512   0.9527
  0.9540   0.9561   0.9567   0.9593   0.9606   0.9610   0.9625   0.9669
  0.9675   0.9687   0.9700   0.9732   0.9742   0.9753   0.9763   0.9784
  0.9821   0.9828   0.9855   0.9870   0.9887   0.9919   0.9923   0.9932
  0.9958   0.9982   1.0009   1.0020   1.0048   1.0055   1.0077   1.0091
  1.0116   1.0138   1.0151   1.0191   1.0209   1.0232   1.0244   1.0252
  1.0278   1.0286   1.0319   1.0334   1.0347   1.0357   1.0369   1.0379
  1.0400   1.0422   1.0443   1.0468   1.0484   1.0507   1.0517   1.0532
  1.0543   1.0561   1.0578   1.0586   1.0630   1.0638   1.0651   1.0680
  1.0703   1.0714   1.0729   1.0755   1.0770   1.0795   1.0812   1.0837
  1.0854   1.0878   1.0897   1.0944   1.0966   1.0971   1.0981   1.1013
  1.1034   1.1046   1.1064   1.1076   1.1110   1.1120   1.1131   1.1168
  1.1191   1.1203   1.1226   1.1232   1.1258   1.1262   1.1286   1.1298
  1.1316   1.1337   1.1350   1.1390   1.1411   1.1440   1.1469   1.1480
  1.1525   1.1550   1.1557   1.1578   1.1606   1.1625   1.1654   1.1669
  1.1702   1.1718   1.1728   1.1741   1.1756   1.1768   1.1817   1.1832
  1.1839   1.1870   1.1880   1.1901   1.1918   1.1928   1.1950   1.1966
  1.2013   1.2046   1.2059   1.2063   1.2093   1.2100   1.2109   1.2139
  1.2163   1.2182   1.2188   1.2219   1.2257   1.2261   1.2269   1.2296
  1.2321   1.2330   1.2352   1.2368   1.2393   1.2412   1.2427   1.2479
  1.2482   1.2498   1.2507   1.2531   1.2547   1.2572   1.2578   1.2637
  1.2639   1.2655   1.2680   1.2696   1.2714   1.2745   1.2763   1.2774
  1.2788   1.2799   1.2825   1.2840   1.2870   1.2887   1.2904   1.2931
  1.2945   1.2951   1.2982   1.2996   1.3012   1.3033   1.3075   1.3080
  1.3118   1.3140   1.3163   1.3181   1.3197   1.3226   1.3239   1.3292
  1.3301   1.3334   1.3350   1.3363   1.3383   1.3418   1.3430   1.3470
  1.3492   1.3504   1.3527   1.3544   1.3572   1.3582   1.3606   1.3612
  1.3657   1.3699   1.3726   1.3734   1.3774   1.3791   1.3798   1.3829
  1.3837   1.3883   1.3904   1.3910   1.3914   1.3951   1.3976   1.3992
  1.4020   1.4024   1.4033   1.4069   1.4123   1.4151   1.4171   1.4193
  1.4202   1.4233   1.4245   1.4283   1.4306   1.4319   1.4366   1.4375
  1.4402   1.4444   1.4470   1.4476   1.4516   1.4539   1.4554   1.4589
  1.4607   1.4651   1.4657   1.4693   1.4713   1.4744   1.4798   1.4811
  1.4824   1.4859   1.4882   1.4919   1.4961   1.4975   1.4986   1.5011
  1.5060   1.5069   1.5093   1.5151   1.5168   1.5191   1.5215   1.5257
  1.5276   1.5312   1.5368   1.5374   1.5421   1.5433   1.5445   1.5471
  1.5530   1.5542   1.5562   1.5589   1.5628   1.5649   1.5663   1.5684
  1.5726   1.5761   1.5766   1.5781   1.5807   1.5831   1.5870   1.5884
  1.5903   1.5931   1.5977   1.6008   1.6028   1.6068   1.6089   1.6115
  1.6145   1.6164   1.6199   1.6224   1.6261   1.6303   1.6310   1.6336
  1.6345   1.6386   1.6397   1.6419   1.6469   1.6508   1.6549   1.6555
  1.6568   1.6620   1.6645   1.6669   1.6720   1.6742   1.6764   1.6804
  1.6820   1.6829   1.6882   1.6888   1.6934   1.6975   1.6987   1.7014
  1.7022   1.7050   1.7070   1.7107   1.7122   1.7162   1.7170   1.7196
  1.7239   1.7276   1.7289   1.7313   1.7355   1.7367   1.7400   1.7451
  1.7475   1.7507   1.7513   1.7547   1.7570   1.7596   1.7616   1.7631
  1.7662   1.7676   1.7708   1.7718   1.7730   1.7751   1.7816   1.7831
  1.7847   1.7871   1.7895   1.7918   1.7944   1.7978   1.7994   1.8005
  1.8037   1.8059   1.8068   1.8117   1.8169   1.8183   1.8198   1.8204
  1.8225   1.8247   1.8251   1.8290   1.8297   1.8320   1.8342   1.8400
  1.8405   1.8411   1.8442   1.8472   1.8483   1.8526   1.8536   1.8547
  1.8585   1.8595   1.8631   1.8654   1.8683   1.8687   1.8713   1.8725
  1.8749   1.8777   1.8793   1.8809   1.8825   1.8840   1.8859   1.8880
  1.8891   1.8908   1.8917   1.8944   1.8960   1.8984   1.9009   1.9022
  1.9033   1.9046   1.9080   1.9086   1.9108   1.9145   1.9151   1.9155
  1.9184   1.9210   1.9225   1.9253   1.9264   1.9268   1.9296   1.9319
  1.9352   1.9384   1.9411   1.9436   1.9444   1.9464   1.9492   1.9506
  1.9510   1.9525   1.9541   1.9568   1.9600   1.9614   1.9655   1.9663
  1.9672   1.9691   1.9709   1.9718   1.9727   1.9748   1.9777   1.9816
  1.9828   1.9855   1.9865   1.9881   1.9885   1.9905   1.9929   1.9938
  1.9969   1.9990   2.0005   2.0031   2.0046   2.0055   2.0063   2.0090
  2.0100   2.0110   2.0142   2.0165   2.0194   2.0214   2.0222   2.0232
  2.0270   2.0284   2.0306   2.0326   2.0340   2.0357   2.0388   2.0407
  2.0415   2.0430   2.0457   2.0461   2.0494   2.0511   2.0527   2.0566
  2.0578   2.0593   2.0609   2.0615   2.0637   2.0652   2.0673   2.0678
  2.0714   2.0722   2.0753   2.0765   2.0804   2.0819   2.0840   2.0863
  2.0887   2.0905   2.0924   2.0929   2.0937   2.0953   2.0987   2.1003
  2.1035   2.1048   2.1078   2.1090   2.1100   2.1119   2.1133   2.1148
  2.1175   2.1191   2.1204   2.1248   2.1258   2.1271   2.1286   2.1299
  2.1352   2.1371   2.1405   2.1420   2.1442   2.1453   2.1481   2.1494
  2.1519   2.1548   2.1574   2.1617   2.1622   2.1633   2.1635   2.1648
  2.1689   2.1696   2.1709   2.1743   2.1758   2.1784   2.1807   2.1830
  2.1857   2.1866   2.1872   2.1921   2.1940   2.1964   2.1988   2.2007
  2.2024   2.2047   2.2096   2.2106   2.2121   2.2133   2.2178   2.2186
  2.2224   2.2263   2.2295   2.2299   2.2354   2.2390   2.2404   2.2423
  2.2459   2.2483   2.2528   2.2565   2.2569   2.2597   2.2646   2.2669
  2.2686   2.2706   2.2741   2.2768   2.2823   2.2836   2.2856   2.2922
  2.2937   2.2971   2.2999   2.3027   2.3042   2.3066   2.3103   2.3148
  2.3171   2.3194   2.3205   2.3239   2.3287   2.3294   2.3317   2.3323
  2.3383   2.3414   2.3428   2.3458   2.3482   2.3510   2.3514   2.3538
  2.3559   2.3608   2.3613   2.3634   2.3656   2.3676   2.3682   2.3718
  2.3743   2.3769   2.3820   2.3825   2.3852   2.3858   2.3896   2.3921
  2.3932   2.3947   2.3968   2.3997   2.4012   2.4018   2.4029   2.4061
  2.4095   2.4108   2.4128   2.4158   2.4205   2.4259   2.4269   2.4282
  2.4305   2.4350   2.4367   2.4382   2.4430   2.4441   2.4484   2.4502
  2.4534   2.4551   2.4596   2.4608   2.4615   2.4648   2.4687   2.4716
  2.4720   2.4750   2.4768   2.4806   2.4846   2.4864   2.4889   2.4933
  2.4938   2.4964   2.4987   2.5017   2.5032   2.5058   2.5088   2.5105
  2.5119   2.5159   2.5181   2.5211   2.5232   2.5269   2.5285   2.5327
  2.5335   2.5364   2.5386   2.5394   2.5412   2.5458   2.5473   2.5489
  2.5516   2.5519   2.5563   2.5606   2.5612   2.5671   2.5694   2.5713
  2.5727   2.5765   2.5785   2.5808   2.5834   2.5845   2.5872   2.5917
  2.5949   2.5950   2.5990   2.6031   2.6062   2.6071   2.6144   2.6153
  2.6202   2.6209   2.6219   2.6268   2.6287   2.6320   2.6367   2.6386
  2.6456   2.6458   2.6523   2.6598   2.6634   2.6701   2.6745   2.6755
  2.6774   2.6807   2.6932   2.6945   2.6996   2.7051   2.7076   2.7101
  2.7223   2.7292   2.7348   2.7369   2.7397   2.7426   2.7554   2.7595
  2.7599   2.7627   2.7658   2.7685   2.7726   2.7798   2.7815   2.7888
  2.7924   2.8017   2.8070   2.8109   2.8170   2.8233   2.8266   2.8276
  2.8327   2.8329   2.8361   2.8363   2.8429   2.8444   2.8488   2.8504
  2.8520   2.8563   2.8585   2.8620   2.8683   2.8739   2.8810   2.8867
  2.8893   2.8919   2.8938   2.8962   2.8995   2.9116   2.9164   2.9235
  2.9298   2.9339   2.9361   2.9416   2.9444   2.9472   2.9524   2.9578
  2.9628   2.9662   2.9678   2.9749   2.9778   2.9800   2.9831   2.9870
  2.9908   2.9937   2.9965   2.9997   3.0015   3.0070   3.0090   3.0168
  3.0207   3.0226   3.0237   3.0260   3.0292   3.0326   3.0360   3.0382
  3.0431   3.0464   3.0522   3.0564   3.0573   3.0594   3.0643   3.0693
  3.0708   3.0721   3.0777   3.0802   3.0855   3.0865   3.0895   3.0936
  3.0945   3.0980   3.1011   3.1034   3.1058   3.1090   3.1097   3.1121
  3.1144   3.1170   3.1211   3.1229   3.1275   3.1309   3.1360   3.1385
  3.1400   3.1417   3.1469   3.1540   3.1551   3.1600   3.1675   3.1736
  3.1760   3.1786   3.1819   3.1865   3.1948   3.1971   3.1988   3.2103
  3.2118   3.2220   3.2258   3.2312   3.2353   3.2423   3.2536   3.2713
  3.2885   3.3010   3.3092   3.3098   3.3175   3.3181   3.3359   3.3390
  3.3561   3.3623   3.3795   3.3942   3.4130   3.4329   3.4762   3.4792
  3.4910   3.4933   3.5263   3.5386   3.6094   3.6209   3.6237   3.6266
  3.6519   3.6566   3.7807   3.7834   3.7903   3.7943   4.7631   4.8000
  4.8112   4.8428   4.8673   4.8961   4.9980
 
 Beta MOs
 -- Occupied --
******** -33.2727 -28.8457 -28.8416 -28.8365 -19.5399 -19.5374 -19.5325
-19.5324 -14.7573 -14.7551 -14.7539 -14.7478 -14.7477 -14.7409 -10.6275
-10.6264 -10.6235 -10.6214 -10.6206 -10.6198 -10.6175 -10.6167 -10.5947
-10.5935 -10.5897 -10.5895 -10.5877 -10.5872 -10.5861 -10.5834 -10.5825
-10.5811 -10.5809 -10.5803 -10.5792 -10.5782 -10.5621 -10.5589 -10.5557
-10.5542 -10.5399 -10.5395 -10.5384 -10.5379 -10.5375 -10.5369 -10.5364
-10.5358 -10.5344 -10.5339 -10.5333 -10.5328 -10.5305 -10.5294 -10.5270
-10.5269 -10.5254 -10.5252 -10.5230 -10.5214 -10.4926 -10.4887 -10.4856
-10.4828 -10.4825 -10.4813 -10.4784 -10.4770 -10.4761 -10.4755 -10.4743
-10.4741 -10.4719 -10.4679 -10.4672 -10.4668  -4.0233  -2.6745  -2.6711
 -2.6700  -1.3519  -1.3489  -1.3449  -1.3445  -1.3182  -1.3085  -1.2732
 -1.2683  -1.2517  -1.2491  -1.1590  -1.1577  -1.1541  -1.1532  -1.1396
 -1.1363  -1.1315  -1.1269  -1.0821  -1.0803  -1.0715  -1.0711  -1.0673
 -1.0632  -1.0506  -1.0499  -1.0438  -1.0421  -1.0399  -1.0389  -1.0332
 -1.0327  -1.0137  -1.0109  -1.0075  -1.0069  -0.9859  -0.9838  -0.9744
 -0.9721  -0.9515  -0.9503  -0.9470  -0.9463  -0.9222  -0.9186  -0.9133
 -0.9099  -0.9065  -0.9039  -0.9006  -0.8996  -0.8930  -0.8888  -0.8756
 -0.8730  -0.8680  -0.8631  -0.8614  -0.8565  -0.8509  -0.8420  -0.8390
 -0.8330  -0.8274  -0.8235  -0.8203  -0.8180  -0.8165  -0.8152  -0.8114
 -0.8080  -0.8033  -0.8013  -0.7941  -0.7918  -0.7903  -0.7865  -0.7794
 -0.7775  -0.7755  -0.7751  -0.7713  -0.7706  -0.7680  -0.7633  -0.7624
 -0.7571  -0.7520  -0.7499  -0.7495  -0.7486  -0.7481  -0.7452  -0.7421
 -0.7412  -0.7395  -0.7247  -0.7231  -0.7223  -0.7212  -0.7169  -0.7168
 -0.7116  -0.7085  -0.7077  -0.7061  -0.7040  -0.7015  -0.7012  -0.6975
 -0.6968  -0.6932  -0.6913  -0.6902  -0.6873  -0.6845  -0.6801  -0.6771
 -0.6729  -0.6705  -0.6696  -0.6674  -0.6655  -0.6645  -0.6616  -0.6584
 -0.6568  -0.6527  -0.6512  -0.6483  -0.6456  -0.6395  -0.6387  -0.6353
 -0.6342  -0.6336  -0.6294  -0.6273  -0.6256  -0.6242  -0.6220  -0.6196
 -0.6185  -0.6166  -0.6162  -0.6107  -0.6085  -0.6071  -0.6035  -0.6016
 -0.5997  -0.5981  -0.5947  -0.5920  -0.5904  -0.5885  -0.5852  -0.5844
 -0.5801  -0.5780  -0.5759  -0.5688  -0.5672  -0.5650  -0.5638  -0.5623
 -0.5609  -0.5600  -0.5569  -0.5541  -0.5497  -0.5445  -0.5425  -0.5386
 -0.5363  -0.5326  -0.5317  -0.5236  -0.5198  -0.5157  -0.5142  -0.4800
 -0.4782  -0.4735  -0.4713  -0.4597  -0.4531
 -- Virtual --
 -0.2275  -0.2144  -0.2100  -0.1915  -0.1441  -0.1250  -0.1244  -0.1185
 -0.1166  -0.1126  -0.1120  -0.1103  -0.1093  -0.1072  -0.1037  -0.1000
 -0.0982  -0.0959  -0.0949  -0.0928  -0.0905  -0.0880  -0.0862  -0.0811
 -0.0808  -0.0787  -0.0715  -0.0710  -0.0656  -0.0646  -0.0601  -0.0586
 -0.0558  -0.0539  -0.0522  -0.0508  -0.0499  -0.0481  -0.0477  -0.0448
 -0.0433  -0.0409  -0.0406  -0.0377  -0.0374  -0.0351  -0.0330  -0.0298
 -0.0276  -0.0269  -0.0257  -0.0237  -0.0225  -0.0194  -0.0179  -0.0175
 -0.0153  -0.0142  -0.0126  -0.0110  -0.0102  -0.0063  -0.0053  -0.0042
 -0.0024  -0.0016  -0.0001   0.0030   0.0039   0.0054   0.0081   0.0105
  0.0133   0.0141   0.0155   0.0185   0.0202   0.0205   0.0217   0.0247
  0.0256   0.0270   0.0275   0.0291   0.0297   0.0304   0.0318   0.0348
  0.0371   0.0379   0.0428   0.0437   0.0447   0.0466   0.0476   0.0482
  0.0492   0.0509   0.0520   0.0533   0.0544   0.0552   0.0577   0.0581
  0.0586   0.0612   0.0625   0.0633   0.0660   0.0669   0.0676   0.0689
  0.0707   0.0719   0.0733   0.0749   0.0764   0.0773   0.0780   0.0792
  0.0805   0.0823   0.0831   0.0832   0.0844   0.0857   0.0871   0.0889
  0.0895   0.0906   0.0923   0.0933   0.0952   0.0964   0.0981   0.1005
  0.1022   0.1029   0.1031   0.1044   0.1052   0.1081   0.1101   0.1106
  0.1121   0.1139   0.1143   0.1160   0.1166   0.1178   0.1195   0.1205
  0.1221   0.1224   0.1240   0.1261   0.1269   0.1276   0.1298   0.1301
  0.1318   0.1329   0.1344   0.1353   0.1368   0.1369   0.1391   0.1397
  0.1409   0.1427   0.1438   0.1451   0.1466   0.1481   0.1493   0.1498
  0.1514   0.1521   0.1531   0.1542   0.1556   0.1562   0.1575   0.1589
  0.1597   0.1612   0.1617   0.1632   0.1638   0.1660   0.1670   0.1673
  0.1689   0.1690   0.1706   0.1716   0.1727   0.1746   0.1756   0.1762
  0.1777   0.1784   0.1800   0.1814   0.1820   0.1826   0.1837   0.1842
  0.1853   0.1870   0.1890   0.1903   0.1906   0.1919   0.1920   0.1934
  0.1940   0.1958   0.1981   0.1988   0.1998   0.2005   0.2009   0.2024
  0.2032   0.2037   0.2050   0.2068   0.2081   0.2089   0.2104   0.2110
  0.2114   0.2131   0.2142   0.2147   0.2153   0.2167   0.2184   0.2194
  0.2203   0.2216   0.2225   0.2236   0.2250   0.2254   0.2266   0.2281
  0.2290   0.2296   0.2299   0.2312   0.2319   0.2322   0.2341   0.2347
  0.2353   0.2362   0.2373   0.2389   0.2399   0.2411   0.2415   0.2428
  0.2429   0.2437   0.2460   0.2463   0.2468   0.2480   0.2493   0.2503
  0.2511   0.2525   0.2530   0.2540   0.2551   0.2558   0.2566   0.2573
  0.2586   0.2598   0.2608   0.2617   0.2628   0.2632   0.2651   0.2661
  0.2666   0.2678   0.2695   0.2707   0.2716   0.2723   0.2731   0.2742
  0.2744   0.2758   0.2762   0.2769   0.2787   0.2790   0.2812   0.2815
  0.2826   0.2840   0.2844   0.2847   0.2866   0.2873   0.2884   0.2893
  0.2905   0.2914   0.2920   0.2924   0.2931   0.2938   0.2954   0.2963
  0.2972   0.2978   0.2988   0.2996   0.3017   0.3025   0.3038   0.3045
  0.3056   0.3059   0.3073   0.3078   0.3081   0.3095   0.3106   0.3124
  0.3131   0.3136   0.3146   0.3155   0.3158   0.3167   0.3181   0.3185
  0.3195   0.3211   0.3226   0.3232   0.3236   0.3241   0.3251   0.3271
  0.3274   0.3290   0.3292   0.3300   0.3311   0.3320   0.3330   0.3339
  0.3345   0.3351   0.3361   0.3368   0.3380   0.3383   0.3389   0.3404
  0.3410   0.3426   0.3439   0.3456   0.3462   0.3467   0.3475   0.3486
  0.3494   0.3499   0.3523   0.3528   0.3541   0.3548   0.3558   0.3560
  0.3573   0.3579   0.3590   0.3597   0.3615   0.3620   0.3627   0.3643
  0.3656   0.3661   0.3677   0.3686   0.3695   0.3703   0.3709   0.3720
  0.3725   0.3735   0.3756   0.3767   0.3781   0.3791   0.3798   0.3806
  0.3817   0.3830   0.3841   0.3844   0.3854   0.3856   0.3873   0.3879
  0.3883   0.3906   0.3913   0.3930   0.3931   0.3936   0.3950   0.3965
  0.3973   0.3983   0.3988   0.4009   0.4020   0.4026   0.4037   0.4047
  0.4052   0.4061   0.4069   0.4071   0.4085   0.4112   0.4120   0.4126
  0.4134   0.4149   0.4155   0.4163   0.4181   0.4186   0.4200   0.4208
  0.4222   0.4228   0.4244   0.4245   0.4263   0.4273   0.4279   0.4292
  0.4320   0.4327   0.4335   0.4339   0.4358   0.4376   0.4380   0.4395
  0.4397   0.4413   0.4418   0.4431   0.4436   0.4445   0.4457   0.4470
  0.4492   0.4506   0.4512   0.4519   0.4524   0.4533   0.4545   0.4568
  0.4573   0.4591   0.4594   0.4609   0.4619   0.4620   0.4624   0.4632
  0.4642   0.4655   0.4666   0.4678   0.4694   0.4696   0.4700   0.4709
  0.4723   0.4729   0.4747   0.4756   0.4770   0.4799   0.4806   0.4816
  0.4821   0.4840   0.4853   0.4858   0.4866   0.4867   0.4891   0.4906
  0.4920   0.4921   0.4928   0.4938   0.4955   0.4975   0.4991   0.4997
  0.5000   0.5012   0.5026   0.5043   0.5055   0.5069   0.5072   0.5086
  0.5091   0.5107   0.5118   0.5124   0.5136   0.5146   0.5156   0.5178
  0.5185   0.5190   0.5212   0.5229   0.5233   0.5247   0.5260   0.5267
  0.5279   0.5288   0.5300   0.5309   0.5323   0.5334   0.5346   0.5358
  0.5368   0.5382   0.5392   0.5400   0.5417   0.5429   0.5434   0.5447
  0.5455   0.5473   0.5483   0.5500   0.5516   0.5523   0.5534   0.5539
  0.5556   0.5570   0.5580   0.5595   0.5612   0.5621   0.5629   0.5651
  0.5652   0.5665   0.5677   0.5691   0.5717   0.5730   0.5735   0.5739
  0.5751   0.5757   0.5764   0.5775   0.5789   0.5804   0.5818   0.5835
  0.5840   0.5848   0.5862   0.5865   0.5872   0.5887   0.5907   0.5921
  0.5926   0.5934   0.5943   0.5958   0.5969   0.5979   0.5986   0.5998
  0.6020   0.6024   0.6033   0.6056   0.6077   0.6087   0.6089   0.6099
  0.6110   0.6121   0.6139   0.6142   0.6164   0.6179   0.6199   0.6211
  0.6216   0.6233   0.6237   0.6247   0.6272   0.6278   0.6285   0.6288
  0.6312   0.6320   0.6329   0.6339   0.6355   0.6380   0.6390   0.6396
  0.6403   0.6417   0.6421   0.6436   0.6447   0.6459   0.6490   0.6493
  0.6509   0.6528   0.6540   0.6552   0.6562   0.6579   0.6584   0.6592
  0.6607   0.6619   0.6625   0.6648   0.6667   0.6673   0.6683   0.6698
  0.6708   0.6720   0.6743   0.6751   0.6779   0.6780   0.6793   0.6806
  0.6828   0.6836   0.6845   0.6859   0.6871   0.6886   0.6896   0.6901
  0.6911   0.6926   0.6942   0.6955   0.6961   0.6975   0.6992   0.7011
  0.7024   0.7032   0.7044   0.7052   0.7068   0.7083   0.7091   0.7117
  0.7126   0.7141   0.7155   0.7168   0.7181   0.7204   0.7221   0.7229
  0.7241   0.7250   0.7271   0.7283   0.7290   0.7314   0.7332   0.7347
  0.7355   0.7364   0.7389   0.7411   0.7421   0.7448   0.7451   0.7482
  0.7494   0.7499   0.7519   0.7522   0.7542   0.7570   0.7573   0.7581
  0.7590   0.7617   0.7641   0.7661   0.7681   0.7684   0.7701   0.7714
  0.7725   0.7739   0.7759   0.7770   0.7797   0.7810   0.7824   0.7837
  0.7849   0.7860   0.7865   0.7886   0.7901   0.7911   0.7920   0.7941
  0.7952   0.7990   0.8007   0.8017   0.8023   0.8028   0.8051   0.8081
  0.8088   0.8117   0.8118   0.8133   0.8139   0.8161   0.8182   0.8208
  0.8219   0.8239   0.8269   0.8278   0.8291   0.8324   0.8342   0.8358
  0.8366   0.8383   0.8404   0.8413   0.8434   0.8446   0.8455   0.8479
  0.8494   0.8512   0.8523   0.8538   0.8578   0.8593   0.8621   0.8634
  0.8652   0.8667   0.8680   0.8696   0.8719   0.8742   0.8752   0.8787
  0.8789   0.8809   0.8839   0.8857   0.8882   0.8895   0.8916   0.8931
  0.8947   0.8974   0.8993   0.8997   0.9031   0.9044   0.9056   0.9073
  0.9087   0.9100   0.9129   0.9146   0.9156   0.9182   0.9198   0.9227
  0.9242   0.9244   0.9269   0.9279   0.9305   0.9312   0.9337   0.9356
  0.9375   0.9396   0.9402   0.9445   0.9451   0.9482   0.9485   0.9499
  0.9506   0.9514   0.9530   0.9550   0.9565   0.9571   0.9594   0.9609
  0.9615   0.9637   0.9672   0.9677   0.9690   0.9701   0.9734   0.9750
  0.9757   0.9767   0.9787   0.9825   0.9830   0.9860   0.9872   0.9889
  0.9922   0.9926   0.9935   0.9961   0.9985   1.0011   1.0023   1.0051
  1.0061   1.0079   1.0095   1.0119   1.0141   1.0154   1.0197   1.0212
  1.0235   1.0249   1.0257   1.0280   1.0287   1.0321   1.0336   1.0350
  1.0359   1.0371   1.0383   1.0404   1.0426   1.0449   1.0469   1.0488
  1.0509   1.0520   1.0541   1.0547   1.0562   1.0580   1.0590   1.0632
  1.0643   1.0654   1.0686   1.0707   1.0719   1.0735   1.0761   1.0774
  1.0803   1.0815   1.0839   1.0858   1.0882   1.0901   1.0947   1.0968
  1.0975   1.0984   1.1014   1.1039   1.1050   1.1070   1.1080   1.1119
  1.1130   1.1133   1.1172   1.1197   1.1205   1.1229   1.1243   1.1260
  1.1266   1.1288   1.1301   1.1318   1.1340   1.1353   1.1392   1.1417
  1.1447   1.1470   1.1489   1.1527   1.1553   1.1564   1.1581   1.1612
  1.1635   1.1657   1.1674   1.1710   1.1723   1.1730   1.1743   1.1762
  1.1776   1.1823   1.1838   1.1845   1.1875   1.1884   1.1903   1.1922
  1.1938   1.1953   1.1968   1.2019   1.2050   1.2061   1.2067   1.2095
  1.2102   1.2119   1.2143   1.2165   1.2186   1.2192   1.2223   1.2259
  1.2263   1.2274   1.2304   1.2324   1.2333   1.2355   1.2373   1.2398
  1.2415   1.2435   1.2485   1.2486   1.2504   1.2509   1.2535   1.2551
  1.2576   1.2583   1.2640   1.2647   1.2659   1.2685   1.2700   1.2719
  1.2749   1.2765   1.2781   1.2790   1.2802   1.2826   1.2843   1.2873
  1.2890   1.2906   1.2940   1.2947   1.2955   1.2986   1.3000   1.3015
  1.3044   1.3082   1.3085   1.3128   1.3144   1.3166   1.3190   1.3198
  1.3229   1.3241   1.3299   1.3310   1.3337   1.3357   1.3372   1.3387
  1.3431   1.3441   1.3478   1.3498   1.3507   1.3532   1.3550   1.3580
  1.3589   1.3611   1.3620   1.3662   1.3702   1.3729   1.3738   1.3779
  1.3795   1.3807   1.3836   1.3848   1.3895   1.3911   1.3916   1.3936
  1.3964   1.3983   1.3996   1.4026   1.4032   1.4040   1.4075   1.4126
  1.4160   1.4175   1.4201   1.4207   1.4247   1.4262   1.4292   1.4315
  1.4326   1.4371   1.4383   1.4408   1.4449   1.4475   1.4490   1.4521
  1.4543   1.4559   1.4594   1.4613   1.4657   1.4663   1.4696   1.4718
  1.4750   1.4804   1.4819   1.4828   1.4875   1.4887   1.4929   1.4967
  1.4984   1.5001   1.5023   1.5070   1.5083   1.5098   1.5155   1.5176
  1.5198   1.5230   1.5264   1.5286   1.5325   1.5375   1.5394   1.5429
  1.5450   1.5459   1.5483   1.5546   1.5549   1.5570   1.5594   1.5634
  1.5667   1.5671   1.5695   1.5738   1.5766   1.5772   1.5785   1.5811
  1.5840   1.5875   1.5892   1.5915   1.5938   1.5987   1.6014   1.6037
  1.6077   1.6099   1.6120   1.6156   1.6169   1.6203   1.6240   1.6266
  1.6308   1.6318   1.6342   1.6351   1.6392   1.6403   1.6427   1.6479
  1.6512   1.6555   1.6561   1.6573   1.6628   1.6652   1.6676   1.6725
  1.6753   1.6777   1.6808   1.6828   1.6833   1.6889   1.6895   1.6937
  1.6977   1.6992   1.7016   1.7025   1.7055   1.7073   1.7117   1.7128
  1.7168   1.7181   1.7210   1.7242   1.7281   1.7294   1.7321   1.7361
  1.7369   1.7402   1.7456   1.7486   1.7517   1.7517   1.7553   1.7579
  1.7601   1.7624   1.7646   1.7665   1.7686   1.7721   1.7725   1.7738
  1.7762   1.7821   1.7841   1.7855   1.7876   1.7913   1.7925   1.7949
  1.7984   1.8001   1.8010   1.8045   1.8066   1.8071   1.8125   1.8173
  1.8187   1.8204   1.8211   1.8228   1.8251   1.8257   1.8299   1.8303
  1.8323   1.8345   1.8404   1.8408   1.8418   1.8445   1.8475   1.8485
  1.8529   1.8539   1.8555   1.8589   1.8601   1.8633   1.8659   1.8687
  1.8695   1.8719   1.8729   1.8757   1.8780   1.8797   1.8812   1.8828
  1.8843   1.8863   1.8885   1.8893   1.8916   1.8921   1.8947   1.8963
  1.8988   1.9014   1.9027   1.9036   1.9054   1.9086   1.9090   1.9113
  1.9146   1.9158   1.9161   1.9192   1.9212   1.9229   1.9259   1.9268
  1.9274   1.9299   1.9324   1.9357   1.9392   1.9414   1.9438   1.9449
  1.9468   1.9495   1.9510   1.9514   1.9528   1.9546   1.9573   1.9604
  1.9617   1.9660   1.9665   1.9677   1.9693   1.9713   1.9722   1.9730
  1.9753   1.9784   1.9823   1.9842   1.9859   1.9868   1.9885   1.9895
  1.9912   1.9942   1.9947   1.9977   1.9992   2.0012   2.0042   2.0054
  2.0060   2.0072   2.0094   2.0109   2.0117   2.0144   2.0170   2.0200
  2.0217   2.0228   2.0239   2.0273   2.0292   2.0313   2.0333   2.0349
  2.0360   2.0392   2.0416   2.0417   2.0435   2.0459   2.0469   2.0497
  2.0515   2.0530   2.0572   2.0581   2.0597   2.0614   2.0618   2.0644
  2.0658   2.0677   2.0689   2.0722   2.0729   2.0759   2.0771   2.0810
  2.0826   2.0846   2.0869   2.0891   2.0910   2.0929   2.0937   2.0943
  2.0957   2.0993   2.1009   2.1042   2.1052   2.1084   2.1101   2.1106
  2.1129   2.1137   2.1151   2.1178   2.1198   2.1212   2.1253   2.1264
  2.1275   2.1291   2.1305   2.1356   2.1379   2.1409   2.1423   2.1447
  2.1456   2.1488   2.1500   2.1522   2.1552   2.1582   2.1624   2.1627
  2.1638   2.1639   2.1656   2.1691   2.1702   2.1714   2.1748   2.1768
  2.1790   2.1812   2.1836   2.1860   2.1873   2.1881   2.1925   2.1949
  2.1974   2.1993   2.2010   2.2028   2.2050   2.2103   2.2111   2.2125
  2.2147   2.2181   2.2198   2.2227   2.2270   2.2298   2.2304   2.2362
  2.2394   2.2409   2.2429   2.2468   2.2490   2.2533   2.2572   2.2573
  2.2605   2.2651   2.2673   2.2695   2.2714   2.2744   2.2769   2.2826
  2.2843   2.2862   2.2931   2.2942   2.2975   2.3007   2.3036   2.3052
  2.3071   2.3112   2.3152   2.3175   2.3200   2.3219   2.3248   2.3290
  2.3301   2.3322   2.3332   2.3388   2.3417   2.3431   2.3460   2.3484
  2.3515   2.3527   2.3541   2.3567   2.3612   2.3617   2.3638   2.3661
  2.3681   2.3686   2.3723   2.3750   2.3775   2.3822   2.3832   2.3858
  2.3861   2.3899   2.3926   2.3936   2.3951   2.3971   2.3999   2.4017
  2.4021   2.4036   2.4066   2.4098   2.4112   2.4133   2.4165   2.4209
  2.4262   2.4273   2.4285   2.4309   2.4361   2.4373   2.4393   2.4432
  2.4443   2.4486   2.4506   2.4546   2.4554   2.4603   2.4611   2.4620
  2.4652   2.4692   2.4720   2.4725   2.4753   2.4776   2.4820   2.4850
  2.4867   2.4892   2.4934   2.4945   2.4967   2.4990   2.5020   2.5036
  2.5068   2.5090   2.5107   2.5126   2.5161   2.5186   2.5218   2.5236
  2.5280   2.5287   2.5331   2.5343   2.5367   2.5388   2.5398   2.5417
  2.5461   2.5479   2.5494   2.5517   2.5521   2.5566   2.5609   2.5618
  2.5675   2.5703   2.5716   2.5736   2.5768   2.5789   2.5814   2.5837
  2.5849   2.5880   2.5921   2.5952   2.5955   2.5993   2.6033   2.6065
  2.6072   2.6157   2.6158   2.6209   2.6214   2.6237   2.6272   2.6290
  2.6323   2.6369   2.6391   2.6460   2.6469   2.6536   2.6602   2.6636
  2.6710   2.6749   2.6758   2.6775   2.6809   2.6934   2.6959   2.7005
  2.7060   2.7079   2.7111   2.7229   2.7307   2.7351   2.7388   2.7398
  2.7440   2.7554   2.7596   2.7601   2.7636   2.7662   2.7694   2.7734
  2.7807   2.7826   2.7897   2.7933   2.8021   2.8077   2.8116   2.8172
  2.8237   2.8270   2.8283   2.8332   2.8336   2.8363   2.8368   2.8433
  2.8449   2.8494   2.8510   2.8523   2.8566   2.8591   2.8628   2.8697
  2.8745   2.8825   2.8874   2.8902   2.8925   2.8945   2.8968   2.9007
  2.9121   2.9173   2.9241   2.9302   2.9344   2.9361   2.9427   2.9448
  2.9478   2.9532   2.9590   2.9635   2.9664   2.9681   2.9751   2.9780
  2.9805   2.9835   2.9883   2.9909   2.9941   2.9971   2.9998   3.0019
  3.0074   3.0094   3.0170   3.0210   3.0229   3.0239   3.0262   3.0296
  3.0330   3.0361   3.0383   3.0433   3.0466   3.0523   3.0569   3.0574
  3.0595   3.0648   3.0698   3.0710   3.0726   3.0782   3.0810   3.0857
  3.0869   3.0899   3.0948   3.0962   3.0983   3.1017   3.1037   3.1068
  3.1092   3.1104   3.1124   3.1153   3.1172   3.1218   3.1231   3.1284
  3.1315   3.1362   3.1388   3.1402   3.1421   3.1479   3.1541   3.1556
  3.1601   3.1680   3.1737   3.1762   3.1789   3.1822   3.1866   3.1949
  3.1972   3.1990   3.2103   3.2119   3.2220   3.2259   3.2312   3.2353
  3.2424   3.2552   3.2729   3.2905   3.3025   3.3097   3.3101   3.3177
  3.3182   3.3375   3.3391   3.3563   3.3640   3.3812   3.3959   3.4156
  3.4350   3.4763   3.4793   3.4911   3.4934   3.5284   3.5407   3.6104
  3.6216   3.6238   3.6276   3.6519   3.6566   3.7807   3.7834   3.7903
  3.7943   4.8594   4.9242   4.9346   4.9479   4.9901   5.0236   5.1317
 --------------------------------------------------------------
 
          Ground-State Mulliken Net Atomic Charges

     Atom                 Charge (a.u.)    Spin (a.u.)
  --------------------------------------------------------
      1 Co                   -0.910869       2.967319
      2 C                     2.368998      -0.004067
      3 H                     0.010886       0.000748
      4 H                     0.153234       0.000614
      5 N                    -0.864699       0.008206
      6 C                     0.032326      -0.000792
      7 H                    -0.097164       0.006134
      8 C                    -0.223472      -0.012824
      9 N                    -0.260821       0.008590
     10 C                     0.890306      -0.005451
     11 C                     0.305208       0.001500
     12 H                    -0.457917       0.000821
     13 C                     0.494124      -0.004249
     14 H                     0.279583      -0.000226
     15 C                     1.198148       0.004915
     16 H                    -1.060115       0.000904
     17 C                    -0.547101      -0.025515
     18 H                     0.009017       0.005573
     19 N                    -0.433239       0.029174
     20 C                     2.044518      -0.004365
     21 H                     0.072193       0.001030
     22 H                     0.201890       0.001586
     23 C                    -1.669254       0.001215
     24 C                     0.055145      -0.000088
     25 H                     0.034913       0.000076
     26 C                     0.049934       0.000322
     27 H                    -0.081858      -0.000584
     28 C                    -0.242758      -0.000213
     29 C                     0.381906       0.000438
     30 H                     0.860834      -0.000295
     31 C                    -0.432224       0.000762
[...]
   0.10000000   0.10000000   0.10000000   0.10000000   0.10000000
   0.10000000   0.10000000   0.10000000   0.10000000   0.10000000
   0.10000000   0.10000000   0.10000000   0.10000000   0.10000000
   0.10000000   0.10000000   0.10000000   0.10000000   0.10000000
   0.10000000   0.10000000   0.10000000   0.10000000   0.10000000
   0.10000000   0.10000000   0.10000000   0.10000000   0.10000000
   0.10000000   0.10000000   0.10000000   0.10000000   0.10000000
   0.10000000   0.10000000   0.10000000   0.10000000   0.10000000
   0.10000000   0.10000000   0.10000000   0.10000000   0.10000000
   0.10000000   0.10000000   0.10000000   0.10000000   0.10000000
   0.10000000   0.10000000   0.10000000   0.10000000   0.10000000
   0.10000000   0.10000000   0.10000000   0.10000000   0.10000000
   0.10000000   0.10000000   0.10000000   0.10000000   0.10000000
   0.10000000   0.10000000   0.10000000   0.10000000   0.10000000
   0.10000000   0.10000000   0.10000000   0.10000000   0.10000000
   0.10000000   0.10000000   0.10000000   0.10000000   0.10000000
   0.10000000   0.10000000   0.10000000   0.10000000   0.10000000
   0.10000000   0.10000000   0.10000000   0.10000000   0.10000000
   0.10000000   0.10000000   0.10000000   0.10000000   0.10000000
   0.10000000   0.10000000   0.10000000   0.10000000   0.10000000
   0.10000000   0.10000000   0.10000000   0.10000000   0.10000000
   0.10000000   0.10000000   0.10000000   0.10000000   0.10000000
   0.10000000   0.10000000   0.10000000   0.10000000   0.10000000
   0.10000000   0.10000000   0.10000000   0.10000000   0.10000000
   0.10000000   0.10000000   0.10000000   0.10000000   0.10000000
   0.10000000   0.10000000   0.10000000   0.10000000   0.10000000
   0.10000000   0.10000000   0.10000000   0.10000000   0.10000000
   0.10000000   0.10000000   0.10000000   0.10000000   0.10000000
   0.10000000   0.10000000   0.10000000   0.10000000   0.20000000
   0.20000000   0.20000000   0.20000000   0.20000000   0.20000000
   0.20000000   0.20000000   0.20000000   0.20000000   0.20000000
   0.20000000   0.20000000   0.20000000   0.20000000   0.20000000
   0.20000000   0.20000000   0.20000000   0.20000000   0.20000000
   0.20000000   0.20000000   0.20000000   0.20000000   0.20000000
   0.20000000   0.20000000   0.20000000   0.20000000   0.20000000
   0.20000000   0.20000000   0.20000000   0.20000000   0.20000000
   0.20000000   0.20000000   0.20000000   0.20000000   0.20000000
   0.20000000   0.20000000   0.20000000   0.20000000   0.20000000
   0.20000000   0.20000000   0.20000000   0.20000000   0.20000000
   0.20000000   0.20000000   0.20000000   0.20000000   0.20000000
   0.20000000   0.20000000   0.20000000   0.20000000   0.20000000
   0.20000000   0.20000000   0.20000000   0.20000000   0.20000000
   0.20000000   0.20000000   0.20000000   0.20000000   0.20000000
   0.20000000   0.20000000   0.20000000   0.20000000   0.20000000
   0.20000000   0.20000000   0.20000000   0.20000000   0.20000000
   0.20000000   0.20000000   0.20000000   0.20000000   0.20000000
   0.20000000   0.20000000   0.20000000   0.20000000   0.20000000
   0.20000000   0.20000000   0.20000000   0.20000000   0.20000000
   0.20000000   0.20000000   0.20000000   0.20000000   0.20000000
   0.20000000   0.20000000   0.20000000   0.20000000   0.20000000
   0.20000000   0.20000000   0.20000000   0.20000000   0.20000000
   0.20000000   0.20000000   0.20000000   0.20000000   0.20000000
   0.20000000   0.20000000   0.20000000   0.20000000   0.20000000
   0.20000000   0.20000000   0.20000000   0.20000000   0.20000000
   0.20000000   0.20000000   0.20000000   0.20000000   0.20000000
   0.20000000   0.20000000   0.20000000   0.20000000   0.20000000
   0.20000000   0.20000000   0.20000000   0.20000000   0.20000000
   0.20000000   0.20000000   0.20000000   0.20000000   0.20000000
   0.20000000   0.20000000   0.20000000   0.20000000   0.20000000
   0.20000000   0.20000000   0.20000000   0.20000000   0.20000000
   0.20000000   0.20000000   0.20000000   0.20000000   0.20000000
   0.20000000   0.20000000   0.20000000   0.20000000   0.20000000
   0.20000000   0.20000000   0.20000000   0.20000000   0.20000000
   0.20000000   0.20000000   0.20000000   0.20000000   0.20000000
   0.20000000   0.20000000   0.20000000   0.20000000   0.20000000
   0.20000000   0.20000000   0.20000000   0.20000000   0.20000000
   0.20000000   0.20000000   0.20000000   0.20000000   0.20000000
   0.20000000   0.20000000   0.20000000   0.20000000   0.20000000
   0.20000000   0.20000000   0.20000000   0.20000000   0.20000000
   0.20000000   0.20000000   0.20000000   0.20000000   0.20000000
   0.20000000   0.20000000   0.20000000   0.20000000   0.20000000
   0.20000000   0.20000000   0.20000000   0.20000000   0.20000000
   0.20000000   0.20000000   0.20000000   0.20000000   0.20000000
   0.20000000   0.20000000   0.20000000   0.20000000   0.20000000
   0.20000000   0.20000000   0.20000000   0.20000000   0.20000000
   0.20000000   0.20000000   0.20000000   0.20000000   0.20000000
   0.20000000   0.20000000   0.20000000   0.20000000   0.20000000
   0.20000000   0.20000000   0.20000000   0.20000000   0.20000000
   0.20000000   0.20000000   0.20000000   0.20000000   0.20000000
   0.20000000   0.20000000   0.20000000   0.20000000   0.20000000
   0.20000000   0.20000000   0.20000000   0.20000000   0.20000000
   0.20000000   0.20000000   0.20000000   0.20000000   0.20000000
   0.20000000   0.20000000   0.20000000   0.20000000   0.20000000
   0.20000000   0.20000000   0.20000000   0.20000000   0.20000000
   0.20000000   0.20000000   0.20000000   0.20000000   0.20000000
   0.20000000   0.50000000   0.50000000   0.50000000   0.50000000
   0.50000000   0.50000000   0.50000000   0.50000000   0.50000000
   0.50000000   0.50000000   0.50000000   0.50000000   0.50000000
   0.50000000   0.50000000   0.50000000   0.50000000   0.50000000
   0.50000000   0.50000000   0.50000000   0.50000000   0.50000000
   0.50000000   0.50000000   0.50000000   0.50000000   0.50000000
   0.50000000   0.50000000   0.50000000   0.50000000   0.50000000
   0.50000000   0.50000000   0.50000000   0.50000000   0.50000000
   0.50000000   0.50000000   0.50000000   0.50000000   0.50000000
   0.50000000   0.50000000   0.50000000   0.50000000   0.50000000
   0.50000000   0.50000000   0.50000000   0.50000000   0.50000000
   0.50000000   0.50000000   0.50000000   0.50000000   0.50000000
   0.50000000   0.50000000   0.50000000   0.50000000   0.50000000
   0.50000000   0.50000000   0.50000000   0.50000000   0.50000000
   0.50000000   0.50000000   0.50000000   0.50000000   0.50000000
   0.50000000   0.50000000   0.50000000   0.50000000   0.50000000
   0.50000000   0.50000000   0.50000000   0.50000000   0.50000000
   0.50000000   0.50000000   0.50000000   0.50000000   0.50000000
   0.50000000   0.50000000   0.50000000   0.50000000   0.50000000
   0.50000000   0.50000000   0.50000000   0.50000000   0.50000000
   0.50000000   0.50000000   0.50000000   0.50000000   0.50000000
   0.50000000   0.50000000   0.50000000   0.50000000   0.50000000
   0.50000000   0.50000000   0.50000000   0.50000000   0.50000000
   0.50000000   0.50000000   0.50000000   0.50000000   0.50000000
   0.50000000   0.50000000   0.50000000   0.50000000   0.50000000
   0.50000000   0.50000000   0.50000000   0.50000000   0.50000000
   0.50000000   0.50000000   0.50000000   0.50000000   0.50000000
   0.50000000   0.50000000   0.50000000   0.50000000   0.50000000
   0.50000000   0.50000000   0.50000000   0.50000000   0.50000000
   0.50000000   0.50000000   0.50000000   0.50000000   0.50000000
   0.50000000   0.50000000   0.50000000   0.50000000   0.50000000
   1.00000000   1.00000000   1.00000000   1.00000000   1.00000000
   1.00000000   1.00000000   1.00000000

 Minimum Search taking a RFO step
 Searching for Lambda that minimizes along all modes
	Value of Lambda   -0.05589617
	Norm  of Stepsize  0.37741192
	RMS   of Stepsize  0.01266511

	Performing Iterative Coordinate Back-Transformation

	  Starting from Previous Position

	  iter:	0	rms: 1.1351770244e-01	maxdev: 4.0657927521e-01
	  iter:	1	rms: 3.0337516027e-03	maxdev: 9.9062224204e-03
	  iter:	2	rms: 1.7923906249e-05	maxdev: 6.3174618179e-05
	  iter:	3	rms: 5.7772399718e-07	maxdev: 2.0393159767e-06	 Success!

	Finished Iterative Coordinate Back-Transformation
 ----------------------------------------------------------------
             Standard Nuclear Orientation (Angstroms)
    I     Atom           X                Y                Z
 ----------------------------------------------------------------
    1      Co      3.9373483772     1.9788708252    40.9450236919
    2      C       5.1276864548    -1.1497124812    41.2547572142
    3      H       5.3722028923    -1.8768357413    42.0457208664
    4      H       6.0622802930    -0.8848999837    40.7420883102
    5      N       4.5834959968     0.0593200917    41.8378501300
    6      C       4.5275328971     0.1610795134    43.1039343799
    7      H       4.8333246181    -0.6568985953    43.7642632593
    8      C       4.1313261908     1.4351210704    43.7020753549
    9      N       3.9008347348     2.4081945639    42.8060061047
   10      C       3.6202826358     3.6532456565    43.2145369815
   11      C       3.5589015526     3.9763887052    44.5709812155
   12      H       3.3392101508     4.9947719399    44.8779107026
   13      C       3.7891131745     2.9730700279    45.5077980762
   14      H       3.7487852977     3.1948293927    46.5698168776
   15      C       4.0783831070     1.6815546372    45.0701199113
   16      H       4.2755928609     0.8797010189    45.7754792295
   17      C       3.4168999125     4.5976941668    42.1168492849
   18      H       3.1391605271     5.6321829423    42.3479100043
   19      N       3.5892473402     4.1978584437    40.9193210911
   20      C       3.4303850207     5.1393069306    39.8256057870
   21      H       2.9814191956     6.0776444271    40.1855309778
   22      H       4.4321582944     5.3684822934    39.4380184902
   23      C       2.6036553129     4.5500665947    38.7092404122
   24      C       3.1960210926     4.1920145402    37.4926959743
   25      H       4.2586947097     4.3671002495    37.3383054341
   26      C       2.4441901903     3.6352517270    36.4723509473
   27      H       2.8924225615     3.3718122113    35.5186192574
   28      C       1.0704772584     3.4129156014    36.6466170007
   29      C       0.4588360440     3.7838352843    37.8502461184
   30      H      -0.6084781190     3.6537080871    37.9994083385
   31      C       1.2314715738     4.3526655522    38.8643969703
   32      H       0.7451433684     4.6586981698    39.7886725500
   33      O       0.4382363155     2.8278772495    35.6144745525
   34      C      -0.9668049936     2.6153029756    35.6759725318
   35      H      -1.4861254099     3.5774551372    35.7926882358
   36      H      -1.2136311074     1.9769256360    36.5401306002
   37      C      -1.3777825060     1.9232716943    34.3857092822
   38      H      -1.1362544970     2.5808353537    33.5433923774
   39      H      -2.4640210441     1.7813609576    34.4073196350
   40      C      -0.6699846482     0.5783312123    34.2167175626
   41      H       0.4085125076     0.7644713765    34.1572853655
   42      H      -0.8634942701    -0.0414018182    35.1041936648
   43      C      -1.1263348610    -0.1760504744    32.9720168928
   44      H      -2.2124313119    -0.3392070039    33.0172979531
   45      H      -0.9584171075     0.4543371119    32.0858257196
   46      C      -0.4592780452    -1.5008176996    32.7462574748
   47      H      -0.8892264797    -2.1132983576    31.9532992734
   48      C       0.5926072660    -1.9778588343    33.4164224165
   49      H       1.0362922508    -1.3685349774    34.2036850597
   50      C       1.2024118460    -3.3325495175    33.2040616930
   51      H       2.2811623371    -3.2829241700    33.3979228645
   52      H       1.0610507921    -3.6439018112    32.1638092135
   53      C       0.5708242294    -4.4131847044    34.1122145169
   54      H      -0.4177555871    -4.6620010419    33.7120746543
   55      H       1.1852517538    -5.3202994227    34.0648519481
   56      C       0.3889346606    -3.9910715896    35.5694780872
   57      H      -0.2958831528    -3.1369178053    35.6264389797
   58      H      -0.0678857370    -4.8129885486    36.1313912550
   59      C       1.6907398301    -3.6204819088    36.2622942539
   60      H       2.4145292929    -4.4474776987    36.2044063554
   61      H       2.1402797232    -2.7283675949    35.8008763595
   62      O       1.3812104866    -3.3468853011    37.6240052592
   63      C       2.3403040787    -2.8703785422    38.4344796864
   64      C       1.9813594820    -2.6914309724    39.7818004510
   65      H       0.9895665529    -3.0030782651    40.0964996625
   66      C       2.8936296569    -2.1574113512    40.6760630661
   67      H       2.6248499272    -2.0547315408    41.7241994203
   68      C       4.1722424830    -1.7613696858    40.2582428334
   69      C       4.5314951969    -1.9831278095    38.9324953009
   70      H       5.5341450667    -1.7282326539    38.5952016708
   71      C       3.6347221316    -2.5434697930    38.0208908893
   72      H       3.9554363078    -2.7283623827    37.0001869988
   73      C       0.7800317329     1.8903075782    41.5569467320
   74      H      -0.1434138168     1.5637612335    41.0541023703
   75      H       0.7291497044     2.9821932671    41.6663173009
   76      N       1.9279088754     1.5782535099    40.7202422697
   77      C       1.6857549961     1.0632644720    39.5763045446
   78      H       0.6697873816     0.7962046018    39.2774249562
   79      C       2.7922322599     0.9220980040    38.6398545127
   80      N       3.9298125903     1.4098984003    39.1478785337
   81      C       5.0573226794     1.4568937206    38.4336606247
   82      C       5.0835464090     0.9960838043    37.1167065022
   83      H       5.9991291067     1.0464904488    36.5345784983
   84      C       3.9085082397     0.4823608924    36.5700840194
   85      H       3.8999676412     0.1242285181    35.5449793833
   86      C       2.7429945168     0.4398383215    37.3357592583
   87      H       1.8098505872     0.0589654178    36.9303175999
   88      C       6.1469172415     2.0507711140    39.1987250557
   89      H       7.1298801614     2.1985446559    38.7424754330
   90      N       5.9050093068     2.4175315686    40.4002226767
   91      C       6.9736795422     3.0764659274    41.1390346609
   92      H       6.6630698364     4.1119021885    41.3316924304
   93      H       7.8903164359     3.1028727268    40.5305282523
   94      C       7.2450326692     2.3899501155    42.4570781966
   95      C       7.0399347927     3.0470758543    43.6750013113
   96      H       6.7219083914     4.0874218043    43.6805586863
   97      C       7.2387614847     2.3922542330    44.8797223331
   98      H       7.0840632418     2.8973151234    45.8288284917
   99      C       7.6475771701     1.0506510063    44.8963512257
  100      C       7.9201263903     0.4008095938    43.6855826125
  101      H       8.2942709841    -0.6180625746    43.6701546529
  102      C       7.7195270622     1.0780811667    42.4838528142
  103      H       7.9419737333     0.5665814439    41.5493111045
  104      O       7.7267286547     0.4670695921    46.1051452263
  105      C       8.2135946554    -0.8668289930    46.1920375278
  106      H       9.2482455743    -0.9032503524    45.8216001815
  107      H       7.5946513333    -1.5333796770    45.5697761924
  108      C       8.1363396780    -1.3093896630    47.6446653857
  109      H       8.6529370885    -2.2720172869    47.7293330051
  110      H       8.6723324707    -0.5796979113    48.2614296619
  111      C       6.6945571345    -1.4530122347    48.1341226098
  112      H       6.2051159992    -0.4708723822    48.1106504408
  113      H       6.1469938932    -2.1200599844    47.4544168888
  114      C       6.6028965668    -2.0338856603    49.5563858123
  115      H       7.0736351809    -3.0240895234    49.5572333398
  116      H       7.1634716842    -1.3829219218    50.2366843676
  117      C       5.1771107043    -2.1541312856    50.0115588059
  118      H       4.7224940733    -1.2666999940    50.4543325392
  119      C       4.4410968488    -3.2571483674    49.8487074499
  120      H       4.9168437734    -4.1318851105    49.4006280543
  121      C       2.9835805957    -3.4103033106    50.1636219047
  122      H       2.6594881184    -2.6485525570    50.8818172410
  123      H       2.8173136378    -4.3975392708    50.6086257476
  124      C       2.1241235154    -3.3007111749    48.8872661444
  125      H       2.5662669945    -3.9383155429    48.1098174046
  126      H       1.1152333355    -3.6766233048    49.0909533618
  127      C       2.0318193793    -1.8566112405    48.3983974033
  128      H       3.0273881073    -1.3970956849    48.4124225375
  129      H       1.3873367390    -1.2807594705    49.0722411030
  130      C       1.4815518421    -1.7414087433    46.9854003459
  131      H       2.2056378456    -2.1684633149    46.2755026566
  132      H       0.5268507288    -2.2775156395    46.8771729709
  133      O       1.2782133985    -0.3577026039    46.7229532075
  134      C       1.0893775775     0.0803997089    45.4675738388
  135      C       1.2001691704    -0.7094156198    44.3168032501
  136      H       1.3618126686    -1.7807951396    44.3870715482
  137      C       1.0860190421    -0.1083133885    43.0632034253
  138      H       1.1668684623    -0.7180223275    42.1680371807
  139      C       0.8671007689     1.2623735109    42.9271555617
  140      C       0.6847922181     2.0245000429    44.0847801369
  141      H       0.4528732438     3.0846378604    44.0049951860
  142      C       0.7921718933     1.4454119016    45.3383414554
  143      H       0.6527451217     2.0279246364    46.2448368929
 ----------------------------------------------------------------
 Nuclear Repulsion Energy =       13747.92976385 hartrees
 There are      272 alpha and      269 beta electrons
 Nucleus-field energy     =-9.4192353652e-07 hartrees
 Requested basis set is def2-SVPD
 There are 872 shells and 2046 basis functions
 A cutoff of  1.0D-16 yielded 244660 shell pairs
 There are   1332806 function pairs (   1538610 Cartesian)
 Smallest overlap matrix eigenvalue = 1.13E-06
 Guess MOs from SCF MO coefficient file

 -----------------------------------------------------------------------
  General SCF calculation program by
  Eric Jon Sundstrom, Paul Horn, Yuezhi Mao, Dmitri Zuev, Alec White,
  David Stuck, Shaama M.S., Shane Yost, Joonho Lee, David Small,
  Daniel Levine, Susi Lehtola, Hugh Burton, Evgeny Epifanovsky,
  Bang C. Huynh
 -----------------------------------------------------------------------
 Exchange:     0.1500 Hartree-Fock + 1.0000 wB97M-V + LR-HF
 Correlation:  1.0000 wB97M-V
 Using SG-3 standard quadrature grid
 Nonlocal Correlation:  VV10 with C = 0.0100 and b = 6.00 and scale = 1.00000
 Grid used for NLC:  SG-1 standard quadrature
 Size of previous SCF MO coefficient file: 8376324 (expected); 8372230 (actual). 

 Q-Chem warning in module libgscf/gen_scfman/uhf.C, line 793:

 Inconsistent size for SCF MO coefficient file.  Please check basis and PURECART setting.

 A unrestricted SCF calculation will be
 performed using GDM
 SCF converges when RMS gradient is below 1.0e-06
 ---------------------------------------
  Cycle       Energy        RMS Gradient
 ---------------------------------------
  GDM::project_to_ew_ss: zero or negative preconditioner scaling factor
gen_scfman_exception:  GDM:: Zero or negative preconditioner scaling factor

 Q-Chem fatal error occurred in module libgscf/gen_scfman/gen_scfman_main.C, line 246:

 Error in gen_scfman


 Please submit a crash report at q-chem.com/reporter 
 
 
