Process 0 of 1 is on n0105.savio1 - thread support 0
initial socket setup ...start
initial socket setup ...done 
now start server 0 ... 
n0105.savio1 10.0.1
Q-Chem Developer Version! Running on 10.0.1.*
                  Welcome to Q-Chem
     A Quantum Leap Into The Future Of Chemistry


 Q-Chem 5.1, Q-Chem, Inc., Pleasanton, CA (2018)

 Yihan Shao,  Zhengting Gan,  E. Epifanovsky,  A. T. B. Gilbert,  M. Wormit,  
 J. Kussmann,  A. W. Lange,  A. Behn,  Jia Deng,  Xintian Feng,  D. Ghosh,  
 M. Goldey,  P. R. Horn,  L. D. Jacobson,  I. Kaliman,  T. Kus,  A. Landau,  
 Jie Liu,  E. I. Proynov,  R. M. Richard,  R. P. Steele,  E. J. Sundstrom,  
 H. L. Woodcock III,  P. M. Zimmerman,  D. Zuev,  B. Albrecht,  E. Alguire,  
 S. A. Baeppler,  D. Barton,  Z. Benda,  Y. A. Bernard,  E. J. Berquist,  
 K. B. Bravaya,  H. Burton,  D. Casanova,  Chun-Min Chang,  Yunqing Chen,  
 A. Chien,  K. D. Closser,  M. P. Coons,  S. Coriani,  S. Dasgupta,  
 A. L. Dempwolff,  M. Diedenhofen,  Hainam Do,  R. G. Edgar,  Po-Tung Fang,  
 S. Faraji,  S. Fatehi,  Qingguo Feng,  K. D. Fenk,  J. Fosso-Tande,  
 Qinghui Ge,  A. Ghysels,  G. Gidofalvi,  J. Gomes,  J. Gonthier,  A. Gunina,  
 M. W. D. Hanson-Heine,  P. H. P. Harbach,  A. W. Hauser,  J. E. Herr,  
 E. G. Hohenstein,  Z. C. Holden,  Kerwin Hui,  T.-C. Jagau,  Hyunjun Ji,  
 B. Kaduk,  K. Khistyaev,  Jaehoon Kim,  P. Klunzinger,  K. Koh,  
 D. Kosenkov,  L. Koulias,  T. Kowalczyk,  C. M. Krauter,  A. Kunitsa,  
 Ka Un Lao,  A. Laurent,  K. V. Lawler,  Joonho Lee,  D. Lefrancois,  
 S. Lehtola,  D. S. Levine,  Yi-Pei Li,  You-Sheng Lin,  Fenglai Liu,  
 E. Livshits,  A. Luenser,  P. Manohar,  E. Mansoor,  S. F. Manzer,  
 Shan-Ping Mao,  Yuezhi Mao,  N. Mardirossian,  A. V. Marenich,  
 T. Markovich,  L. A. Martinez-Martinez,  S. A. Maurer,  N. J. Mayhall,  
 S. C. McKenzie,  J.-M. Mewes,  A. F. Morrison,  J. W. Mullinax,  K. Nanda,  
 T. S. Nguyen-Beck,  R. Olivares-Amaya,  J. A. Parkhill,  T. M. Perrine,  
 F. Plasser,  P. Pokhilko,  S. Prager,  A. Prociuk,  E. Ramos,  D. R. Rehn,  
 F. Rob,  M. Schneider,  N. Sergueev,  S. M. Sharada,  S. Sharma,  
 D. W. Small,  T. Stauch,  T. Stein,  Yu-Chuan Su,  A. J. W. Thom,  
 A. Tkatchenko,  T. Tsuchimochi,  N. M. Tubman,  L. Vogt,  M. L. Vidal,  
 O. Vydrov,  M. A. Watson,  J. Wenzel,  M. de Wergifosse,  T. A. Wesolowski,  
 A. White,  J. Witte,  A. Yamada,  Jun Yang,  K. Yao,  S. Yeganeh,  
 S. R. Yost,  Zhi-Qiang You,  A. Zech,  Igor Ying Zhang,  Xing Zhang,  
 Yan Zhao,  Ying Zhu,  B. R. Brooks,  G. K. L. Chan,  C. J. Cramer,  
 M. S. Gordon,  W. J. Hehre,  A. Klamt,  M. W. Schmidt,  C. D. Sherrill,  
 D. G. Truhlar,  A. Aspuru-Guzik,  R. Baer,  A. T. Bell,  N. A. Besley,  
 Jeng-Da Chai,  R. A. DiStasio Jr.,  A. Dreuw,  B. D. Dunietz,  
 T. R. Furlani,  Chao-Ping Hsu,  Yousung Jung,  Jing Kong,  D. S. Lambrecht,  
 WanZhen Liang,  C. Ochsenfeld,  V. A. Rassolov,  L. V. Slipchenko,  
 J. E. Subotnik,  T. Van Voorhis,  J. M. Herbert,  A. I. Krylov,  
 P. M. W. Gill,  M. Head-Gordon

 Contributors to earlier versions of Q-Chem not listed above: 
 R. D. Adamson,  B. Austin,  J. Baker,  G. J. O. Beran,  K. Brandhorst,  
 S. T. Brown,  E. F. C. Byrd,  A. K. Chakraborty,  C.-L. Cheng,  
 Siu Hung Chien,  D. M. Chipman,  D. L. Crittenden,  H. Dachsel,  
 R. J. Doerksen,  A. D. Dutoi,  L. Fusti-Molnar,  W. A. Goddard III,  
 A. Golubeva-Zadorozhnaya,  S. R. Gwaltney,  G. Hawkins,  A. Heyden,  
 S. Hirata,  G. Kedziora,  F. J. Keil,  C. Kelley,  Jihan Kim,  R. A. King,  
 R. Z. Khaliullin,  P. P. Korambath,  W. Kurlancheek,  A. M. Lee,  M. S. Lee,  
 S. V. Levchenko,  Ching Yeh Lin,  D. Liotard,  R. C. Lochan,  I. Lotan,  
 P. E. Maslen,  N. Nair,  D. P. O'Neill,  D. Neuhauser,  E. Neuscamman,  
 C. M. Oana,  R. Olson,  B. Peters,  R. Peverati,  P. A. Pieniazek,  
 Y. M. Rhee,  J. Ritchie,  M. A. Rohrdanz,  E. Rosta,  N. J. Russ,  
 H. F. Schaefer III,  N. E. Schultz,  N. Shenvi,  A. C. Simmonett,  A. Sodt,  
 D. Stuck,  K. S. Thanthiriwatte,  V. Vanovschi,  Tao Wang,  A. Warshel,  
 C. F. Williams,  Q. Wu,  X. Xu,  W. Zhang

 Please cite Q-Chem as follows:
 Y. Shao et al., Mol. Phys. 113, 184-215 (2015)
 DOI: 10.1080/00268976.2014.952696

 Q-Chem 5.1.0 for Intel X86 EM64T Linux

 Parts of Q-Chem use Armadillo 8.300.2 (Tropical Shenanigans).
 http://arma.sourceforge.net/

 Q-Chem begins on Mon Mar 26 15:58:18 2018  

Host: n0105.savio1
0

     Scratch files written to /global/scratch/smblau/qctest/qchem64223//
 Parallel job on  1  processors

Checking the input file for inconsistencies... 	...done.

--------------------------------------------------------------
User input:
--------------------------------------------------------------
$comment
 4_phenyl_7_trifluoromethyl_1_3_dihydro_2_1_3_benzothiadiazole singlet
neutral B3lYP/6-31+G* geometry optimization
$end


$molecule
 0  1
 C          -5.28239800       -0.40413700        0.02520900
 C          -4.59429700       -1.30752400       -0.78969900
 C          -4.56124100        0.44649800        0.86754700
 C          -3.19965800       -1.35498600       -0.76789500
 C          -3.16561500        0.39930400        0.89078500
 C          -0.31705000       -1.83196900        0.09419600
 C           1.06379900       -1.92703000        0.08538200
 C          -2.45934200       -0.50148400        0.07102400
 C          -0.97947400       -0.57824100        0.10360900
 C           1.86207600       -0.76386400        0.06226000
 C          -0.18067400        0.56927800        0.10481300
 C           1.23090700        0.48341100        0.06734000
 C           3.35207700       -0.84612600        0.04326800
 F           3.89906600       -0.11325700       -0.98124100
 F           3.81148500       -2.11003700       -0.09026600
 F           3.91939400       -0.33859300        1.17778300
 N          -0.62246900        1.89304400        0.07031500
 N           1.82023900        1.72673300       -0.02037400
 S           0.67721300        3.03856900       -0.20051700
 H          -6.36499000       -0.36510000        0.00564100
 H          -5.14213600       -1.97139300       -1.44835800
 H          -5.08371200        1.13867200        1.51766800
 H          -2.67534300       -2.04416700       -1.41908400
 H          -2.62015800        1.03179400        1.58123800
 H          -0.91918900       -2.73031000        0.13353800
 H           1.54825200       -2.89292600        0.10502700
 H          -1.51460200        2.11843200       -0.34832800
 H           2.78387300        1.88145700       -0.27215000
$end


$rem
         jobtype = opt
        exchange = b3lyp
           basis = 6-31+g*
  max_scf_cycles = 200
      mem_static = 3000
       mem_total = 28000
   scf_algorithm = diis
       scf_guess = sad
$end

--------------------------------------------------------------
 ----------------------------------------------------------------
             Standard Nuclear Orientation (Angstroms)
    I     Atom           X                Y                Z
 ----------------------------------------------------------------
    1      C       5.2870008258     0.4003735453     0.0019619536
    2      C       4.5985955941     1.3357108964    -0.7757966098
    3      C       4.5663818211    -0.4798801815     0.8137761287
    4      C       3.2041587723     1.3856865600    -0.7476118763
    5      C       3.1709619153    -0.4302243779     0.8433869002
    6      C       0.3255473879     1.8365717915     0.1414559288
    7      C      -1.0550764547     1.9352410582     0.1408062135
    8      C       2.4643626919     0.5027440898     0.0607400806
    9      C       0.9848066107     0.5817905398     0.1010907704
   10      C      -1.8563797713     0.7757272069     0.0761798848
   11      C       0.1830979584    -0.5630099307     0.0613684281
   12      C      -1.2283727393    -0.4723655548     0.0318327923
   13      C      -3.3462198359     0.8622573663     0.0652333678
   14      F      -3.8983475585     0.1701393133    -0.9845476603
   15      F      -3.8028361003     2.1314351953    -0.0187147166
   16      F      -3.9111921935     0.3133921276     1.1815289356
   17      N       0.6214113176    -1.8855773126    -0.0248074161
   18      N      -1.8211434384    -1.7100308559    -0.1010696095
   19      S      -0.6820407280    -3.0168447144    -0.3346422584
   20      H       6.3694218442     0.3594872246    -0.0226404865
   21      H       5.1460107970     2.0227798147    -1.4105833413
   22      H       5.0891683421    -1.1975002235     1.4354302411
   23      H       2.6795172347     2.1003607798    -1.3704407454
   24      H       2.6261102746    -1.0871498647     1.5111277770
   25      H       0.9300925658     2.7313113088     0.2128845277
   26      H      -1.5370053824     2.9008646652     0.1986964229
   27      H       1.5116236277    -2.0970674759    -0.4546410530
   28      H      -2.7859687981    -1.8527514023    -0.3553608348
 ----------------------------------------------------------------
 Molecular Point Group                 C1    NOp =  1
 Largest Abelian Subgroup              C1    NOp =  1
 Nuclear Repulsion Energy =  1526.5913848268 hartrees
 There are       72 alpha and       72 beta electrons
 Requested basis set is 6-31+G(d)
 There are 114 shells and 383 basis functions

 Total QAlloc Memory Limit  28000 MB
 Mega-Array Size      2933 MB
 MEM_STATIC part      3000 MB
 A cutoff of  1.0D-11 yielded   4984 shell pairs
 There are     59651 function pairs
 
 -------------------------------------------------------
 OpenMP Integral Computing Module                       
 Release: version 1.0, May 2013, Q-Chem Inc. Pittsburgh 
 -------------------------------------------------------
 Integral Job Info:
 Integral job number is                      11
 Integral operator is                         1
 short-range coefficients                     0
 long-range coefficients              100000000
 Omega coefficients                           0
 if combine SR and LR in K                    0
 Integral screening is                        0
 Integral computing path is                   2
 max size of driver memory is            800000
 size of driver memory is                593474
 size of scratch memory is             15267112
 max col of scratch BK array               1296
 max len of scratch array in speh3          155
 max len of scratch index in speh4           18
 max int batch size is                      520
 min int batch size is                       52
 fixed nKL is                                52
 max L of basis functions is                  2
 order of int derivative is                   0
 number of shells is                        114
 number of basis is                         383
 number of cartesian basis is               383
 number of contracted shell pairs          4984
 number of primitive shell pairs          15920
 maxK2 (contraction) of shell pair           36
 max number of K2 of shell pair               1
 max number of CS2 of shell pair            774
 max number of PS2 of shell pair           4362
 mem total for path MDJ                  656572
 -------------------------------------------------------
 Smallest overlap matrix eigenvalue = 3.39E-07

 Q-Chem warning in module stvman/mkSTV.C, line 295:

 Overlap eigenvalue is smaller than square root of threshold

 Linear dependence detected in AO basis
 Number of orthogonalized atomic orbitals = 380
 Maximum deviation from orthogonality = 1.357E-10

 Scale SEOQF with 1.000000e-02/1.000000e-01/1.000000e-01

 Standard Electronic Orientation quadrupole field applied
 Nucleus-field energy     =     0.0000000245 hartrees
 Guess from superposition of atomic densities
 Warning:  Energy on first SCF cycle will be non-variational
 SAD guess density has 144.000000 electrons

 -----------------------------------------------------------------------
  General SCF calculation program by
  Eric Jon Sundstrom, Paul Horn, Yuezhi Mao, Dmitri Zuev, Alec White,
  David Stuck, Shaama M.S., Shane Yost, Joonho Lee, David Small,
  Daniel Levine, Susi Lehtola, Hugh Burton, Evgeny Epifanovsky
 -----------------------------------------------------------------------
 Exchange:     0.2000 Hartree-Fock + 0.0800 Slater + 0.7200 B88
 Correlation:  0.1900 VWN1RPA + 0.8100 LYP
 Using SG-1 standard quadrature grid
 using 12 threads for integral computing
 -------------------------------------------------------
 OpenMP Integral computing Module                
 Release: version 2.0, May 2017, Q-Chem Inc. Pleasanton 
 -------------------------------------------------------
 -------------------------------------------------------
 OpenMP BLAS3 based DFT computing Module                
 Release: version 1.0, May 2013, Q-Chem Inc. Pittsburgh 
 -------------------------------------------------------
 A restricted SCF calculation will be
 performed using DIIS
 SCF converges when DIIS error is below 1.0e-08
 ---------------------------------------
  Cycle       Energy         DIIS error
 ---------------------------------------
    1   -1312.3747031478      3.63e-02  
    2   -1307.7403068590      3.94e-03  
    3   -1307.5210236558      5.40e-03  
    4   -1308.0027289676      8.25e-04  
    5   -1308.0108366388      5.19e-04  
    6   -1308.0157863906      1.29e-04  
    7   -1308.0160424406      4.78e-05  
    8   -1308.0160819249      1.05e-05  
    9   -1308.0160840343      3.05e-06  
   10   -1308.0160842075      1.10e-06  
   11   -1308.0160842304      4.36e-07  
   12   -1308.0160842337      1.92e-07  
   13   -1308.0160842344      7.38e-08  
   14   -1308.0160842345      2.45e-08  
   15   -1308.0160842345      9.22e-09  Convergence criterion met
 ---------------------------------------
 SCF time:   CPU 434.13s  wall 36.00s 
 Total energy in the final basis set =    -1308.0160842345
 
 --------------------------------------------------------------
 
                    Orbital Energies (a.u.)
 --------------------------------------------------------------
 
 Alpha MOs
 -- Occupied --
-88.966 -24.751 -24.748 -24.743 -14.396 -14.393 -10.451 -10.265
-10.256 -10.222 -10.220 -10.218 -10.208 -10.208 -10.207 -10.207
-10.207 -10.207 -10.200  -8.018  -5.986  -5.981  -5.970  -1.317
 -1.234  -1.226  -1.011  -0.921  -0.882  -0.864  -0.804  -0.775
 -0.762  -0.759  -0.707  -0.694  -0.659  -0.639  -0.619  -0.613
 -0.594  -0.593  -0.593  -0.547  -0.528  -0.505  -0.493  -0.492
 -0.477  -0.475  -0.471  -0.462  -0.456  -0.449  -0.437  -0.434
 -0.431  -0.424  -0.417  -0.409  -0.394  -0.384  -0.381  -0.363
 -0.359  -0.353  -0.346  -0.284  -0.277  -0.269  -0.240  -0.177
 -- Virtual --
 -0.065  -0.052  -0.027  -0.009  -0.007  -0.004   0.004   0.007
  0.014   0.024   0.025   0.034   0.042   0.045   0.047   0.055
  0.058   0.066   0.068   0.074   0.083   0.083   0.089   0.092
  0.099   0.100   0.104   0.109   0.115   0.120   0.123   0.125
  0.128   0.131   0.132   0.143   0.147   0.149   0.153   0.163
  0.164   0.171   0.176   0.178   0.185   0.186   0.188   0.193
  0.195   0.200   0.201   0.208   0.209   0.214   0.216   0.221
  0.225   0.228   0.234   0.237   0.239   0.242   0.245   0.250
  0.254   0.254   0.260   0.263   0.271   0.274   0.276   0.276
  0.281   0.287   0.292   0.298   0.300   0.307   0.309   0.317
  0.320   0.325   0.329   0.335   0.340   0.345   0.351   0.356
  0.362   0.365   0.369   0.375   0.387   0.395   0.401   0.405
  0.407   0.418   0.433   0.442   0.450   0.467   0.479   0.490
  0.498   0.528   0.539   0.559   0.569   0.596   0.622   0.630
  0.644   0.660   0.676   0.689   0.691   0.699   0.704   0.712
  0.714   0.720   0.726   0.727   0.736   0.740   0.746   0.753
  0.761   0.769   0.780   0.788   0.802   0.806   0.818   0.825
  0.840   0.849   0.854   0.874   0.883   0.899   0.905   0.921
  0.933   0.940   0.943   0.969   0.979   0.991   0.996   1.011
  1.016   1.021   1.035   1.056   1.061   1.075   1.084   1.096
  1.103   1.107   1.131   1.141   1.151   1.160   1.164   1.173
  1.179   1.197   1.204   1.232   1.245   1.256   1.263   1.275
  1.283   1.310   1.332   1.340   1.362   1.388   1.410   1.428
  1.435   1.455   1.457   1.471   1.481   1.483   1.497   1.513
  1.521   1.550   1.576   1.608   1.619   1.637   1.643   1.659
  1.670   1.671   1.686   1.695   1.705   1.715   1.729   1.758
  1.777   1.790   1.791   1.802   1.821   1.823   1.838   1.855
  1.860   1.864   1.876   1.885   1.889   1.914   1.933   1.952
  1.958   1.963   1.980   2.001   2.008   2.040   2.046   2.052
  2.064   2.072   2.081   2.097   2.120   2.134   2.136   2.146
  2.158   2.176   2.195   2.204   2.210   2.223   2.248   2.260
  2.278   2.292   2.299   2.304   2.328   2.349   2.364   2.415
  2.423   2.442   2.461   2.468   2.519   2.554   2.595   2.613
  2.618   2.633   2.655   2.676   2.708   2.720   2.726   2.744
  2.746   2.754   2.782   2.806   2.840   2.887   2.896   2.951
  2.986   3.067   3.105   3.147   3.239   3.247   3.312   3.363
  3.462   3.943   4.097   4.212   4.240   4.260   4.287   4.325
  4.339   4.380   4.394   4.446   4.464   4.509   4.627   4.698
  4.846   5.628   6.081   6.935
 --------------------------------------------------------------
 
          Ground-State Mulliken Net Atomic Charges

     Atom                 Charge (a.u.)
  ----------------------------------------
      1 C                    -0.280960
      2 C                    -0.228433
      3 C                    -0.060429
      4 C                    -0.546295
      5 C                    -0.257096
      6 C                    -0.760831
      7 C                    -0.903278
      8 C                     0.406187
      9 C                    -0.021076
     10 C                    -0.905460
     11 C                     0.608129
     12 C                     0.999547
     13 C                     1.482494
     14 F                    -0.311910
     15 F                    -0.336106
     16 F                    -0.274909
     17 N                    -0.718751
     18 N                    -0.754489
     19 S                     0.646655
     20 H                     0.181911
     21 H                     0.182660
     22 H                     0.182823
     23 H                     0.187397
     24 H                     0.211015
     25 H                     0.186890
     26 H                     0.205431
     27 H                     0.432585
     28 H                     0.446300
  ----------------------------------------
  Sum of atomic charges =     0.000000

 -----------------------------------------------------------------
                    Cartesian Multipole Moments
 -----------------------------------------------------------------
    Charge (ESU x 10^10)
                 0.0000
    Dipole Moment (Debye)
         X       3.2806      Y      -1.2608      Z      -1.0426
       Tot       3.6659
    Quadrupole Moments (Debye-Ang)
        XX    -112.2855     XY       3.7057     YY    -108.8256
        XZ       0.4139     YZ      -0.5882     ZZ    -120.1367
    Octopole Moments (Debye-Ang^2)
       XXX       9.8015    XXY     -24.8494    XYY     -25.1905
       YYY       4.2264    XXZ      -8.0755    XYZ     -16.8519
       YYZ     -10.1351    XZZ     -22.8598    YZZ       3.7411
       ZZZ       1.1351
    Hexadecapole Moments (Debye-Ang^3)
      XXXX   -5539.7422   XXXY      40.2475   XXYY   -1216.1168
      XYYY     -51.2497   YYYY   -1709.4436   XXXZ       3.2246
      XXYZ     -55.0762   XYYZ     -14.6829   YYYZ      18.5054
      XXZZ   -1053.1892   XYZZ     -26.0790   YYZZ    -366.5975
      XZZZ      -3.0310   YZZZ     -13.2678   ZZZZ    -343.4252
 -----------------------------------------------------------------
 Calculating analytic gradient of the SCF energy
 Gradient of SCF Energy
            1           2           3           4           5           6
    1   0.0022476   0.0010939   0.0009637  -0.0008133  -0.0012020   0.0020321
    2   0.0001069   0.0013871  -0.0016596   0.0019207  -0.0020447   0.0015468
    3  -0.0000305  -0.0010703   0.0011305  -0.0008705   0.0004992  -0.0012103
            7           8           9          10          11          12
    1  -0.0016838  -0.0017462   0.0013322  -0.0002867   0.0020598  -0.0014272
    2   0.0020881  -0.0001140   0.0005694  -0.0002235  -0.0052242  -0.0018082
    3  -0.0007154  -0.0005818  -0.0002106  -0.0007490   0.0053811   0.0051296
           13          14          15          16          17          18
    1   0.0006580   0.0002331  -0.0002878   0.0001313  -0.0025454   0.0007090
    2  -0.0004565  -0.0005536   0.0015370  -0.0003586   0.0046043   0.0021836
    3  -0.0008237   0.0003959   0.0001725   0.0000071  -0.0126021  -0.0088201
           19          20          21          22          23          24
    1   0.0006896  -0.0023452  -0.0011777  -0.0011333   0.0009466   0.0010677
    2   0.0031516   0.0000195  -0.0014570   0.0016046  -0.0015818   0.0018853
    3   0.0033353   0.0000118   0.0014468  -0.0013679   0.0013779  -0.0009021
           25          26          27          28
    1  -0.0007427   0.0004085  -0.0001375   0.0009557
    2  -0.0023448  -0.0023711  -0.0013491  -0.0010579
    3   0.0001432   0.0001688   0.0064672   0.0042875
 Max gradient component =       1.260E-02
 RMS gradient           =       2.532E-03
 Gradient time:  CPU 160.27 s  wall 16.70 s
 Geometry Optimization Parameters
   NAtoms,    NIC,     NZ,  NCons,   NDum,   NFix, NCnnct, MaxDiis
       28     205       0       0       0       0       0       0


** GEOMETRY OPTIMIZATION IN DELOCALIZED INTERNAL COORDINATES **
   Searching for a Minimum

   Optimization Cycle:   1

                       Coordinates (Angstroms)
     ATOM                X               Y               Z
      1  C         5.2870008258    0.4003735453    0.0019619536
      2  C         4.5985955941    1.3357108964   -0.7757966098
      3  C         4.5663818211   -0.4798801815    0.8137761287
      4  C         3.2041587723    1.3856865600   -0.7476118763
      5  C         3.1709619153   -0.4302243779    0.8433869002
      6  C         0.3255473879    1.8365717915    0.1414559288
      7  C        -1.0550764547    1.9352410582    0.1408062135
      8  C         2.4643626919    0.5027440898    0.0607400806
      9  C         0.9848066107    0.5817905398    0.1010907704
     10  C        -1.8563797713    0.7757272069    0.0761798848
     11  C         0.1830979584   -0.5630099307    0.0613684281
     12  C        -1.2283727393   -0.4723655548    0.0318327923
     13  C        -3.3462198359    0.8622573663    0.0652333678
     14  F        -3.8983475585    0.1701393133   -0.9845476603
     15  F        -3.8028361003    2.1314351953   -0.0187147166
     16  F        -3.9111921935    0.3133921276    1.1815289356
     17  N         0.6214113176   -1.8855773126   -0.0248074161
     18  N        -1.8211434384   -1.7100308559   -0.1010696095
     19  S        -0.6820407280   -3.0168447144   -0.3346422584
     20  H         6.3694218442    0.3594872246   -0.0226404865
     21  H         5.1460107970    2.0227798147   -1.4105833413
     22  H         5.0891683421   -1.1975002235    1.4354302411
     23  H         2.6795172347    2.1003607798   -1.3704407454
     24  H         2.6261102746   -1.0871498647    1.5111277770
     25  H         0.9300925658    2.7313113088    0.2128845277
     26  H        -1.5370053824    2.9008646652    0.1986964229
     27  H         1.5116236277   -2.0970674759   -0.4546410530
     28  H        -2.7859687981   -1.8527514023   -0.3553608348
   Point Group: c1    Number of degrees of freedom:    78


   Energy is  -1308.016084234


 Attempting to Generate Delocalized Internal Coordinates

 78 Hessian modes will be used to form the next step
  Hessian Eigenvalues:
     0.009684    0.010185    0.011531    0.015756    0.016984    0.018207
     0.018361    0.019259    0.019734    0.020908    0.021391    0.021586
     0.022101    0.022150    0.022253    0.022574    0.022606    0.022718
     0.022777    0.022799    0.022862    0.023080    0.023940    0.105328
     0.108663    0.135612    0.151704    0.159817    0.159872    0.159967
     0.159986    0.159994    0.159996    0.160000    0.220000    0.220009
     0.224638    0.233283    0.234679    0.241590    0.245119    0.249167
     0.249864    0.249929    0.249991    0.250000    0.250000    0.250000
     0.294813    0.299780    0.331889    0.343172    0.355327    0.355358
     0.355572    0.355774    0.355780    0.357310    0.359030    0.390671
     0.407298    0.412361    0.414842    0.430268    0.439466    0.448230
     0.450346    0.453339    0.453777    0.458185    0.460609    0.462800
     0.463210    0.475362    0.480352    0.503504    0.517095    0.547186

 Minimum Search - Taking Simple RFO Step
 Searching for Lamda that Minimizes Along All modes
 Value Taken    Lamda =  -0.00314588
 Calculated Step too Large.  Step scaled by  0.865468
 Step Taken.  Stepsize is  0.300000

                             Maximum     Tolerance    Cnvgd?
         Gradient           0.005522      0.000300      NO
         Displacement       0.193165      0.001200      NO
         Energy change     *********      0.000001      NO


 New Cartesian Coordinates Obtained by Inverse Iteration

 Displacement from previous Coordinates is:  0.359058
 ----------------------------------------------------------------
             Standard Nuclear Orientation (Angstroms)
    I     Atom           X                Y                Z
 ----------------------------------------------------------------
    1      C       5.2904622847     0.4034959385     0.0144361175
    2      C       4.6019885063     1.3148157453    -0.7915881800
    3      C       4.5695019984    -0.4566437287     0.8473502237
    4      C       3.2072497463     1.3629710091    -0.7677122581
    5      C       3.1736321703    -0.4109108846     0.8702288376
    6      C       0.3242345418     1.8328570592     0.1454574140
    7      C      -1.0551546465     1.9310363797     0.1500106031
    8      C       2.4668053404     0.5008194972     0.0625393648
    9      C       0.9842021291     0.5780595185     0.0952791246
   10      C      -1.8569250218     0.7716620349     0.0815080434
   11      C       0.1822849391    -0.5671994338     0.0538727118
   12      C      -1.2288640972    -0.4768243429     0.0287166127
   13      C      -3.3477762285     0.8584877492     0.0829760820
   14      F      -3.9093518398     0.1792374752    -0.9703337023
   15      F      -3.8034701580     2.1273932809     0.0112863191
   16      F      -3.9069226347     0.3031001746     1.1988739923
   17      N       0.6267010082    -1.8939092971    -0.0192017142
   18      N      -1.8253765195    -1.7165578073    -0.0831935240
   19      S      -0.6825945498    -3.0102398108    -0.3811613884
   20      H       6.3760548916     0.3649563967    -0.0056916221
   21      H       5.1510101117     1.9868174429    -1.4459775159
   22      H       5.0933953567    -1.1600882185     1.4892873381
   23      H       2.6823684546     2.0616061714    -1.4132183216
   24      H       2.6269874144    -1.0613269539     1.5474512159
   25      H       0.9270333502     2.7323897599     0.2166244761
   26      H      -1.5346872877     2.9008902278     0.2111609286
   27      H       1.4752476096    -2.0657746340    -0.5460812587
   28      H      -2.7743502891    -1.8376491600    -0.4062561746
 ----------------------------------------------------------------
 Molecular Point Group                 C1    NOp =  1
 Largest Abelian Subgroup              C1    NOp =  1
 Nuclear Repulsion Energy =  1525.7027961684 hartrees
 There are       72 alpha and       72 beta electrons
 Applying Cartesian multipole field
    Component          Value
    ---------          -----
     (2,0,0)        1.00000E-12
     (0,2,0)        2.00000E-11
     (0,0,2)       -3.00000E-11
 Nucleus-field energy     =     0.0000000241 hartrees
 Requested basis set is 6-31+G(d)
 There are 114 shells and 383 basis functions
 A cutoff of  1.0D-11 yielded   4985 shell pairs
 There are     59667 function pairs
 Smallest overlap matrix eigenvalue = 3.47E-07

 Q-Chem warning in module stvman/mkSTV.C, line 295:

 Overlap eigenvalue is smaller than square root of threshold

 Linear dependence detected in AO basis
 Number of orthogonalized atomic orbitals = 380
 Maximum deviation from orthogonality = 8.199E-10
 Guess MOs from SCF MO coefficient file
 Reading MOs from coefficient file
 Reading MOs from coefficient file

 -----------------------------------------------------------------------
  General SCF calculation program by
  Eric Jon Sundstrom, Paul Horn, Yuezhi Mao, Dmitri Zuev, Alec White,
  David Stuck, Shaama M.S., Shane Yost, Joonho Lee, David Small,
  Daniel Levine, Susi Lehtola, Hugh Burton, Evgeny Epifanovsky
 -----------------------------------------------------------------------
 Exchange:     0.2000 Hartree-Fock + 0.0800 Slater + 0.7200 B88
 Correlation:  0.1900 VWN1RPA + 0.8100 LYP
 Using SG-1 standard quadrature grid
 using 12 threads for integral computing
 -------------------------------------------------------
 OpenMP Integral computing Module                
 Release: version 2.0, May 2017, Q-Chem Inc. Pleasanton 
 -------------------------------------------------------
 -------------------------------------------------------
 OpenMP BLAS3 based DFT computing Module                
 Release: version 1.0, May 2013, Q-Chem Inc. Pittsburgh 
 -------------------------------------------------------
 A restricted SCF calculation will be
 performed using DIIS
 SCF converges when DIIS error is below 1.0e-08
 ---------------------------------------
  Cycle       Energy         DIIS error
 ---------------------------------------
    1   -1308.0008351825      8.66e-04  
    2   -1308.0183289969      1.18e-04  
    3   -1308.0179144972      1.89e-04  
    4   -1308.0186128789      4.12e-05  
    5   -1308.0186427328      1.37e-05  
    6   -1308.0186453949      6.04e-06  
    7   -1308.0186459878      1.36e-06  
    8   -1308.0186460174      6.11e-07  
    9   -1308.0186460238      1.54e-07  
   10   -1308.0186460241      8.67e-08  
   11   -1308.0186460242      3.07e-08  
   12   -1308.0186460242      8.48e-09  Convergence criterion met
 ---------------------------------------
 SCF time:   CPU 365.65s  wall 30.00s 
 Total energy in the final basis set =    -1308.0186460242
 
 --------------------------------------------------------------
 
                    Orbital Energies (a.u.)
 --------------------------------------------------------------
 
 Alpha MOs
 -- Occupied --
-88.963 -24.752 -24.748 -24.743 -14.396 -14.393 -10.452 -10.266
-10.256 -10.224 -10.221 -10.220 -10.209 -10.209 -10.209 -10.208
-10.208 -10.207 -10.202  -8.016  -5.983  -5.979  -5.968  -1.318
 -1.235  -1.226  -1.010  -0.921  -0.883  -0.865  -0.805  -0.775
 -0.762  -0.760  -0.708  -0.693  -0.659  -0.638  -0.618  -0.613
 -0.595  -0.594  -0.593  -0.547  -0.526  -0.505  -0.493  -0.490
 -0.477  -0.475  -0.471  -0.462  -0.456  -0.448  -0.436  -0.434
 -0.431  -0.425  -0.418  -0.408  -0.395  -0.384  -0.381  -0.363
 -0.359  -0.352  -0.346  -0.284  -0.277  -0.269  -0.241  -0.181
 -- Virtual --
 -0.065  -0.053  -0.026  -0.010  -0.008  -0.006   0.004   0.006
  0.013   0.024   0.025   0.034   0.041   0.044   0.048   0.055
  0.058   0.066   0.068   0.074   0.082   0.083   0.090   0.091
  0.099   0.099   0.104   0.109   0.114   0.119   0.123   0.125
  0.127   0.131   0.132   0.143   0.148   0.149   0.152   0.161
  0.164   0.171   0.174   0.177   0.183   0.186   0.188   0.192
  0.195   0.200   0.201   0.208   0.209   0.214   0.215   0.222
  0.225   0.228   0.232   0.236   0.237   0.241   0.244   0.249
  0.254   0.254   0.259   0.262   0.271   0.273   0.275   0.277
  0.280   0.287   0.292   0.297   0.299   0.306   0.309   0.316
  0.322   0.323   0.326   0.334   0.341   0.342   0.351   0.356
  0.361   0.363   0.369   0.374   0.384   0.396   0.400   0.405
  0.405   0.416   0.429   0.442   0.451   0.465   0.477   0.487
  0.497   0.528   0.539   0.558   0.568   0.596   0.620   0.629
  0.642   0.659   0.675   0.688   0.690   0.698   0.701   0.712
  0.714   0.720   0.726   0.727   0.736   0.740   0.746   0.753
  0.760   0.770   0.779   0.786   0.801   0.808   0.819   0.825
  0.840   0.847   0.853   0.871   0.882   0.899   0.904   0.919
  0.930   0.938   0.940   0.970   0.979   0.990   0.995   1.011
  1.015   1.019   1.033   1.053   1.062   1.071   1.082   1.097
  1.099   1.106   1.124   1.143   1.151   1.157   1.163   1.173
  1.177   1.196   1.204   1.229   1.242   1.255   1.258   1.273
  1.281   1.309   1.332   1.341   1.363   1.383   1.408   1.428
  1.433   1.451   1.455   1.468   1.480   1.481   1.488   1.500
  1.513   1.553   1.576   1.606   1.618   1.631   1.644   1.658
  1.670   1.671   1.686   1.693   1.702   1.715   1.725   1.759
  1.775   1.787   1.790   1.801   1.822   1.825   1.841   1.856
  1.862   1.867   1.877   1.887   1.889   1.913   1.944   1.949
  1.954   1.962   1.977   1.997   2.008   2.043   2.049   2.059
  2.064   2.073   2.081   2.097   2.117   2.132   2.137   2.146
  2.159   2.174   2.192   2.202   2.214   2.221   2.251   2.259
  2.272   2.289   2.298   2.309   2.326   2.351   2.364   2.406
  2.427   2.438   2.460   2.467   2.518   2.550   2.594   2.610
  2.616   2.630   2.656   2.672   2.705   2.720   2.725   2.742
  2.744   2.756   2.781   2.803   2.835   2.883   2.894   2.947
  2.984   3.067   3.101   3.146   3.236   3.243   3.305   3.361
  3.458   3.942   4.098   4.217   4.240   4.260   4.287   4.325
  4.336   4.380   4.393   4.445   4.461   4.508   4.625   4.697
  4.842   5.630   6.079   6.939
 --------------------------------------------------------------
 
          Ground-State Mulliken Net Atomic Charges

     Atom                 Charge (a.u.)
  ----------------------------------------
      1 C                    -0.268524
      2 C                    -0.213033
      3 C                    -0.058585
      4 C                    -0.525263
      5 C                    -0.182253
      6 C                    -0.778570
      7 C                    -0.882067
      8 C                     0.292743
      9 C                    -0.023330
     10 C                    -0.865886
     11 C                     0.568482
     12 C                     0.964639
     13 C                     1.463836
     14 F                    -0.314534
     15 F                    -0.335717
     16 F                    -0.273051
     17 N                    -0.684278
     18 N                    -0.735780
     19 S                     0.638684
     20 H                     0.182368
     21 H                     0.182931
     22 H                     0.183613
     23 H                     0.187707
     24 H                     0.210725
     25 H                     0.188618
     26 H                     0.206689
     27 H                     0.430257
     28 H                     0.439576
  ----------------------------------------
  Sum of atomic charges =     0.000000

 -----------------------------------------------------------------
                    Cartesian Multipole Moments
 -----------------------------------------------------------------
    Charge (ESU x 10^10)
                 0.0000
    Dipole Moment (Debye)
         X       3.2885      Y      -0.9775      Z      -1.2551
       Tot       3.6531
    Quadrupole Moments (Debye-Ang)
        XX    -112.4633     XY       3.6058     YY    -109.6283
        XZ       0.6072     YZ      -0.0481     ZZ    -119.6705
    Octopole Moments (Debye-Ang^2)
       XXX      11.0002    XXY     -23.2894    XYY     -26.2791
       YYY       7.2404    XXZ      -8.9556    XYZ     -17.1449
       YYZ     -11.4218    XZZ     -22.0736    YZZ       3.4648
       ZZZ       1.0744
    Hexadecapole Moments (Debye-Ang^3)
      XXXX   -5544.2027   XXXY      36.4668   XXYY   -1223.4834
      XYYY     -53.8879   YYYY   -1706.6027   XXXZ       8.9479
      XXYZ     -55.3667   XYYZ     -13.9626   YYYZ      16.2251
      XXZZ   -1051.4417   XYZZ     -26.5056   YYZZ    -364.3968
      XZZZ      -2.2044   YZZZ     -21.2088   ZZZZ    -353.7648
 -----------------------------------------------------------------
 Calculating analytic gradient of the SCF energy
 Gradient of SCF Energy
            1           2           3           4           5           6
    1   0.0004518  -0.0001133   0.0002631   0.0003332   0.0002206  -0.0010940
    2  -0.0000416   0.0001661  -0.0003161   0.0006653  -0.0007608   0.0008268
    3   0.0001337  -0.0001599   0.0002292   0.0000350  -0.0005802  -0.0007887
            7           8           9          10          11          12
    1   0.0011231  -0.0016055   0.0010329  -0.0002373   0.0041934  -0.0028765
    2   0.0012544   0.0002010   0.0005064  -0.0004612  -0.0065205  -0.0022534
    3  -0.0003741  -0.0000007  -0.0011848  -0.0010284   0.0045603   0.0046008
           13          14          15          16          17          18
    1   0.0013585  -0.0002601  -0.0002451  -0.0005822  -0.0067135   0.0039813
    2  -0.0003793   0.0002120   0.0001830  -0.0003070   0.0048053   0.0021795
    3  -0.0008960   0.0002515   0.0000258   0.0006606  -0.0098113  -0.0095168
           19          20          21          22          23          24
    1   0.0009768  -0.0002843  -0.0001173  -0.0000684   0.0001720   0.0002584
    2   0.0024229  -0.0000492  -0.0001492   0.0001607  -0.0003540   0.0005726
    3   0.0033710  -0.0000196   0.0002146  -0.0001838   0.0001826   0.0004647
           25          26          27          28
    1  -0.0001218  -0.0000453   0.0000192  -0.0000196
    2  -0.0003404  -0.0003483  -0.0008230  -0.0010524
    3   0.0002705   0.0001631   0.0048751   0.0045055
 Max gradient component =       9.811E-03
 RMS gradient           =       2.377E-03
 Gradient time:  CPU 159.54 s  wall 16.66 s
 Geometry Optimization Parameters
   NAtoms,    NIC,     NZ,  NCons,   NDum,   NFix, NCnnct, MaxDiis
       28     205       0       0       0       0       0       0

 Cartesian Hessian Update
 Hessian Updated using BFGS Update


** GEOMETRY OPTIMIZATION IN DELOCALIZED INTERNAL COORDINATES **
   Searching for a Minimum

   Optimization Cycle:   2

                       Coordinates (Angstroms)
     ATOM                X               Y               Z
      1  C         5.2904622847    0.4034959385    0.0144361175
      2  C         4.6019885063    1.3148157453   -0.7915881800
      3  C         4.5695019984   -0.4566437287    0.8473502237
      4  C         3.2072497463    1.3629710091   -0.7677122581
      5  C         3.1736321703   -0.4109108846    0.8702288376
      6  C         0.3242345418    1.8328570592    0.1454574140
      7  C        -1.0551546465    1.9310363797    0.1500106031
      8  C         2.4668053404    0.5008194972    0.0625393648
      9  C         0.9842021291    0.5780595185    0.0952791246
     10  C        -1.8569250218    0.7716620349    0.0815080434
     11  C         0.1822849391   -0.5671994338    0.0538727118
     12  C        -1.2288640972   -0.4768243429    0.0287166127
     13  C        -3.3477762285    0.8584877492    0.0829760820
     14  F        -3.9093518398    0.1792374752   -0.9703337023
     15  F        -3.8034701580    2.1273932809    0.0112863191
     16  F        -3.9069226347    0.3031001746    1.1988739923
     17  N         0.6267010082   -1.8939092971   -0.0192017142
     18  N        -1.8253765195   -1.7165578073   -0.0831935240
     19  S        -0.6825945498   -3.0102398108   -0.3811613884
     20  H         6.3760548916    0.3649563967   -0.0056916221
     21  H         5.1510101117    1.9868174429   -1.4459775159
     22  H         5.0933953567   -1.1600882185    1.4892873381
     23  H         2.6823684546    2.0616061714   -1.4132183216
     24  H         2.6269874144   -1.0613269539    1.5474512159
     25  H         0.9270333502    2.7323897599    0.2166244761
     26  H        -1.5346872877    2.9008902278    0.2111609286
     27  H         1.4752476096   -2.0657746340   -0.5460812587
     28  H        -2.7743502891   -1.8376491600   -0.4062561746
   Point Group: c1    Number of degrees of freedom:    78


   Energy is  -1308.018646024

 Hessian Updated using BFGS Update

 77 Hessian modes will be used to form the next step
  Hessian Eigenvalues:
     0.002069    0.009770    0.010199    0.012527    0.017039    0.017495
     0.018360    0.019097    0.019989    0.020955    0.021233    0.021552
     0.021907    0.022138    0.022258    0.022440    0.022590    0.022718
     0.022777    0.022796    0.022861    0.023084    0.023535    0.105369
     0.109941    0.135150    0.151031    0.159797    0.159928    0.159969
     0.159984    0.159996    0.159999    0.161259    0.220000    0.220021
     0.224662    0.234592    0.239809    0.244831    0.246831    0.249060
     0.249858    0.249926    0.249979    0.249997    0.263301    0.292123
     0.297699    0.331971    0.344018    0.355342    0.355471    0.355656
     0.355772    0.356990    0.358613    0.390502    0.395301    0.408812
     0.414604    0.415741    0.430948    0.441702    0.448309    0.450280
     0.453380    0.456027    0.460412    0.462234    0.462768    0.468344
     0.475431    0.503429    0.509552    0.529310    0.569205

 Minimum Search - Taking Simple RFO Step
 Searching for Lamda that Minimizes Along All modes
 Value Taken    Lamda =  -0.00721086
 Calculated Step too Large.  Step scaled by  0.346114
 Step Taken.  Stepsize is  0.300000

                             Maximum     Tolerance    Cnvgd?
         Gradient           0.005242      0.000300      NO
         Displacement       0.193084      0.001200      NO
         Energy change     -0.002562      0.000001      NO


 New Cartesian Coordinates Obtained by Inverse Iteration

 Displacement from previous Coordinates is:  0.232765
 ----------------------------------------------------------------
             Standard Nuclear Orientation (Angstroms)
    I     Atom           X                Y                Z
 ----------------------------------------------------------------
    1      C       5.2907377908     0.4056246525     0.0213362858
    2      C       4.6022208217     1.3066595906    -0.7961472661
    3      C       4.5699939307    -0.4482842084     0.8610721001
    4      C       3.2072449498     1.3522413120    -0.7747125778
    5      C       3.1740355156    -0.4058479289     0.8807749895
    6      C       0.3240416588     1.8289077548     0.1446671039
    7      C      -1.0551127011     1.9265377080     0.1501692355
    8      C       2.4678986594     0.4978490071     0.0641955758
    9      C       0.9833273389     0.5743887641     0.0951299116
   10      C      -1.8567459632     0.7676347864     0.0863658678
   11      C       0.1820081154    -0.5708102613     0.0579867470
   12      C      -1.2286280815    -0.4817147838     0.0369590338
   13      C      -3.3483359943     0.8555827570     0.0922002530
   14      F      -3.9119207384     0.1741000289    -0.9588625196
   15      F      -3.8025145109     2.1239410502     0.0163359900
   16      F      -3.9045956444     0.3051421871     1.2110747679
   17      N       0.6408301814    -1.9017529412     0.0055973718
   18      N      -1.8322961241    -1.7232509668    -0.0457019085
   19      S      -0.6797012160    -2.9962424732    -0.4126394377
   20      H       6.3781972612     0.3694728813     0.0039198147
   21      H       5.1518238586     1.9737944775    -1.4578895848
   22      H       5.0946954070    -1.1473990877     1.5099769162
   23      H       2.6814326858     2.0455684105    -1.4282610360
   24      H       2.6255649713    -1.0598333950     1.5555927295
   25      H       0.9260240622     2.7317199372     0.2080400723
   26      H      -1.5329246979     2.8994823763     0.2053852351
   27      H       1.4417899094    -2.0321421740    -0.6070735869
   28      H      -2.7554048656    -1.8178978716    -0.4488483387
 ----------------------------------------------------------------
 Molecular Point Group                 C1    NOp =  1
 Largest Abelian Subgroup              C1    NOp =  1
 Nuclear Repulsion Energy =  1525.7007460662 hartrees
 There are       72 alpha and       72 beta electrons
 Applying Cartesian multipole field
    Component          Value
    ---------          -----
     (2,0,0)        1.00000E-12
     (0,2,0)        2.00000E-11
     (0,0,2)       -3.00000E-11
 Nucleus-field energy     =     0.0000000238 hartrees
 Requested basis set is 6-31+G(d)
 There are 114 shells and 383 basis functions
 A cutoff of  1.0D-11 yielded   4988 shell pairs
 There are     59681 function pairs
 Smallest overlap matrix eigenvalue = 3.48E-07

 Q-Chem warning in module stvman/mkSTV.C, line 295:

 Overlap eigenvalue is smaller than square root of threshold

 Linear dependence detected in AO basis
 Number of orthogonalized atomic orbitals = 380
 Maximum deviation from orthogonality = 2.773E-10
 Guess MOs from SCF MO coefficient file
 Reading MOs from coefficient file
 Reading MOs from coefficient file

 -----------------------------------------------------------------------
  General SCF calculation program by
  Eric Jon Sundstrom, Paul Horn, Yuezhi Mao, Dmitri Zuev, Alec White,
  David Stuck, Shaama M.S., Shane Yost, Joonho Lee, David Small,
  Daniel Levine, Susi Lehtola, Hugh Burton, Evgeny Epifanovsky
 -----------------------------------------------------------------------
 Exchange:     0.2000 Hartree-Fock + 0.0800 Slater + 0.7200 B88
 Correlation:  0.1900 VWN1RPA + 0.8100 LYP
 Using SG-1 standard quadrature grid
 using 12 threads for integral computing
 -------------------------------------------------------
 OpenMP Integral computing Module                
 Release: version 2.0, May 2017, Q-Chem Inc. Pleasanton 
 -------------------------------------------------------
 -------------------------------------------------------
 OpenMP BLAS3 based DFT computing Module                
 Release: version 1.0, May 2013, Q-Chem Inc. Pittsburgh 
 -------------------------------------------------------
 A restricted SCF calculation will be
 performed using DIIS
 SCF converges when DIIS error is below 1.0e-08
 ---------------------------------------
  Cycle       Energy         DIIS error
 ---------------------------------------
    1   -1308.0011556257      7.59e-04  
    2   -1308.0203756841      1.45e-04  
    3   -1308.0193806993      2.67e-04  
    4   -1308.0208238700      4.03e-05  
    5   -1308.0208518818      1.16e-05  
    6   -1308.0208537952      5.06e-06  
    7   -1308.0208542313      1.59e-06  
    8   -1308.0208542765      6.43e-07  
    9   -1308.0208542839      1.86e-07  
   10   -1308.0208542845      7.68e-08  
   11   -1308.0208542846      2.47e-08  
   12   -1308.0208542846      9.57e-09  Convergence criterion met
 ---------------------------------------
 SCF time:   CPU 368.23s  wall 31.00s 
 Total energy in the final basis set =    -1308.0208542846
 
 --------------------------------------------------------------
 
                    Orbital Energies (a.u.)
 --------------------------------------------------------------
 
 Alpha MOs
 -- Occupied --
-88.959 -24.753 -24.750 -24.744 -14.395 -14.394 -10.453 -10.266
-10.256 -10.226 -10.224 -10.221 -10.212 -10.210 -10.209 -10.209
-10.209 -10.208 -10.205  -8.013  -5.980  -5.976  -5.964  -1.319
 -1.236  -1.228  -1.009  -0.921  -0.884  -0.866  -0.806  -0.774
 -0.762  -0.760  -0.709  -0.691  -0.659  -0.638  -0.618  -0.613
 -0.596  -0.594  -0.592  -0.546  -0.524  -0.505  -0.493  -0.488
 -0.478  -0.476  -0.472  -0.463  -0.456  -0.448  -0.437  -0.435
 -0.431  -0.426  -0.419  -0.406  -0.395  -0.385  -0.381  -0.364
 -0.360  -0.352  -0.346  -0.285  -0.276  -0.269  -0.243  -0.185
 -- Virtual --
 -0.064  -0.055  -0.027  -0.012  -0.009  -0.007   0.004   0.006
  0.013   0.023   0.025   0.034   0.041   0.044   0.048   0.055
  0.058   0.066   0.068   0.074   0.082   0.083   0.090   0.090
  0.098   0.099   0.104   0.108   0.114   0.119   0.122   0.125
  0.127   0.130   0.132   0.143   0.148   0.149   0.151   0.160
  0.164   0.171   0.174   0.176   0.182   0.185   0.188   0.190
  0.195   0.199   0.201   0.207   0.209   0.214   0.215   0.222
  0.225   0.228   0.232   0.236   0.236   0.240   0.243   0.250
  0.253   0.254   0.259   0.261   0.272   0.273   0.274   0.277
  0.280   0.286   0.290   0.295   0.298   0.306   0.309   0.315
  0.321   0.322   0.324   0.334   0.340   0.342   0.353   0.355
  0.362   0.362   0.369   0.374   0.382   0.396   0.399   0.404
  0.405   0.413   0.425   0.442   0.450   0.464   0.476   0.485
  0.496   0.527   0.539   0.558   0.567   0.595   0.618   0.628
  0.641   0.659   0.674   0.686   0.689   0.697   0.699   0.712
  0.714   0.718   0.725   0.727   0.736   0.740   0.745   0.753
  0.759   0.770   0.777   0.784   0.800   0.808   0.820   0.825
  0.839   0.846   0.852   0.870   0.881   0.897   0.903   0.917
  0.929   0.937   0.939   0.970   0.978   0.988   0.994   1.013
  1.016   1.021   1.032   1.051   1.063   1.070   1.081   1.094
  1.097   1.107   1.118   1.143   1.152   1.156   1.163   1.173
  1.176   1.197   1.203   1.228   1.237   1.252   1.256   1.270
  1.280   1.306   1.332   1.341   1.362   1.376   1.402   1.423
  1.432   1.441   1.453   1.468   1.479   1.480   1.483   1.492
  1.512   1.559   1.576   1.604   1.617   1.620   1.648   1.660
  1.670   1.671   1.687   1.691   1.701   1.717   1.723   1.756
  1.772   1.784   1.789   1.798   1.822   1.826   1.843   1.855
  1.862   1.869   1.878   1.887   1.891   1.912   1.943   1.949
  1.952   1.960   1.976   1.995   2.008   2.043   2.048   2.062
  2.067   2.074   2.081   2.099   2.114   2.130   2.139   2.146
  2.160   2.171   2.190   2.202   2.215   2.223   2.253   2.256
  2.266   2.287   2.297   2.312   2.329   2.352   2.364   2.394
  2.429   2.438   2.458   2.467   2.516   2.545   2.592   2.607
  2.615   2.626   2.657   2.669   2.703   2.719   2.724   2.742
  2.744   2.756   2.781   2.802   2.833   2.878   2.892   2.942
  2.981   3.066   3.096   3.145   3.232   3.240   3.298   3.359
  3.456   3.939   4.099   4.223   4.239   4.260   4.286   4.325
  4.332   4.378   4.393   4.444   4.458   4.507   4.622   4.696
  4.838   5.636   6.075   6.941
 --------------------------------------------------------------
 
          Ground-State Mulliken Net Atomic Charges

     Atom                 Charge (a.u.)
  ----------------------------------------
      1 C                    -0.263873
      2 C                    -0.211565
      3 C                    -0.057010
      4 C                    -0.516287
      5 C                    -0.141987
      6 C                    -0.784824
      7 C                    -0.878705
      8 C                     0.240530
      9 C                     0.005792
     10 C                    -0.825295
     11 C                     0.529594
     12 C                     0.909690
     13 C                     1.456339
     14 F                    -0.317257
     15 F                    -0.334949
     16 F                    -0.270317
     17 N                    -0.665823
     18 N                    -0.713194
     19 S                     0.624968
     20 H                     0.182761
     21 H                     0.183204
     22 H                     0.184269
     23 H                     0.187548
     24 H                     0.212419
     25 H                     0.189800
     26 H                     0.207831
     27 H                     0.432519
     28 H                     0.433822
  ----------------------------------------
  Sum of atomic charges =     0.000000

 -----------------------------------------------------------------
                    Cartesian Multipole Moments
 -----------------------------------------------------------------
    Charge (ESU x 10^10)
                 0.0000
    Dipole Moment (Debye)
         X       3.3064      Y      -0.5992      Z      -1.4414
       Tot       3.6564
    Quadrupole Moments (Debye-Ang)
        XX    -112.5389     XY       3.3840     YY    -110.4751
        XZ       0.8163     YZ       0.3912     ZZ    -119.3631
    Octopole Moments (Debye-Ang^2)
       XXX      12.1791    XXY     -21.1411    XYY     -26.5288
       YYY      11.2864    XXZ      -9.8779    XYZ     -17.5151
       YYZ     -12.7661    XZZ     -21.9394    YZZ       3.2168
       ZZZ       0.3850
    Hexadecapole Moments (Debye-Ang^3)
      XXXX   -5538.2172   XXXY      32.4747   XXYY   -1227.7813
      XYYY     -55.4769   YYYY   -1706.7054   XXXZ      13.2670
      XXYZ     -54.4031   XYYZ     -12.9884   YYYZ      16.9025
      XXZZ   -1049.8591   XYZZ     -26.5012   YYZZ    -361.6329
      XZZZ      -1.4040   YZZZ     -23.7127   ZZZZ    -358.8109
 -----------------------------------------------------------------
 Calculating analytic gradient of the SCF energy
 Gradient of SCF Energy
            1           2           3           4           5           6
    1  -0.0006270  -0.0006758  -0.0002711   0.0008353   0.0007703  -0.0028715
    2  -0.0000369  -0.0005126   0.0004425  -0.0003528   0.0002498   0.0003357
    3   0.0001306   0.0004664  -0.0003813   0.0005355  -0.0011065  -0.0003160
            7           8           9          10          11          12
    1   0.0028095  -0.0008964   0.0001823  -0.0006266   0.0057446  -0.0047357
    2   0.0006040   0.0001432  -0.0001990  -0.0007164  -0.0066804  -0.0032469
    3  -0.0001960   0.0002825  -0.0015582  -0.0011325   0.0027612   0.0038082
           13          14          15          16          17          18
    1   0.0016842  -0.0004160  -0.0001156  -0.0008660  -0.0071246   0.0057496
    2   0.0001458   0.0003045  -0.0004343  -0.0004642   0.0032710   0.0024131
    3  -0.0011180   0.0001845   0.0000014   0.0010478  -0.0046627  -0.0091656
           19          20          21          22          23          24
    1   0.0012542   0.0008947   0.0004798   0.0004820  -0.0003767  -0.0003950
    2   0.0036180  -0.0000622   0.0005976  -0.0006456   0.0004612  -0.0003563
    3   0.0029155  -0.0000368  -0.0005219   0.0005329  -0.0005276   0.0010176
           25          26          27          28
    1   0.0003546  -0.0002777  -0.0002763  -0.0006892
    2   0.0008300   0.0008025   0.0001787  -0.0006902
    3   0.0002240   0.0001432   0.0023748   0.0042970
 Max gradient component =       9.166E-03
 RMS gradient           =       2.255E-03
 Gradient time:  CPU 158.40 s  wall 16.41 s
 Geometry Optimization Parameters
   NAtoms,    NIC,     NZ,  NCons,   NDum,   NFix, NCnnct, MaxDiis
       28     205       0       0       0       0       0       0

 Cartesian Hessian Update
 Hessian Updated using BFGS Update


** GEOMETRY OPTIMIZATION IN DELOCALIZED INTERNAL COORDINATES **
   Searching for a Minimum

   Optimization Cycle:   3

                       Coordinates (Angstroms)
     ATOM                X               Y               Z
      1  C         5.2907377908    0.4056246525    0.0213362858
      2  C         4.6022208217    1.3066595906   -0.7961472661
      3  C         4.5699939307   -0.4482842084    0.8610721001
      4  C         3.2072449498    1.3522413120   -0.7747125778
      5  C         3.1740355156   -0.4058479289    0.8807749895
      6  C         0.3240416588    1.8289077548    0.1446671039
      7  C        -1.0551127011    1.9265377080    0.1501692355
      8  C         2.4678986594    0.4978490071    0.0641955758
      9  C         0.9833273389    0.5743887641    0.0951299116
     10  C        -1.8567459632    0.7676347864    0.0863658678
     11  C         0.1820081154   -0.5708102613    0.0579867470
     12  C        -1.2286280815   -0.4817147838    0.0369590338
     13  C        -3.3483359943    0.8555827570    0.0922002530
     14  F        -3.9119207384    0.1741000289   -0.9588625196
     15  F        -3.8025145109    2.1239410502    0.0163359900
     16  F        -3.9045956444    0.3051421871    1.2110747679
     17  N         0.6408301814   -1.9017529412    0.0055973718
     18  N        -1.8322961241   -1.7232509668   -0.0457019085
     19  S        -0.6797012160   -2.9962424732   -0.4126394377
     20  H         6.3781972612    0.3694728813    0.0039198147
     21  H         5.1518238586    1.9737944775   -1.4578895848
     22  H         5.0946954070   -1.1473990877    1.5099769162
     23  H         2.6814326858    2.0455684105   -1.4282610360
     24  H         2.6255649713   -1.0598333950    1.5555927295
     25  H         0.9260240622    2.7317199372    0.2080400723
     26  H        -1.5329246979    2.8994823763    0.2053852351
     27  H         1.4417899094   -2.0321421740   -0.6070735869
     28  H        -2.7554048656   -1.8178978716   -0.4488483387
   Point Group: c1    Number of degrees of freedom:    78


   Energy is  -1308.020854285

 Hessian Updated using BFGS Update

 78 Hessian modes will be used to form the next step
  Hessian Eigenvalues:
     0.005308    0.009837    0.010200    0.012801    0.017091    0.017786
     0.018360    0.019200    0.020007    0.021045    0.021396    0.021595
     0.022119    0.022197    0.022283    0.022579    0.022671    0.022719
     0.022777    0.022799    0.022866    0.023088    0.028941    0.105356
     0.109938    0.135545    0.150339    0.159800    0.159927    0.159975
     0.159986    0.159996    0.160000    0.161273    0.219994    0.220011
     0.224625    0.234584    0.239787    0.244827    0.246132    0.248862
     0.249913    0.249965    0.249993    0.250000    0.250296    0.261822
     0.282446    0.296759    0.332020    0.344001    0.355343    0.355475
     0.355646    0.355780    0.356990    0.358625    0.390580    0.394885
     0.408386    0.414315    0.415167    0.427769    0.441003    0.448302
     0.449790    0.453388    0.454225    0.460407    0.461961    0.462759
     0.469154    0.474989    0.503501    0.510491    0.530178    0.576872

 Minimum Search - Taking Simple RFO Step
 Searching for Lamda that Minimizes Along All modes
 Value Taken    Lamda =  -0.00426198
 Calculated Step too Large.  Step scaled by  0.466917
 Step Taken.  Stepsize is  0.300000

                             Maximum     Tolerance    Cnvgd?
         Gradient           0.004409      0.000300      NO
         Displacement       0.193137      0.001200      NO
         Energy change     -0.002208      0.000001      NO


 New Cartesian Coordinates Obtained by Inverse Iteration

 Displacement from previous Coordinates is:  0.242632
 ----------------------------------------------------------------
             Standard Nuclear Orientation (Angstroms)
    I     Atom           X                Y                Z
 ----------------------------------------------------------------
    1      C       5.2911003799     0.4111421953     0.0270746157
    2      C       4.6004880594     1.2998220706    -0.8019435360
    3      C       4.5728575456    -0.4364341390     0.8753845247
    4      C       3.2052954381     1.3409159259    -0.7813186148
    5      C       3.1768036532    -0.4001213099     0.8929658211
    6      C       0.3257190101     1.8222179923     0.1460369614
    7      C      -1.0539552517     1.9201597277     0.1508239186
    8      C       2.4691526432     0.4930772566     0.0666894916
    9      C       0.9827934141     0.5681781970     0.0971843768
   10      C      -1.8556086475     0.7630402821     0.0912920574
   11      C       0.1797358532    -0.5759354518     0.0590021788
   12      C      -1.2290327731    -0.4881372753     0.0444504873
   13      C      -3.3482066665     0.8545830360     0.1017204873
   14      F      -3.9140284243     0.1723915888    -0.9479226217
   15      F      -3.7985872310     2.1234189586     0.0219392439
   16      F      -3.9019592282     0.3100275390     1.2229601704
   17      N       0.6517087207    -1.9127064002     0.0172686042
   18      N      -1.8479698277    -1.7312384890    -0.0033502789
   19      S      -0.6868613882    -2.9855886690    -0.4386103237
   20      H       6.3795978172     0.3792660332     0.0115630784
   21      H       5.1486163484     1.9614509400    -1.4717818114
   22      H       5.0999662041    -1.1279754279     1.5318106870
   23      H       2.6773606826     2.0265440552    -1.4427938268
   24      H       2.6291850917    -1.0555444064     1.5679833412
   25      H       0.9273243045     2.7266786305     0.2038096737
   26      H      -1.5298328718     2.8953306813     0.2007426024
   27      H       1.4086356630    -2.0114098814    -0.6598881694
   28      H      -2.7266119382    -1.7896820706    -0.5064493941
 ----------------------------------------------------------------
 Molecular Point Group                 C1    NOp =  1
 Largest Abelian Subgroup              C1    NOp =  1
 Nuclear Repulsion Energy =  1525.3795925895 hartrees
 There are       72 alpha and       72 beta electrons
 Applying Cartesian multipole field
    Component          Value
    ---------          -----
     (2,0,0)        1.00000E-12
     (0,2,0)        2.00000E-11
     (0,0,2)       -3.00000E-11
 Nucleus-field energy     =     0.0000000236 hartrees
 Requested basis set is 6-31+G(d)
 There are 114 shells and 383 basis functions
 A cutoff of  1.0D-11 yielded   4989 shell pairs
 There are     59687 function pairs
 Smallest overlap matrix eigenvalue = 3.51E-07

 Q-Chem warning in module stvman/mkSTV.C, line 295:

 Overlap eigenvalue is smaller than square root of threshold

 Linear dependence detected in AO basis
 Number of orthogonalized atomic orbitals = 381
 Maximum deviation from orthogonality = 2.277E-10
 Guess MOs from SCF MO coefficient file
 Reading MOs from coefficient file
 Size of previous SCF MO coefficient file: 292608 (expected); 291840 (actual). 

 Q-Chem warning in module gesman/GuessMan.C, line 739:

 Inconsistent size for SCF MO coefficient file.  Please check basis and PURECART setting.


 Q-Chem fatal error occurred in module libmdc/newfileman.C, line 402:

 FileMan error: End of file reached prematurely reading (3048) bytes in file FILE_MO_COEFS
Expected File path:/global/scratch/smblau/qctest/qchem64223/53.0


 Please submit a crash report at q-chem.com/reporter 
 
 
