 Entering Gaussian System, Link 0=g16
 Initial command:
 /gpfs/software/gaussian/g16/l1.exe "/gpfs/scratch/ratwi/tests/Custodian/torsion/formbx/Optimization/Gau-18259.inp" -scrdir="/gpfs/scratch/ratwi/tests/Custodian/torsion/formbx/Optimization/"
 Entering Link 1 = /gpfs/software/gaussian/g16/l1.exe PID=     18260.
  
 Copyright (c) 1988-2019, Gaussian, Inc.  All Rights Reserved.
  
 This is part of the Gaussian(R) 16 program.  It is based on
 the Gaussian(R) 09 system (copyright 2009, Gaussian, Inc.),
 the Gaussian(R) 03 system (copyright 2003, Gaussian, Inc.),
 the Gaussian(R) 98 system (copyright 1998, Gaussian, Inc.),
 the Gaussian(R) 94 system (copyright 1995, Gaussian, Inc.),
 the Gaussian 92(TM) system (copyright 1992, Gaussian, Inc.),
 the Gaussian 90(TM) system (copyright 1990, Gaussian, Inc.),
 the Gaussian 88(TM) system (copyright 1988, Gaussian, Inc.),
 the Gaussian 86(TM) system (copyright 1986, Carnegie Mellon
 University), and the Gaussian 82(TM) system (copyright 1983,
 Carnegie Mellon University). Gaussian is a federally registered
 trademark of Gaussian, Inc.
  
 This software contains proprietary and confidential information,
 including trade secrets, belonging to Gaussian, Inc.
  
 This software is provided under written license and may be
 used, copied, transmitted, or stored only in accord with that
 written license.
  
 The following legend is applicable only to US Government
 contracts under FAR:
  
                    RESTRICTED RIGHTS LEGEND
  
 Use, reproduction and disclosure by the US Government is
 subject to restrictions as set forth in subparagraphs (a)
 and (c) of the Commercial Computer Software - Restricted
 Rights clause in FAR 52.227-19.
  
 Gaussian, Inc.
 340 Quinnipiac St., Bldg. 40, Wallingford CT 06492
  
  
 ---------------------------------------------------------------
 Warning -- This program may not be used in any manner that
 competes with the business of Gaussian, Inc. or will provide
 assistance to any competitor of Gaussian, Inc.  The licensee
 of this program is prohibited from giving any competitor of
 Gaussian, Inc. access to this program.  By using this program,
 the user acknowledges that Gaussian, Inc. is engaged in the
 business of creating and licensing software in the field of
 computational chemistry and represents and warrants to the
 licensee that it is not a competitor of Gaussian, Inc. and that
 it will not use this program in any manner prohibited above.
 ---------------------------------------------------------------
  

 Cite this work as:
 Gaussian 16, Revision C.01,
 M. J. Frisch, G. W. Trucks, H. B. Schlegel, G. E. Scuseria, 
 M. A. Robb, J. R. Cheeseman, G. Scalmani, V. Barone, 
 G. A. Petersson, H. Nakatsuji, X. Li, M. Caricato, A. V. Marenich, 
 J. Bloino, B. G. Janesko, R. Gomperts, B. Mennucci, H. P. Hratchian, 
 J. V. Ortiz, A. F. Izmaylov, J. L. Sonnenberg, D. Williams-Young, 
 F. Ding, F. Lipparini, F. Egidi, J. Goings, B. Peng, A. Petrone, 
 T. Henderson, D. Ranasinghe, V. G. Zakrzewski, J. Gao, N. Rega, 
 G. Zheng, W. Liang, M. Hada, M. Ehara, K. Toyota, R. Fukuda, 
 J. Hasegawa, M. Ishida, T. Nakajima, Y. Honda, O. Kitao, H. Nakai, 
 T. Vreven, K. Throssell, J. A. Montgomery, Jr., J. E. Peralta, 
 F. Ogliaro, M. J. Bearpark, J. J. Heyd, E. N. Brothers, K. N. Kudin, 
 V. N. Staroverov, T. A. Keith, R. Kobayashi, J. Normand, 
 K. Raghavachari, A. P. Rendell, J. C. Burant, S. S. Iyengar, 
 J. Tomasi, M. Cossi, J. M. Millam, M. Klene, C. Adamo, R. Cammi, 
 J. W. Ochterski, R. L. Martin, K. Morokuma, O. Farkas, 
 J. B. Foresman, and D. J. Fox, Gaussian, Inc., Wallingford CT, 2019.
 
 ******************************************
 Gaussian 16:  ES64L-G16RevC.01  3-Jul-2019
                18-Mar-2024 
 ******************************************
 %chk=Optimization.chk
 %mem=100GB
 %NProcShared=28
 Will use up to   28 processors via shared memory.
 ----------------------------------------------------------------------
 #P B3LYP/6-31+G* Opt=(MaxCycles=100) SCF SCRF=(PCM, Solvent=TetraHydro
 Furan)
 ----------------------------------------------------------------------
 1/6=100,18=20,19=15,26=3,38=1/1,3;
 2/9=110,12=2,17=6,18=5,40=1/2;
 3/5=1,6=6,7=11,11=2,25=1,30=1,70=2201,71=1,72=20,74=-5/1,2,3;
 4//1;
 5/5=2,38=5,53=20/2;
 6/7=2,8=2,9=2,10=2,28=1/1;
 7//1,2,3,16;
 1/6=100,18=20,19=15,26=3/3(2);
 2/9=110/2;
 99//99;
 2/9=110/2;
 3/5=1,6=6,7=11,11=2,25=1,30=1,70=2205,71=1,72=20,74=-5/1,2,3;
 4/5=5,16=3,69=1/1;
 5/5=2,38=5,53=20/2;
 7//1,2,3,16;
 1/6=100,18=20,19=15,26=3/3(-5);
 2/9=110/2;
 6/7=2,8=2,9=2,10=2,19=2,28=1/1;
 99/9=1/99;
 Leave Link    1 at Mon Mar 18 17:56:22 2024, MaxMem= 13421772800 cpu:               4.3 elap:               0.2
 (Enter /gpfs/software/gaussian/g16/l101.exe)
 -------
 H24 O12
 -------
 Symbolic Z-matrix:
 Charge =  0 Multiplicity = 1
 O                    -0.53594   2.41248   0. 
 H                     0.43406   2.41248   0. 
 H                    -0.85927   1.62336  -0.46223 
 O                    -0.47704   0.51529   0. 
 H                     0.49296   0.51529   0. 
 H                    -0.80037  -0.33185   0.34455 
 O                     1.94142   1.47371  -0.11556 
 H                     2.91142   1.47371  -0.11556 
 H                     1.61809   0.65087  -0.51466 
 O                     1.50641  -2.73919  -0.03332 
 H                     2.47641  -2.73919  -0.03332 
 H                     1.18308  -2.95364   0.85571 
 O                    -2.48141  -1.41241  -0.08968 
 H                    -1.51141  -1.41241  -0.08968 
 H                    -2.80474  -1.79691   0.74009 
 O                     0.26751  -1.37573  -0.08968 
 H                     1.23751  -1.37573  -0.08968 
 H                    -0.05582  -1.96346  -0.79034 
 O                     2.07923   3.19398   0.02479 
 H                     3.04923   3.19398   0.02479 
 H                     1.7559    3.50111  -0.83662 
 O                    -2.72961   0.74461   0.02479 
 H                    -1.75961   0.74461   0.02479 
 H                    -3.05294   0.98494  -0.85759 
 O                    -2.26019   4.16869  -0.05662 
 H                    -1.29019   4.16869  -0.05662 
 H                    -2.58352   4.98544  -0.46805 
 O                    -2.76245   3.16994  -0.05662 
 H                    -1.79245   3.16994  -0.05662 
 H                    -3.08578   2.46798   0.52957 
 O                     0.68788   4.88518  -0.05662 
 H                     1.65788   4.88518  -0.05662 
 H                     0.36455   5.61377  -0.60936 
 O                    -1.16831  -3.66931  -0.05662 
 H                    -0.19831  -3.66931  -0.05662 
 H                    -1.49164  -3.99811  -0.90999 
 
 Add virtual bond connecting atoms H9         and H5         Dist= 2.35D+00.
 Add virtual bond connecting atoms O4         and H3         Dist= 2.38D+00.
 Add virtual bond connecting atoms H23        and H3         Dist= 2.55D+00.
 Add virtual bond connecting atoms H23        and O4         Dist= 2.46D+00.
 Add virtual bond connecting atoms H14        and H6         Dist= 2.58D+00.
 Add virtual bond connecting atoms H17        and O10        Dist= 2.63D+00.
 Add virtual bond connecting atoms H29        and O1         Dist= 2.77D+00.
 Add virtual bond connecting atoms O16        and H6         Dist= 2.94D+00.
 Add virtual bond connecting atoms H18        and H14        Dist= 3.23D+00.
 Add virtual bond connecting atoms H32        and O19        Dist= 3.30D+00.
 Add virtual bond connecting atoms H32        and H21        Dist= 3.01D+00.
 Add virtual bond connecting atoms O19        and H2         Dist= 3.44D+00.
 Add virtual bond connecting atoms O19        and O7         Dist= 3.27D+00.
 Add virtual bond connecting atoms H20        and H8         Dist= 3.27D+00.
 Add virtual bond connecting atoms H35        and O10        Dist= 3.67D+00.
 Add virtual bond connecting atoms H35        and H12        Dist= 3.41D+00.
 Add virtual bond connecting atoms H35        and H18        Dist= 3.52D+00.
 Add atom     23 valence  3 ND=      2 dihedral      22      4     23      3
 ITRead=  0  0  0  0  0  0  0  0  0  0  0  0  0  0  0  0  0  0  0  0
 ITRead=  0  0  0  0  0  0  0  0  0  0  0  0  0  0  0  0
 MicOpt= -1 -1 -1 -1 -1 -1 -1 -1 -1 -1 -1 -1 -1 -1 -1 -1 -1 -1 -1 -1
 MicOpt= -1 -1 -1 -1 -1 -1 -1 -1 -1 -1 -1 -1 -1 -1 -1 -1
 NAtoms=     36 NQM=       36 NQMF=       0 NMMI=      0 NMMIF=      0
                NMic=       0 NMicF=      0.
                    Isotopes and Nuclear Properties:
 (Nuclear quadrupole moments (NQMom) in fm**2, nuclear magnetic moments (NMagM)
  in nuclear magnetons)

  Atom         1           2           3           4           5           6           7           8           9          10
 IAtWgt=          16           1           1          16           1           1          16           1           1          16
 AtmWgt=  15.9949146   1.0078250   1.0078250  15.9949146   1.0078250   1.0078250  15.9949146   1.0078250   1.0078250  15.9949146
 NucSpn=           0           1           1           0           1           1           0           1           1           0
 AtZEff=  -0.0000000  -0.0000000  -0.0000000  -0.0000000  -0.0000000  -0.0000000  -0.0000000  -0.0000000  -0.0000000  -0.0000000
 NQMom=    0.0000000   0.0000000   0.0000000   0.0000000   0.0000000   0.0000000   0.0000000   0.0000000   0.0000000   0.0000000
 NMagM=    0.0000000   2.7928460   2.7928460   0.0000000   2.7928460   2.7928460   0.0000000   2.7928460   2.7928460   0.0000000
 AtZNuc=   8.0000000   1.0000000   1.0000000   8.0000000   1.0000000   1.0000000   8.0000000   1.0000000   1.0000000   8.0000000

  Atom        11          12          13          14          15          16          17          18          19          20
 IAtWgt=           1           1          16           1           1          16           1           1          16           1
 AtmWgt=   1.0078250   1.0078250  15.9949146   1.0078250   1.0078250  15.9949146   1.0078250   1.0078250  15.9949146   1.0078250
 NucSpn=           1           1           0           1           1           0           1           1           0           1
 AtZEff=  -0.0000000  -0.0000000  -0.0000000  -0.0000000  -0.0000000  -0.0000000  -0.0000000  -0.0000000  -0.0000000  -0.0000000
 NQMom=    0.0000000   0.0000000   0.0000000   0.0000000   0.0000000   0.0000000   0.0000000   0.0000000   0.0000000   0.0000000
 NMagM=    2.7928460   2.7928460   0.0000000   2.7928460   2.7928460   0.0000000   2.7928460   2.7928460   0.0000000   2.7928460
 AtZNuc=   1.0000000   1.0000000   8.0000000   1.0000000   1.0000000   8.0000000   1.0000000   1.0000000   8.0000000   1.0000000

  Atom        21          22          23          24          25          26          27          28          29          30
 IAtWgt=           1          16           1           1          16           1           1          16           1           1
 AtmWgt=   1.0078250  15.9949146   1.0078250   1.0078250  15.9949146   1.0078250   1.0078250  15.9949146   1.0078250   1.0078250
 NucSpn=           1           0           1           1           0           1           1           0           1           1
 AtZEff=  -0.0000000  -0.0000000  -0.0000000  -0.0000000  -0.0000000  -0.0000000  -0.0000000  -0.0000000  -0.0000000  -0.0000000
 NQMom=    0.0000000   0.0000000   0.0000000   0.0000000   0.0000000   0.0000000   0.0000000   0.0000000   0.0000000   0.0000000
 NMagM=    2.7928460   0.0000000   2.7928460   2.7928460   0.0000000   2.7928460   2.7928460   0.0000000   2.7928460   2.7928460
 AtZNuc=   1.0000000   8.0000000   1.0000000   1.0000000   8.0000000   1.0000000   1.0000000   8.0000000   1.0000000   1.0000000

  Atom        31          32          33          34          35          36
 IAtWgt=          16           1           1          16           1           1
 AtmWgt=  15.9949146   1.0078250   1.0078250  15.9949146   1.0078250   1.0078250
 NucSpn=           0           1           1           0           1           1
 AtZEff=  -0.0000000  -0.0000000  -0.0000000  -0.0000000  -0.0000000  -0.0000000
 NQMom=    0.0000000   0.0000000   0.0000000   0.0000000   0.0000000   0.0000000
 NMagM=    0.0000000   2.7928460   2.7928460   0.0000000   2.7928460   2.7928460
 AtZNuc=   8.0000000   1.0000000   1.0000000   8.0000000   1.0000000   1.0000000
 Leave Link  101 at Mon Mar 18 17:56:23 2024, MaxMem= 13421772800 cpu:              12.1 elap:               0.5
 (Enter /gpfs/software/gaussian/g16/l103.exe)

 GradGradGradGradGradGradGradGradGradGradGradGradGradGradGradGradGradGrad
 Berny optimization.
 Initialization pass.
                           ----------------------------
                           !    Initial Parameters    !
                           ! (Angstroms and Degrees)  !
 --------------------------                            --------------------------
 ! Name  Definition              Value          Derivative Info.                !
 --------------------------------------------------------------------------------
 ! R1    R(1,2)                  0.97           estimate D2E/DX2                !
 ! R2    R(1,3)                  0.97           estimate D2E/DX2                !
 ! R3    R(1,29)                 1.4683         estimate D2E/DX2                !
 ! R4    R(2,19)                 1.8215         estimate D2E/DX2                !
 ! R5    R(3,4)                  1.26           estimate D2E/DX2                !
 ! R6    R(3,23)                 1.3491         estimate D2E/DX2                !
 ! R7    R(4,5)                  0.97           estimate D2E/DX2                !
 ! R8    R(4,6)                  0.97           estimate D2E/DX2                !
 ! R9    R(4,23)                 1.3031         estimate D2E/DX2                !
 ! R10   R(5,9)                  1.2447         estimate D2E/DX2                !
 ! R11   R(6,14)                 1.3645         estimate D2E/DX2                !
 ! R12   R(6,16)                 1.5552         estimate D2E/DX2                !
 ! R13   R(7,8)                  0.97           estimate D2E/DX2                !
 ! R14   R(7,9)                  0.97           estimate D2E/DX2                !
 ! R15   R(7,19)                 1.7315         estimate D2E/DX2                !
 ! R16   R(8,20)                 1.7315         estimate D2E/DX2                !
 ! R17   R(10,11)                0.97           estimate D2E/DX2                !
 ! R18   R(10,12)                0.97           estimate D2E/DX2                !
 ! R19   R(10,17)                1.3909         estimate D2E/DX2                !
 ! R20   R(10,35)                1.9421         estimate D2E/DX2                !
 ! R21   R(12,35)                1.8035         estimate D2E/DX2                !
 ! R22   R(13,14)                0.97           estimate D2E/DX2                !
 ! R23   R(13,15)                0.97           estimate D2E/DX2                !
 ! R24   R(14,18)                1.7068         estimate D2E/DX2                !
 ! R25   R(16,17)                0.97           estimate D2E/DX2                !
 ! R26   R(16,18)                0.97           estimate D2E/DX2                !
 ! R27   R(18,35)                1.8624         estimate D2E/DX2                !
 ! R28   R(19,20)                0.97           estimate D2E/DX2                !
 ! R29   R(19,21)                0.97           estimate D2E/DX2                !
 ! R30   R(19,32)                1.7448         estimate D2E/DX2                !
 ! R31   R(21,32)                1.5917         estimate D2E/DX2                !
 ! R32   R(22,23)                0.97           estimate D2E/DX2                !
 ! R33   R(22,24)                0.97           estimate D2E/DX2                !
 ! R34   R(25,26)                0.97           estimate D2E/DX2                !
 ! R35   R(25,27)                0.97           estimate D2E/DX2                !
 ! R36   R(25,28)                1.1179         estimate D2E/DX2                !
 ! R37   R(25,29)                1.1029         estimate D2E/DX2                !
 ! R38   R(28,29)                0.97           estimate D2E/DX2                !
 ! R39   R(28,30)                0.97           estimate D2E/DX2                !
 ! R40   R(31,32)                0.97           estimate D2E/DX2                !
 ! R41   R(31,33)                0.97           estimate D2E/DX2                !
 ! R42   R(34,35)                0.97           estimate D2E/DX2                !
 ! R43   R(34,36)                0.97           estimate D2E/DX2                !
 ! A1    A(2,1,3)              109.4709         estimate D2E/DX2                !
 ! A2    A(2,1,29)             148.8466         estimate D2E/DX2                !
 ! A3    A(3,1,29)              96.6645         estimate D2E/DX2                !
 ! A4    A(1,2,19)             154.5799         estimate D2E/DX2                !
 ! A5    A(1,3,4)              116.0721         estimate D2E/DX2                !
 ! A6    A(1,3,23)             125.4741         estimate D2E/DX2                !
 ! A7    A(3,4,5)              107.6595         estimate D2E/DX2                !
 ! A8    A(3,4,6)              142.8661         estimate D2E/DX2                !
 ! A9    A(5,4,6)              109.471          estimate D2E/DX2                !
 ! A10   A(6,4,23)              79.5639         estimate D2E/DX2                !
 ! A11   A(4,5,9)              154.6845         estimate D2E/DX2                !
 ! A12   A(4,6,14)             138.7889         estimate D2E/DX2                !
 ! A13   A(4,6,16)             104.96           estimate D2E/DX2                !
 ! A14   A(14,6,16)             74.7758         estimate D2E/DX2                !
 ! A15   A(8,7,9)              109.4711         estimate D2E/DX2                !
 ! A16   A(8,7,19)              85.4349         estimate D2E/DX2                !
 ! A17   A(9,7,19)             154.5131         estimate D2E/DX2                !
 ! A18   A(7,8,20)              94.5651         estimate D2E/DX2                !
 ! A19   A(5,9,7)              102.9202         estimate D2E/DX2                !
 ! A20   A(11,10,12)           109.471          estimate D2E/DX2                !
 ! A21   A(11,10,17)           101.1474         estimate D2E/DX2                !
 ! A22   A(11,10,35)           151.3749         estimate D2E/DX2                !
 ! A23   A(12,10,17)           100.919          estimate D2E/DX2                !
 ! A24   A(17,10,35)           107.4156         estimate D2E/DX2                !
 ! A25   A(14,13,15)           109.471          estimate D2E/DX2                !
 ! A26   A(6,14,13)            121.4071         estimate D2E/DX2                !
 ! A27   A(6,14,18)             86.6697         estimate D2E/DX2                !
 ! A28   A(13,14,18)           148.517          estimate D2E/DX2                !
 ! A29   A(6,16,17)            133.366          estimate D2E/DX2                !
 ! A30   A(6,16,18)            112.3029         estimate D2E/DX2                !
 ! A31   A(17,16,18)           109.4711         estimate D2E/DX2                !
 ! A32   A(10,17,16)           101.1474         estimate D2E/DX2                !
 ! A33   A(14,18,16)            78.0024         estimate D2E/DX2                !
 ! A34   A(14,18,35)            93.9416         estimate D2E/DX2                !
 ! A35   A(16,18,35)           107.2118         estimate D2E/DX2                !
 ! A36   A(2,19,7)              60.0497         estimate D2E/DX2                !
 ! A37   A(2,19,20)            154.5799         estimate D2E/DX2                !
 ! A38   A(2,19,21)             79.7875         estimate D2E/DX2                !
 ! A39   A(2,19,32)            101.3682         estimate D2E/DX2                !
 ! A40   A(7,19,20)             94.5651         estimate D2E/DX2                !
 ! A41   A(7,19,21)            102.4781         estimate D2E/DX2                !
 ! A42   A(7,19,32)            160.0522         estimate D2E/DX2                !
 ! A43   A(20,19,21)           109.471          estimate D2E/DX2                !
 ! A44   A(20,19,32)           103.9745         estimate D2E/DX2                !
 ! A45   A(8,20,19)             85.4349         estimate D2E/DX2                !
 ! A46   A(23,22,24)           109.4711         estimate D2E/DX2                !
 ! A47   A(3,23,22)            131.8649         estimate D2E/DX2                !
 ! A48   A(26,25,27)           109.471          estimate D2E/DX2                !
 ! A49   A(26,25,28)           116.6973         estimate D2E/DX2                !
 ! A50   A(26,25,29)            64.9051         estimate D2E/DX2                !
 ! A51   A(27,25,28)           127.0484         estimate D2E/DX2                !
 ! A52   A(27,25,29)           154.6759         estimate D2E/DX2                !
 ! A53   A(25,28,30)           142.7759         estimate D2E/DX2                !
 ! A54   A(29,28,30)           109.4709         estimate D2E/DX2                !
 ! A55   A(1,29,25)            146.1141         estimate D2E/DX2                !
 ! A56   A(1,29,28)            148.8466         estimate D2E/DX2                !
 ! A57   A(32,31,33)           109.4709         estimate D2E/DX2                !
 ! A58   A(19,32,31)           103.9745         estimate D2E/DX2                !
 ! A59   A(21,32,31)            93.5305         estimate D2E/DX2                !
 ! A60   A(35,34,36)           109.4711         estimate D2E/DX2                !
 ! A61   A(10,35,18)            59.9274         estimate D2E/DX2                !
 ! A62   A(10,35,34)           151.3749         estimate D2E/DX2                !
 ! A63   A(12,35,18)            77.1283         estimate D2E/DX2                !
 ! A64   A(12,35,34)           139.9899         estimate D2E/DX2                !
 ! A65   A(18,35,34)            94.3879         estimate D2E/DX2                !
 ! A66   L(5,4,23,6,-1)        189.0349         estimate D2E/DX2                !
 ! A67   L(4,23,22,13,-1)      169.8195         estimate D2E/DX2                !
 ! A68   L(5,4,23,6,-2)        175.1049         estimate D2E/DX2                !
 ! A69   L(4,23,22,13,-2)      180.56           estimate D2E/DX2                !
 ! D1    D(3,1,2,19)           151.4571         estimate D2E/DX2                !
 ! D2    D(29,1,2,19)            6.0918         estimate D2E/DX2                !
 ! D3    D(2,1,3,4)             57.9135         estimate D2E/DX2                !
 ! D4    D(2,1,3,23)           128.1162         estimate D2E/DX2                !
 ! D5    D(29,1,3,4)          -139.3053         estimate D2E/DX2                !
 ! D6    D(29,1,3,23)          -69.1026         estimate D2E/DX2                !
 ! D7    D(2,1,29,25)           -6.9543         estimate D2E/DX2                !
 ! D8    D(2,1,29,28)          180.0            estimate D2E/DX2                !
 ! D9    D(3,1,29,25)         -154.3057         estimate D2E/DX2                !
 ! D10   D(3,1,29,28)           32.6486         estimate D2E/DX2                !
 ! D11   D(1,2,19,7)          -176.7238         estimate D2E/DX2                !
 ! D12   D(1,2,19,20)          180.0            estimate D2E/DX2                !
 ! D13   D(1,2,19,21)          -65.7965         estimate D2E/DX2                !
 ! D14   D(1,2,19,32)           -4.5262         estimate D2E/DX2                !
 ! D15   D(1,3,4,5)            -56.9608         estimate D2E/DX2                !
 ! D16   D(1,3,4,6)            123.8369         estimate D2E/DX2                !
 ! D17   D(1,3,23,22)           84.8943         estimate D2E/DX2                !
 ! D18   D(3,4,5,9)            -52.5981         estimate D2E/DX2                !
 ! D19   D(6,4,5,9)            126.8911         estimate D2E/DX2                !
 ! D20   D(3,4,6,14)            63.3928         estimate D2E/DX2                !
 ! D21   D(3,4,6,16)           147.2241         estimate D2E/DX2                !
 ! D22   D(5,4,6,14)          -115.801          estimate D2E/DX2                !
 ! D23   D(5,4,6,16)           -31.9697         estimate D2E/DX2                !
 ! D24   D(23,4,6,14)           69.0941         estimate D2E/DX2                !
 ! D25   D(23,4,6,16)          152.9254         estimate D2E/DX2                !
 ! D26   D(6,4,22,24)         -124.4423         estimate D2E/DX2                !
 ! D27   D(22,4,23,3)         -149.1226         estimate D2E/DX2                !
 ! D28   D(4,5,9,7)            108.35           estimate D2E/DX2                !
 ! D29   D(4,6,14,13)          -84.0079         estimate D2E/DX2                !
 ! D30   D(4,6,14,18)           80.8654         estimate D2E/DX2                !
 ! D31   D(16,6,14,13)        -179.4778         estimate D2E/DX2                !
 ! D32   D(16,6,14,18)         -14.6045         estimate D2E/DX2                !
 ! D33   D(4,6,16,17)           43.3664         estimate D2E/DX2                !
 ! D34   D(4,6,16,18)         -108.6429         estimate D2E/DX2                !
 ! D35   D(14,6,16,17)        -179.3869         estimate D2E/DX2                !
 ! D36   D(14,6,16,18)          28.6038         estimate D2E/DX2                !
 ! D37   D(9,7,8,20)           158.7895         estimate D2E/DX2                !
 ! D38   D(19,7,8,20)            0.0            estimate D2E/DX2                !
 ! D39   D(8,7,9,5)            154.5021         estimate D2E/DX2                !
 ! D40   D(19,7,9,5)           -82.4399         estimate D2E/DX2                !
 ! D41   D(8,7,19,2)          -178.5898         estimate D2E/DX2                !
 ! D42   D(8,7,19,20)            0.0            estimate D2E/DX2                !
 ! D43   D(8,7,19,21)          111.1094         estimate D2E/DX2                !
 ! D44   D(8,7,19,32)          158.4485         estimate D2E/DX2                !
 ! D45   D(9,7,19,2)            53.8488         estimate D2E/DX2                !
 ! D46   D(9,7,19,20)         -127.5613         estimate D2E/DX2                !
 ! D47   D(9,7,19,21)          -16.452          estimate D2E/DX2                !
 ! D48   D(9,7,19,32)           30.8871         estimate D2E/DX2                !
 ! D49   D(7,8,20,19)            0.0            estimate D2E/DX2                !
 ! D50   D(11,10,17,16)        180.0            estimate D2E/DX2                !
 ! D51   D(12,10,17,16)        -67.4173         estimate D2E/DX2                !
 ! D52   D(35,10,17,16)          1.9079         estimate D2E/DX2                !
 ! D53   D(11,10,35,18)       -151.2097         estimate D2E/DX2                !
 ! D54   D(11,10,35,34)        180.0            estimate D2E/DX2                !
 ! D55   D(17,10,35,18)         24.8806         estimate D2E/DX2                !
 ! D56   D(17,10,35,34)         -3.9097         estimate D2E/DX2                !
 ! D57   D(15,13,14,6)         -92.9691         estimate D2E/DX2                !
 ! D58   D(15,13,14,18)        116.9538         estimate D2E/DX2                !
 ! D59   D(6,14,18,16)          23.5023         estimate D2E/DX2                !
 ! D60   D(6,14,18,35)         130.2757         estimate D2E/DX2                !
 ! D61   D(13,14,18,16)        178.2587         estimate D2E/DX2                !
 ! D62   D(13,14,18,35)        -74.9679         estimate D2E/DX2                !
 ! D63   D(6,16,17,10)         155.0468         estimate D2E/DX2                !
 ! D64   D(18,16,17,10)        -52.3763         estimate D2E/DX2                !
 ! D65   D(6,16,18,14)         -22.1808         estimate D2E/DX2                !
 ! D66   D(6,16,18,35)        -112.6241         estimate D2E/DX2                !
 ! D67   D(17,16,18,14)        179.0355         estimate D2E/DX2                !
 ! D68   D(17,16,18,35)         88.5922         estimate D2E/DX2                !
 ! D69   D(14,18,35,10)       -136.232          estimate D2E/DX2                !
 ! D70   D(14,18,35,12)       -110.006          estimate D2E/DX2                !
 ! D71   D(14,18,35,34)         30.3883         estimate D2E/DX2                !
 ! D72   D(16,18,35,10)        -57.5811         estimate D2E/DX2                !
 ! D73   D(16,18,35,12)        -31.3551         estimate D2E/DX2                !
 ! D74   D(16,18,35,34)        109.0391         estimate D2E/DX2                !
 ! D75   D(2,19,20,8)            2.8473         estimate D2E/DX2                !
 ! D76   D(7,19,20,8)            0.0            estimate D2E/DX2                !
 ! D77   D(21,19,20,8)        -104.9591         estimate D2E/DX2                !
 ! D78   D(32,19,20,8)        -172.5799         estimate D2E/DX2                !
 ! D79   D(2,19,32,31)           2.0005         estimate D2E/DX2                !
 ! D80   D(7,19,32,31)          22.169          estimate D2E/DX2                !
 ! D81   D(20,19,32,31)        180.0            estimate D2E/DX2                !
 ! D82   D(24,22,23,3)          45.7681         estimate D2E/DX2                !
 ! D83   D(26,25,28,30)         87.4102         estimate D2E/DX2                !
 ! D84   D(27,25,28,30)       -124.6924         estimate D2E/DX2                !
 ! D85   D(26,25,29,1)           3.9661         estimate D2E/DX2                !
 ! D86   D(27,25,29,1)          86.545          estimate D2E/DX2                !
 ! D87   D(30,28,29,1)          35.5896         estimate D2E/DX2                !
 ! D88   D(33,31,32,19)       -145.5704         estimate D2E/DX2                !
 ! D89   D(33,31,32,21)       -113.4108         estimate D2E/DX2                !
 ! D90   D(36,34,35,10)        112.5065         estimate D2E/DX2                !
 ! D91   D(36,34,35,12)        162.9593         estimate D2E/DX2                !
 ! D92   D(36,34,35,18)         87.798          estimate D2E/DX2                !
 --------------------------------------------------------------------------------
 Trust Radius=3.00D-01 FncErr=1.00D-07 GrdErr=1.00D-06 EigMax=2.50D+02 EigMin=1.00D-04
 Number of steps in this run=    100 maximum allowed number of steps=    216.
 GradGradGradGradGradGradGradGradGradGradGradGradGradGradGradGradGradGrad

 Leave Link  103 at Mon Mar 18 17:56:23 2024, MaxMem= 13421772800 cpu:               0.9 elap:               0.1
 (Enter /gpfs/software/gaussian/g16/l202.exe)
                          Input orientation:                          
 ---------------------------------------------------------------------
 Center     Atomic      Atomic             Coordinates (Angstroms)
 Number     Number       Type             X           Y           Z
 ---------------------------------------------------------------------
      1          8           0       -0.535940    2.412480    0.000000
      2          1           0        0.434060    2.412480    0.000000
      3          1           0       -0.859270    1.623360   -0.462230
      4          8           0       -0.477040    0.515290    0.000000
      5          1           0        0.492960    0.515290    0.000000
      6          1           0       -0.800370   -0.331850    0.344550
      7          8           0        1.941420    1.473710   -0.115560
      8          1           0        2.911420    1.473710   -0.115560
      9          1           0        1.618090    0.650870   -0.514660
     10          8           0        1.506410   -2.739190   -0.033320
     11          1           0        2.476410   -2.739190   -0.033320
     12          1           0        1.183080   -2.953640    0.855710
     13          8           0       -2.481410   -1.412410   -0.089680
     14          1           0       -1.511410   -1.412410   -0.089680
     15          1           0       -2.804740   -1.796910    0.740090
     16          8           0        0.267510   -1.375730   -0.089680
     17          1           0        1.237510   -1.375730   -0.089680
     18          1           0       -0.055820   -1.963460   -0.790340
     19          8           0        2.079230    3.193980    0.024790
     20          1           0        3.049230    3.193980    0.024790
     21          1           0        1.755900    3.501110   -0.836620
     22          8           0       -2.729610    0.744610    0.024790
     23          1           0       -1.759610    0.744610    0.024790
     24          1           0       -3.052940    0.984940   -0.857590
     25          8           0       -2.260190    4.168690   -0.056620
     26          1           0       -1.290190    4.168690   -0.056620
     27          1           0       -2.583520    4.985440   -0.468050
     28          8           0       -2.762450    3.169940   -0.056620
     29          1           0       -1.792450    3.169940   -0.056620
     30          1           0       -3.085780    2.467980    0.529570
     31          8           0        0.687880    4.885180   -0.056620
     32          1           0        1.657880    4.885180   -0.056620
     33          1           0        0.364550    5.613770   -0.609360
     34          8           0       -1.168310   -3.669310   -0.056620
     35          1           0       -0.198310   -3.669310   -0.056620
     36          1           0       -1.491640   -3.998110   -0.909990
 ---------------------------------------------------------------------
                    Distance matrix (angstroms):
                    1          2          3          4          5
     1  O    0.000000
     2  H    0.970000   0.000000
     3  H    0.970005   1.584004   0.000000
     4  O    1.898104   2.104622   1.259990   0.000000
     5  H    2.158232   1.898104   1.808315   0.970000   0.000000
     6  H    2.778486   3.028841   2.115942   0.970002   1.584002
     7  O    2.651784   1.779544   2.826029   2.604011   1.740678
     8  H    3.574764   2.651784   3.789549   3.523292   2.604011
     9  H    2.829839   2.184049   2.661916   2.161672   1.244658
    10  O    5.541842   5.262200   4.981189   3.811407   3.408787
    11  H    5.967836   5.541842   5.508409   4.394954   3.811407
    12  H    5.699343   5.485300   5.182382   3.939761   3.638953
    13  O    4.292165   4.810176   3.462085   2.782367   3.545553
    14  H    3.948337   4.292165   3.127296   2.189518   2.782367
    15  H    4.838817   5.362511   4.114447   3.363360   4.094976
    16  O    3.873514   3.792930   3.225363   2.034294   1.906522
    17  H    4.183743   3.873514   3.678290   2.554150   2.034294
    18  H    4.472584   4.473642   3.690321   2.635577   2.658947
    19  O    2.729555   1.821522   3.367316   3.702771   3.113237
    20  H    3.669441   2.729555   4.240331   4.428383   3.702771
    21  H    2.671625   1.905862   3.241177   3.821135   3.348144
    22  O    2.755829   3.576480   2.123102   2.264348   3.230814
    23  H    2.068761   2.755829   1.349075   1.303145   2.264348
    24  H    3.018049   3.864259   2.318637   2.755230   3.678239
    25  O    2.461812   3.216592   2.933565   4.065730   4.574972
    26  H    1.912164   2.461812   2.613220   3.743227   4.065730
    27  H    3.321412   3.993117   3.778446   4.963725   5.446654
    28  O    2.352509   3.285518   2.485664   3.503351   4.200960
    29  H    1.468254   2.352509   1.851284   2.963221   3.503351
    30  H    2.604843   3.559887   2.579612   3.301358   4.111061
    31  O    2.759563   2.486338   3.632859   4.522851   4.374601
    32  H    3.306100   2.759563   4.140052   4.863849   4.522851
    33  H    3.380896   3.259511   4.176452   5.203277   5.136371
    34  O    6.114840   6.289592   5.317178   4.241690   4.502655
    35  H    6.091418   6.114840   5.349182   4.194255   4.241690
    36  H    6.545006   6.755151   5.674619   4.714687   5.013731
                    6          7          8          9         10
     6  H    0.000000
     7  O    3.314990   0.000000
     8  H    4.153208   0.970000   0.000000
     9  H    2.748259   0.969994   1.583998   0.000000
    10  O    3.355489   4.236098   4.441772   3.425882   0.000000
    11  H    4.083547   4.247529   4.236098   3.530001   0.970000
    12  H    3.327032   4.595636   4.850974   3.880675   0.970003
    13  O    2.045009   5.281267   6.116615   4.609082   4.203121
    14  H    1.364457   4.500266   5.281267   3.772466   3.297083
    15  H    2.514031   5.827103   6.641052   5.208402   4.480186
    16  O    1.555188   3.304838   3.887189   2.472202   1.843115
    17  H    2.330493   2.935212   3.304838   2.105364   1.390865
    18  H    2.122376   4.032175   4.590640   3.116520   1.901420
    19  O    4.563532   1.731479   1.916133   2.640277   5.961041
    20  H    5.230023   2.050919   1.731479   2.967588   6.130757
    21  H    4.756181   2.159791   2.442438   2.871675   6.296736
    22  O    2.232259   4.729673   5.689684   4.382042   5.484898
    23  H    1.476873   3.774773   4.729673   3.421791   4.775681
    24  H    2.872829   5.072784   6.030182   4.695501   5.944429
    25  O    4.748355   4.991985   5.831976   5.256036   7.868076
    26  H    4.544857   4.208289   4.991985   4.587260   7.452538
    27  H    5.666879   5.738604   6.530763   6.036903   8.751367
    28  O    4.034009   5.000706   5.922286   5.073918   7.289823
    29  H    3.661652   4.101519   5.000706   4.264657   6.767632
    30  H    3.618892   5.165027   6.113197   5.149631   6.965606
    31  O    5.439966   3.634964   4.072558   4.359412   7.668217
    32  H    5.781119   3.423740   3.634964   4.259198   7.625910
    33  H    6.133301   4.457629   4.885743   5.119639   8.450302
    34  O    3.381561   6.010370   6.564931   5.161180   2.831924
    35  H    3.414975   5.570689   6.010370   4.708828   1.942096
    36  H    3.936139   6.508290   7.068159   5.607113   3.367749
                   11         12         13         14         15
    11  H    0.000000
    12  H    1.584003   0.000000
    13  O    5.132592   4.086274   0.000000
    14  H    4.203121   3.244908   0.970000   0.000000
    15  H    5.420018   4.153806   0.970000   1.584002   0.000000
    16  O    2.596428   2.054709   2.749165   1.779298   3.210083
    17  H    1.843115   1.840251   3.719101   2.749165   4.147975
    18  H    2.754455   2.285784   2.584196   1.706846   3.150637
    19  O    5.946733   6.267914   6.483160   5.841629   7.019530
    20  H    5.961041   6.478131   7.198605   6.483160   7.725905
    21  H    6.332912   6.697455   6.531110   5.947765   7.166203
    22  O    6.264414   5.447626   2.174268   2.479889   2.641330
    23  H    5.484898   4.798636   2.277462   2.174268   2.839591
    24  H    6.717312   6.032551   2.581399   2.951828   3.217588
    25  O    8.375842   7.963419   5.585580   5.631203   6.043150
    26  H    7.868076   7.594537   5.706906   5.585580   6.206206
    27  H    9.244555   8.886428   6.409842   6.498082   6.892664
    28  O    7.897089   7.341511   4.591079   4.750171   5.030520
    29  H    7.289823   6.869087   4.633971   4.591079   5.131187
    30  H    7.639988   6.908219   3.975696   4.233148   4.279321
    31  O    7.831373   7.907254   7.050187   6.670653   7.581785
    32  H    7.668217   7.906003   7.536210   7.050187   8.074655
    33  H    8.635028   8.730231   7.598471   7.290850   8.172123
    34  O    3.761602   2.621748   2.611307   2.283070   2.611232
    35  H    2.831924   1.803543   3.210488   2.611307   3.306676
    36  H    4.254274   3.370867   2.887628   2.712774   3.048324
                   16         17         18         19         20
    16  O    0.000000
    17  H    0.970000   0.000000
    18  H    0.969997   1.583999   0.000000
    19  O    4.917081   4.647994   5.641105   0.000000
    20  H    5.351011   4.917081   6.074945   0.970000   0.000000
    21  H    5.153328   4.960868   5.757256   0.969999   1.584001
    22  O    3.673101   4.499665   3.891945   5.396699   6.276496
    23  H    2.935670   3.673101   3.301663   4.553691   5.396699
    24  H    4.145822   4.956855   4.204796   5.656644   6.549422
    25  O    6.093517   6.555577   6.557504   4.448287   5.398762
    26  H    5.759177   6.093517   6.298038   3.508515   4.448287
    27  H    6.981119   7.430203   7.401375   5.019308   5.931281
    28  O    5.463046   6.055071   5.849443   4.842424   5.812300
    29  H    4.990756   5.463046   5.468640   3.872610   4.842424
    30  H    5.138300   5.817939   5.528153   5.240153   6.198405
    31  O    6.275093   6.285076   6.927864   2.191493   2.905643
    32  H    6.413518   6.275093   7.097815   1.744798   2.191493
    33  H    7.009465   7.062948   7.591039   3.032764   3.669474
    34  O    2.706138   3.324090   2.164695   7.593279   8.055993
    35  H    2.340639   2.706138   1.862410   7.231775   7.593279
    36  H    3.262575   3.872731   2.493130   8.084002   8.556838
                   21         22         23         24         25
    21  H    0.000000
    22  O    5.334803   0.000000
    23  H    4.549630   0.970000   0.000000
    24  H    5.427384   0.969998   1.584000   0.000000
    25  O    4.145243   3.457066   3.461435   3.377317   0.000000
    26  H    3.214456   3.715223   3.457066   3.726272   0.970000
    27  H    4.601048   4.271870   4.348144   4.046739   0.969999
    28  O    4.597125   2.426918   2.625746   2.345242   1.117930
    29  H    3.648131   2.601369   2.426918   2.646623   1.102852
    30  H    5.135728   1.830755   2.232383   2.030935   1.979301
    31  O    1.914345   5.369375   4.810525   5.463255   3.033888
    32  H    1.591747   6.033325   5.369375   6.168083   3.983043
    33  H    2.539849   5.803851   5.350039   5.759073   3.046808
    34  O    7.782951   4.682625   4.454094   5.084823   7.913687
    35  H    7.472768   5.088890   4.682625   5.518379   8.104665
    36  H    8.172527   4.989968   4.841386   5.222183   8.247153
                   26         27         28         29         30
    26  H    0.000000
    27  H    1.584001   0.000000
    28  O    1.779059   1.870115   0.000000
    29  H    1.117930   2.022648   0.970000   0.000000
    30  H    2.541688   2.754109   0.970005   1.584004   0.000000
    31  O    2.103834   3.298694   3.853158   3.015640   4.519622
    32  H    3.033888   4.262488   4.741452   3.853158   5.356191
    33  H    2.265379   3.017596   4.006988   3.306127   4.806031
    34  O    7.838948   8.779339   7.022580   6.867670   6.456519
    35  H    7.913687   8.986835   7.304119   7.022580   6.807895
    36  H    8.213735   9.060446   7.329675   7.224934   6.813511
                   31         32         33         34         35
    31  O    0.000000
    32  H    0.970000   0.000000
    33  H    0.970004   1.584004   0.000000
    34  O    8.753556   9.009254   9.425007   0.000000
    35  H    8.600269   8.753556   9.316539   0.970000   0.000000
    36  H    9.186479   9.463644   9.794083   0.969996   1.583999
                   36
    36  H    0.000000
 Stoichiometry    H24O12
 Framework group  C1[X(H24O12)]
 Deg. of freedom   102
 Full point group                 C1      NOp   1
 Largest Abelian subgroup         C1      NOp   1
 Largest concise Abelian subgroup C1      NOp   1
                         Standard orientation:                         
 ---------------------------------------------------------------------
 Center     Atomic      Atomic             Coordinates (Angstroms)
 Number     Number       Type             X           Y           Z
 ---------------------------------------------------------------------
      1          8           0        1.486357   -0.108620   -0.067541
      2          1           0        1.487721    0.861370   -0.071798
      3          1           0        0.698438   -0.428798    0.398913
      4          8           0       -0.410736   -0.047023   -0.061038
      5          1           0       -0.409372    0.922967   -0.065295
      6          1           0       -1.259555   -0.370655   -0.401145
      7          8           0        0.551491    2.370555    0.040491
      8          1           0        0.552855    3.340545    0.036234
      9          1           0       -0.270373    2.050148    0.443936
     10          8           0       -3.662284    1.941181   -0.024826
     11          1           0       -3.660919    2.911171   -0.029083
     12          1           0       -3.880360    1.614262   -0.911658
     13          8           0       -2.340921   -2.048237    0.044306
     14          1           0       -2.339557   -1.078247    0.040049
     15          1           0       -2.728835   -2.374654   -0.782662
     16          8           0       -2.300375    0.700602    0.032111
     17          1           0       -2.299011    1.670592    0.027855
     18          1           0       -2.886054    0.381183    0.736274
     19          8           0        2.271441    2.505302   -0.106592
     20          1           0        2.272805    3.475292   -0.110849
     21          1           0        2.581189    2.185314    0.755129
     22          8           0       -0.184675   -2.300004   -0.076760
     23          1           0       -0.183310   -1.330014   -0.081017
     24          1           0        0.058349   -2.619804    0.806168
     25          8           0        3.240331   -1.835101   -0.009613
     26          1           0        3.241695   -0.865112   -0.013870
     27          1           0        4.058089   -2.157786    0.400319
     28          8           0        2.240882   -2.335936   -0.003850
     29          1           0        2.242246   -1.365946   -0.008107
     30          1           0        1.536380   -2.660833   -0.586110
     31          8           0        3.960962    1.111918   -0.025104
     32          1           0        3.962327    2.081908   -0.029361
     33          1           0        4.691065    0.789978    0.526450
     34          8           0       -4.596076   -0.732086    0.013526
     35          1           0       -4.594711    0.237904    0.009269
     36          1           0       -4.922282   -1.051204    0.869473
 ---------------------------------------------------------------------
 Rotational constants (GHZ):           0.7540996           0.3268386           0.2292157
 Leave Link  202 at Mon Mar 18 17:56:23 2024, MaxMem= 13421772800 cpu:               1.2 elap:               0.1
 (Enter /gpfs/software/gaussian/g16/l301.exe)
 Standard basis: 6-31+G(d) (6D, 7F)
 Ernie: Thresh=  0.10000D-02 Tol=  0.10000D-05 Strict=F.
 There are   276 symmetry adapted cartesian basis functions of A   symmetry.
 There are   276 symmetry adapted basis functions of A   symmetry.
   276 basis functions,   480 primitive gaussians,   276 cartesian basis functions
    60 alpha electrons       60 beta electrons
       nuclear repulsion energy      1077.9823907696 Hartrees.
 IExCor=  402 DFT=T Ex+Corr=B3LYP ExCW=0 ScaHFX=  0.200000
 ScaDFX=  0.800000  0.720000  1.000000  0.810000 ScalE2=  1.000000  1.000000
 IRadAn=      5 IRanWt=     -1 IRanGd=            0 ICorTp=0 IEmpDi=  4
 NAtoms=   36 NActive=   36 NUniq=   36 SFac= 1.00D+00 NAtFMM=   60 NAOKFM=F Big=F
 Integral buffers will be    131072 words long.
 Raffenetti 2 integral format.
 Two-electron integral symmetry is turned on.
 ------------------------------------------------------------------------------
 Polarizable Continuum Model (PCM)
 =================================
 Model                : PCM.
 Atomic radii         : UFF (Universal Force Field).
 Polarization charges : Total charges.
 Charge compensation  : None.
 Solution method      : On-the-fly selection.
 Cavity type          : Scaled VdW (van der Waals Surface) (Alpha=1.100).
 Cavity algorithm     : GePol (No added spheres)
                        Default sphere list used, NSphG=   36.
                        Lebedev-Laikov grids with approx.  5.0 points / Ang**2.
                        Smoothing algorithm: York/Karplus (Gamma=1.0000).
                        Polarization charges: spherical gaussians, with
                                              point-specific exponents (IZeta= 3).
                        Self-potential: point-specific (ISelfS= 7).
                        Self-field    : sphere-specific E.n sum rule (ISelfD= 2).
 1st derivatives      : Analytical E(r).r(x)/FMM algorithm (CHGder, D1EAlg=3).
                        Cavity 1st derivative terms included.
 Solvent              : TetraHydroFuran, Eps=   7.425700 Eps(inf)=   1.974025
 ------------------------------------------------------------------------------
 GePol: Number of generator spheres                  =      36
 GePol: Total number of spheres                      =      36
 GePol: Number of exposed spheres                    =      36 (100.00%)
 GePol: Number of points                             =    2329
 GePol: Average weight of points                     =       0.12
 GePol: Minimum weight of points                     =   0.35D-10
 GePol: Maximum weight of points                     =    0.20212
 GePol: Number of points with low weight             =     146
 GePol: Fraction of low-weight points (<1% of avg)   =       6.27%
 GePol: Cavity surface area                          =    287.804 Ang**2
 GePol: Cavity volume                                =    288.497 Ang**3
 Leave Link  301 at Mon Mar 18 17:56:23 2024, MaxMem= 13421772800 cpu:               2.6 elap:               0.2
 (Enter /gpfs/software/gaussian/g16/l302.exe)
 NPDir=0 NMtPBC=     1 NCelOv=     1 NCel=       1 NClECP=     1 NCelD=      1
         NCelK=      1 NCelE2=     1 NClLst=     1 CellRange=     0.0.
 One-electron integrals computed using PRISM.
 One-electron integral symmetry used in STVInt
 NBasis=   276 RedAO= T EigKep=  8.63D-05  NBF=   276
 NBsUse=   276 1.00D-06 EigRej= -1.00D+00 NBFU=   276
 Precomputing XC quadrature grid using
 IXCGrd= 4 IRadAn=           5 IRanWt=          -1 IRanGd=           0 AccXCQ= 0.00D+00.
 Generated NRdTot=       0 NPtTot=           0 NUsed=           0 NTot=          32
 NSgBfM=   275   275   275   275   275 MxSgAt=    36 MxSgA2=    36.
 Leave Link  302 at Mon Mar 18 17:56:24 2024, MaxMem= 13421772800 cpu:              12.7 elap:               0.5
 (Enter /gpfs/software/gaussian/g16/l303.exe)
 DipDrv:  MaxL=1.
 Leave Link  303 at Mon Mar 18 17:56:24 2024, MaxMem= 13421772800 cpu:               1.8 elap:               0.1
 (Enter /gpfs/software/gaussian/g16/l401.exe)
 ExpMin= 8.45D-02 ExpMax= 5.48D+03 ExpMxC= 8.25D+02 IAcc=3 IRadAn=         5 AccDes= 0.00D+00
 Harris functional with IExCor=  402 and IRadAn=       5 diagonalized for initial guess.
 HarFok:  IExCor=  402 AccDes= 0.00D+00 IRadAn=         5 IDoV= 1 UseB2=F ITyADJ=14
 ICtDFT=  3500011 ScaDFX=  1.000000  1.000000  1.000000  1.000000
 FoFCou: FMM=F IPFlag=           0 FMFlag=      100000 FMFlg1=           0
         NFxFlg=           0 DoJE=T BraDBF=F KetDBF=T FulRan=T
         wScrn=  0.000000 ICntrl=       500 IOpCl=  0 I1Cent=   200000004 NGrid=           0
         NMat0=    1 NMatS0=      1 NMatT0=    0 NMatD0=    1 NMtDS0=    0 NMtDT0=    0
 Petite list used in FoFCou.
 Harris En= -916.079441656572    
 JPrj=0 DoOrth=F DoCkMO=F.
 Leave Link  401 at Mon Mar 18 17:56:25 2024, MaxMem= 13421772800 cpu:              24.9 elap:               0.9
 (Enter /gpfs/software/gaussian/g16/l502.exe)
 Integral symmetry usage will be decided dynamically.
 Closed shell SCF:
 Using DIIS extrapolation, IDIIS=  1040.
 NGot= 13421772800 LenX= 13421608498 LenY= 13421531881
 Requested convergence on RMS density matrix=1.00D-08 within 128 cycles.
 Requested convergence on MAX density matrix=1.00D-06.
 Requested convergence on             energy=1.00D-06.
 No special actions if energy rises.
 Fock matrices will be formed incrementally for  20 cycles.

 Cycle   1  Pass 1  IDiag  1:
 FoFJK:  IHMeth= 1 ICntrl=       0 DoSepK=F KAlg= 0 I1Cent=           0 FoldK=F
 IRaf= 870000000 NMat=       1 IRICut=       1 DoRegI=T DoRafI=F ISym2E= 0 IDoP0=0 IntGTp=1.
 FoFCou: FMM=F IPFlag=           0 FMFlag=      100000 FMFlg1=           0
         NFxFlg=           0 DoJE=F BraDBF=F KetDBF=F FulRan=T
         wScrn=  0.000000 ICntrl=         0 IOpCl=  0 I1Cent=           0 NGrid=           0
         NMat0=    1 NMatS0=      1 NMatT0=    0 NMatD0=    1 NMtDS0=    0 NMtDT0=    0
 Symmetry not used in FoFCou.
 Inv3:  Mode=1 IEnd=    16272723.
 Iteration    1 A*A^-1 deviation from unit magnitude is 3.55D-15 for    350.
 Iteration    1 A*A^-1 deviation from orthogonality  is 1.87D-15 for   1629    110.
 Iteration    1 A^-1*A deviation from unit magnitude is 3.22D-15 for    767.
 Iteration    1 A^-1*A deviation from orthogonality  is 2.49D-15 for   1260    150.
 E= -914.927603521112    
 DIIS: error= 4.61D-02 at cycle   1 NSaved=   1.
 NSaved= 1 IEnMin= 1 EnMin= -914.927603521112     IErMin= 1 ErrMin= 4.61D-02
 ErrMax= 4.61D-02  0.00D+00 EMaxC= 1.00D-01 BMatC= 1.11D+00 BMatP= 1.11D+00
 IDIUse=3 WtCom= 5.39D-01 WtEn= 4.61D-01
 Coeff-Com:  0.100D+01
 Coeff-En:   0.100D+01
 Coeff:      0.100D+01
 Gap=    -0.031 Goal=   None    Shift=    0.000
 GapD=   -0.031 DampG=0.250 DampE=0.500 DampFc=0.2500 IDamp=-1.
 Damping current iteration by 2.50D-01
 RMSDP=1.17D-01 MaxDP=1.26D+01              OVMax= 7.28D-01

 Cycle   2  Pass 1  IDiag  1:
 RMSU=  2.88D-02    CP:  1.23D+00
 E= -915.111127660037     Delta-E=       -0.183524138925 Rises=F Damp=T
 DIIS: error= 9.59D-03 at cycle   2 NSaved=   2.
 NSaved= 2 IEnMin= 2 EnMin= -915.111127660037     IErMin= 2 ErrMin= 9.59D-03
 ErrMax= 9.59D-03  0.00D+00 EMaxC= 1.00D-01 BMatC= 1.06D-01 BMatP= 1.11D+00
 IDIUse=3 WtCom= 9.04D-01 WtEn= 9.59D-02
 Coeff-Com: -0.253D+00 0.125D+01
 Coeff-En:   0.298D+00 0.702D+00
 Coeff:     -0.200D+00 0.120D+01
 Gap=    -0.023 Goal=   None    Shift=    0.000
 RMSDP=2.74D-02 MaxDP=2.93D+00 DE=-1.84D-01 OVMax= 8.62D-01

 Cycle   3  Pass 1  IDiag  1:
 RMSU=  5.56D-03    CP:  1.03D+00  8.46D-02
 E= -915.578778222985     Delta-E=       -0.467650562948 Rises=F Damp=F
 DIIS: error= 1.22D-02 at cycle   3 NSaved=   3.
 NSaved= 3 IEnMin= 3 EnMin= -915.578778222985     IErMin= 2 ErrMin= 9.59D-03
 ErrMax= 1.22D-02  0.00D+00 EMaxC= 1.00D-01 BMatC= 2.29D-01 BMatP= 1.06D-01
 IDIUse=2 WtCom= 0.00D+00 WtEn= 1.00D+00
 Coeff-En:   0.000D+00 0.000D+00 0.100D+01
 Coeff:      0.000D+00 0.000D+00 0.100D+01
 Gap=    -0.046 Goal=   None    Shift=    0.000
 RMSDP=4.33D-02 MaxDP=3.54D+00 DE=-4.68D-01 OVMax= 9.69D-01

 Cycle   4  Pass 1  IDiag  1:
 RMSU=  2.82D-02    CP:  1.01D+00  1.18D+00 -6.42D-01
 E= -912.473742795927     Delta-E=        3.105035427059 Rises=F Damp=F
 DIIS: error= 4.89D-02 at cycle   4 NSaved=   4.
 NSaved= 4 IEnMin= 3 EnMin= -915.578778222985     IErMin= 2 ErrMin= 9.59D-03
 ErrMax= 4.89D-02  0.00D+00 EMaxC= 1.00D-01 BMatC= 2.72D+00 BMatP= 1.06D-01
 IDIUse=2 WtCom= 0.00D+00 WtEn= 1.00D+00
 Coeff-En:   0.000D+00 0.000D+00 0.898D+00 0.102D+00
 Coeff:      0.000D+00 0.000D+00 0.898D+00 0.102D+00
 Gap=    -0.108 Goal=   None    Shift=    0.000
 RMSDP=3.21D-02 MaxDP=2.36D+00 DE= 3.11D+00 OVMax= 7.05D-01

 Cycle   5  Pass 1  IDiag  1:
 RMSU=  1.86D-02    CP:  9.88D-01  5.49D-01 -5.86D-02  3.44D-01
 E= -915.520414992793     Delta-E=       -3.046672196866 Rises=F Damp=F
 DIIS: error= 1.61D-02 at cycle   5 NSaved=   5.
 NSaved= 5 IEnMin= 3 EnMin= -915.578778222985     IErMin= 2 ErrMin= 9.59D-03
 ErrMax= 1.61D-02  0.00D+00 EMaxC= 1.00D-01 BMatC= 3.38D-01 BMatP= 1.06D-01
 IDIUse=2 WtCom= 0.00D+00 WtEn= 1.00D+00
 Coeff-En:   0.000D+00 0.000D+00 0.539D+00 0.000D+00 0.461D+00
 Coeff:      0.000D+00 0.000D+00 0.539D+00 0.000D+00 0.461D+00
 Gap=     0.018 Goal=   None    Shift=    0.000
 RMSDP=1.69D-02 MaxDP=1.89D+00 DE=-3.05D+00 OVMax= 4.03D-01

 Cycle   6  Pass 1  IDiag  1:
 RMSU=  1.18D-02    CP:  1.14D+00  7.94D-01  2.59D-02  5.12D-02  1.18D+00
 E= -915.815079912935     Delta-E=       -0.294664920142 Rises=F Damp=F
 DIIS: error= 4.01D-03 at cycle   6 NSaved=   6.
 NSaved= 6 IEnMin= 6 EnMin= -915.815079912935     IErMin= 6 ErrMin= 4.01D-03
 ErrMax= 4.01D-03  0.00D+00 EMaxC= 1.00D-01 BMatC= 1.86D-02 BMatP= 1.06D-01
 IDIUse=3 WtCom= 9.60D-01 WtEn= 4.01D-02
 Coeff-Com: -0.756D-01 0.270D+00 0.254D+00-0.247D-01 0.163D+00 0.413D+00
 Coeff-En:   0.000D+00 0.000D+00 0.000D+00 0.000D+00 0.000D+00 0.100D+01
 Coeff:     -0.726D-01 0.260D+00 0.244D+00-0.237D-01 0.156D+00 0.436D+00
 Gap=     0.020 Goal=   None    Shift=    0.000
 RMSDP=3.17D-03 MaxDP=1.89D-01 DE=-2.95D-01 OVMax= 7.11D-02

 Cycle   7  Pass 1  IDiag  1:
 RMSU=  2.06D-03    CP:  1.17D+00  8.06D-01  9.74D-02  8.88D-03  1.18D+00
                    CP:  1.16D+00
 E= -915.830027923799     Delta-E=       -0.014948010863 Rises=F Damp=F
 DIIS: error= 1.43D-03 at cycle   7 NSaved=   7.
 NSaved= 7 IEnMin= 7 EnMin= -915.830027923799     IErMin= 7 ErrMin= 1.43D-03
 ErrMax= 1.43D-03  0.00D+00 EMaxC= 1.00D-01 BMatC= 2.53D-03 BMatP= 1.86D-02
 IDIUse=3 WtCom= 9.86D-01 WtEn= 1.43D-02
 Coeff-Com: -0.315D-01 0.599D-01 0.200D-01-0.516D-03-0.407D-01 0.198D+00
 Coeff-Com:  0.795D+00
 Coeff-En:   0.000D+00 0.000D+00 0.000D+00 0.000D+00 0.000D+00 0.000D+00
 Coeff-En:   0.100D+01
 Coeff:     -0.311D-01 0.590D-01 0.197D-01-0.508D-03-0.401D-01 0.195D+00
 Coeff:      0.798D+00
 Gap=     0.028 Goal=   None    Shift=    0.000
 RMSDP=7.22D-03 MaxDP=9.03D-01 DE=-1.49D-02 OVMax= 5.58D-02

 Cycle   8  Pass 1  IDiag  1:
 RMSU=  3.00D-03    CP:  1.22D+00  9.31D-01 -2.97D-02 -4.58D-02  1.36D+00
                    CP:  1.47D+00  1.65D+00
 E= -915.833033393407     Delta-E=       -0.003005469609 Rises=F Damp=F
 DIIS: error= 4.95D-04 at cycle   8 NSaved=   8.
 NSaved= 8 IEnMin= 8 EnMin= -915.833033393407     IErMin= 8 ErrMin= 4.95D-04
 ErrMax= 4.95D-04  0.00D+00 EMaxC= 1.00D-01 BMatC= 2.50D-04 BMatP= 2.53D-03
 IDIUse=3 WtCom= 9.95D-01 WtEn= 4.95D-03
 Coeff-Com: -0.125D-01 0.186D-01-0.282D-03 0.181D-02-0.183D-01 0.572D-01
 Coeff-Com:  0.272D+00 0.682D+00
 Coeff-En:   0.000D+00 0.000D+00 0.000D+00 0.000D+00 0.000D+00 0.000D+00
 Coeff-En:   0.000D+00 0.100D+01
 Coeff:     -0.125D-01 0.185D-01-0.281D-03 0.180D-02-0.182D-01 0.569D-01
 Coeff:      0.271D+00 0.683D+00
 Gap=     0.031 Goal=   None    Shift=    0.000
 RMSDP=3.03D-03 MaxDP=2.90D-01 DE=-3.01D-03 OVMax= 6.13D-02

 Cycle   9  Pass 1  IDiag  1:
 RMSU=  7.69D-04    CP:  1.22D+00  9.71D-01 -1.36D-01 -3.86D-02  1.46D+00
                    CP:  1.53D+00  1.86D+00  1.56D+00
 E= -915.833619757555     Delta-E=       -0.000586364148 Rises=F Damp=F
 DIIS: error= 3.73D-04 at cycle   9 NSaved=   9.
 NSaved= 9 IEnMin= 9 EnMin= -915.833619757555     IErMin= 9 ErrMin= 3.73D-04
 ErrMax= 3.73D-04  0.00D+00 EMaxC= 1.00D-01 BMatC= 1.47D-04 BMatP= 2.50D-04
 IDIUse=3 WtCom= 9.96D-01 WtEn= 3.73D-03
 Coeff-Com: -0.130D-02-0.159D-02-0.693D-02 0.817D-03-0.480D-02-0.438D-02
 Coeff-Com: -0.190D-01 0.443D+00 0.594D+00
 Coeff-En:   0.000D+00 0.000D+00 0.000D+00 0.000D+00 0.000D+00 0.000D+00
 Coeff-En:   0.000D+00 0.000D+00 0.100D+01
 Coeff:     -0.129D-02-0.158D-02-0.691D-02 0.814D-03-0.478D-02-0.436D-02
 Coeff:     -0.189D-01 0.442D+00 0.595D+00
 Gap=     0.032 Goal=   None    Shift=    0.000
 RMSDP=1.77D-03 MaxDP=1.65D-01 DE=-5.86D-04 OVMax= 2.81D-02

 Cycle  10  Pass 1  IDiag  1:
 RMSU=  1.95D-04    CP:  1.22D+00  9.89D-01 -1.89D-01 -4.02D-02  1.51D+00
                    CP:  1.59D+00  2.02D+00  1.92D+00  1.49D+00
 E= -915.833856391092     Delta-E=       -0.000236633536 Rises=F Damp=F
 DIIS: error= 1.25D-04 at cycle  10 NSaved=  10.
 NSaved=10 IEnMin=10 EnMin= -915.833856391092     IErMin=10 ErrMin= 1.25D-04
 ErrMax= 1.25D-04  0.00D+00 EMaxC= 1.00D-01 BMatC= 1.83D-05 BMatP= 1.47D-04
 IDIUse=3 WtCom= 9.99D-01 WtEn= 1.25D-03
 Coeff-Com:  0.259D-02-0.420D-02-0.175D-02 0.222D-03-0.143D-02-0.208D-01
 Coeff-Com: -0.819D-01 0.518D-01 0.136D+00 0.919D+00
 Coeff-En:   0.000D+00 0.000D+00 0.000D+00 0.000D+00 0.000D+00 0.000D+00
 Coeff-En:   0.000D+00 0.000D+00 0.000D+00 0.100D+01
 Coeff:      0.259D-02-0.419D-02-0.175D-02 0.221D-03-0.143D-02-0.208D-01
 Coeff:     -0.818D-01 0.517D-01 0.136D+00 0.919D+00
 Gap=     0.032 Goal=   None    Shift=    0.000
 RMSDP=1.20D-03 MaxDP=6.49D-02 DE=-2.37D-04 OVMax= 2.31D-02

 Cycle  11  Pass 1  IDiag  1:
 RMSU=  1.00D-04    CP:  1.21D+00  9.88D-01 -2.24D-01 -3.78D-02  1.54D+00
                    CP:  1.62D+00  2.14D+00  2.19D+00  1.98D+00  2.25D+00
 E= -915.833924450953     Delta-E=       -0.000068059862 Rises=F Damp=F
 DIIS: error= 6.59D-05 at cycle  11 NSaved=  11.
 NSaved=11 IEnMin=11 EnMin= -915.833924450953     IErMin=11 ErrMin= 6.59D-05
 ErrMax= 6.59D-05  0.00D+00 EMaxC= 1.00D-01 BMatC= 6.26D-06 BMatP= 1.83D-05
 IDIUse=1 WtCom= 1.00D+00 WtEn= 0.00D+00
 Coeff-Com:  0.149D-02-0.154D-02-0.956D-05 0.297D-04-0.186D-02-0.135D-01
 Coeff-Com: -0.364D-01-0.236D-01-0.389D-01 0.401D+00 0.713D+00
 Coeff:      0.149D-02-0.154D-02-0.956D-05 0.297D-04-0.186D-02-0.135D-01
 Coeff:     -0.364D-01-0.236D-01-0.389D-01 0.401D+00 0.713D+00
 Gap=     0.031 Goal=   None    Shift=    0.000
 RMSDP=4.08D-04 MaxDP=1.94D-02 DE=-6.81D-05 OVMax= 7.79D-03

 Cycle  12  Pass 1  IDiag  1:
 RMSU=  2.06D-05    CP:  1.21D+00  9.85D-01 -2.34D-01 -3.63D-02  1.55D+00
                    CP:  1.62D+00  2.18D+00  2.28D+00  2.16D+00  2.87D+00
                    CP:  1.45D+00
 E= -915.833935323831     Delta-E=       -0.000010872878 Rises=F Damp=F
 DIIS: error= 2.98D-05 at cycle  12 NSaved=  12.
 NSaved=12 IEnMin=12 EnMin= -915.833935323831     IErMin=12 ErrMin= 2.98D-05
 ErrMax= 2.98D-05  0.00D+00 EMaxC= 1.00D-01 BMatC= 1.16D-06 BMatP= 6.26D-06
 IDIUse=1 WtCom= 1.00D+00 WtEn= 0.00D+00
 Coeff-Com:  0.908D-04 0.301D-03 0.686D-03-0.379D-04-0.104D-02-0.273D-02
 Coeff-Com:  0.988D-03-0.182D-02-0.443D-01-0.246D-01 0.307D+00 0.765D+00
 Coeff:      0.908D-04 0.301D-03 0.686D-03-0.379D-04-0.104D-02-0.273D-02
 Coeff:      0.988D-03-0.182D-02-0.443D-01-0.246D-01 0.307D+00 0.765D+00
 Gap=     0.031 Goal=   None    Shift=    0.000
 RMSDP=1.65D-04 MaxDP=1.44D-02 DE=-1.09D-05 OVMax= 2.72D-03

 Cycle  13  Pass 1  IDiag  1:
 RMSU=  3.21D-05    CP:  1.21D+00  9.82D-01 -2.36D-01 -3.49D-02  1.55D+00
                    CP:  1.62D+00  2.18D+00  2.30D+00  2.24D+00  3.00D+00
                    CP:  1.72D+00  1.66D+00
 E= -915.833936822325     Delta-E=       -0.000001498494 Rises=F Damp=F
 DIIS: error= 1.27D-05 at cycle  13 NSaved=  13.
 NSaved=13 IEnMin=13 EnMin= -915.833936822325     IErMin=13 ErrMin= 1.27D-05
 ErrMax= 1.27D-05  0.00D+00 EMaxC= 1.00D-01 BMatC= 1.93D-07 BMatP= 1.16D-06
 IDIUse=1 WtCom= 1.00D+00 WtEn= 0.00D+00
 Coeff-Com: -0.594D-04 0.861D-04 0.209D-03-0.169D-04-0.242D-03 0.174D-03
 Coeff-Com:  0.244D-02 0.534D-02-0.124D-01-0.604D-01-0.287D-01 0.321D+00
 Coeff-Com:  0.772D+00
 Coeff:     -0.594D-04 0.861D-04 0.209D-03-0.169D-04-0.242D-03 0.174D-03
 Coeff:      0.244D-02 0.534D-02-0.124D-01-0.604D-01-0.287D-01 0.321D+00
 Coeff:      0.772D+00
 Gap=     0.031 Goal=   None    Shift=    0.000
 RMSDP=6.59D-05 MaxDP=4.16D-03 DE=-1.50D-06 OVMax= 9.96D-04

 Cycle  14  Pass 1  IDiag  1:
 RMSU=  8.38D-06    CP:  1.21D+00  9.81D-01 -2.36D-01 -3.46D-02  1.55D+00
                    CP:  1.62D+00  2.19D+00  2.31D+00  2.27D+00  3.00D+00
                    CP:  1.83D+00  2.03D+00  1.79D+00
 E= -915.833937083856     Delta-E=       -0.000000261530 Rises=F Damp=F
 DIIS: error= 4.14D-06 at cycle  14 NSaved=  14.
 NSaved=14 IEnMin=14 EnMin= -915.833937083856     IErMin=14 ErrMin= 4.14D-06
 ErrMax= 4.14D-06  0.00D+00 EMaxC= 1.00D-01 BMatC= 1.52D-08 BMatP= 1.93D-07
 IDIUse=1 WtCom= 1.00D+00 WtEn= 0.00D+00
 Coeff-Com: -0.402D-04 0.641D-04 0.492D-04 0.128D-05-0.619D-04 0.207D-03
 Coeff-Com:  0.624D-03 0.354D-02-0.158D-02-0.255D-01-0.469D-01 0.916D-01
 Coeff-Com:  0.407D+00 0.571D+00
 Coeff:     -0.402D-04 0.641D-04 0.492D-04 0.128D-05-0.619D-04 0.207D-03
 Coeff:      0.624D-03 0.354D-02-0.158D-02-0.255D-01-0.469D-01 0.916D-01
 Coeff:      0.407D+00 0.571D+00
 Gap=     0.031 Goal=   None    Shift=    0.000
 RMSDP=1.01D-05 MaxDP=1.41D-03 DE=-2.62D-07 OVMax= 8.14D-05

 Cycle  15  Pass 1  IDiag  1:
 RMSU=  1.56D-06    CP:  1.21D+00  9.80D-01 -2.36D-01 -3.45D-02  1.55D+00
                    CP:  1.62D+00  2.19D+00  2.31D+00  2.27D+00  3.00D+00
                    CP:  1.85D+00  2.11D+00  1.89D+00  1.04D+00
 E= -915.833937095492     Delta-E=       -0.000000011636 Rises=F Damp=F
 DIIS: error= 1.58D-06 at cycle  15 NSaved=  15.
 NSaved=15 IEnMin=15 EnMin= -915.833937095492     IErMin=15 ErrMin= 1.58D-06
 ErrMax= 1.58D-06  0.00D+00 EMaxC= 1.00D-01 BMatC= 1.41D-09 BMatP= 1.52D-08
 IDIUse=1 WtCom= 1.00D+00 WtEn= 0.00D+00
 Coeff-Com: -0.898D-05 0.648D-05-0.752D-05-0.658D-06 0.205D-04 0.950D-04
 Coeff-Com: -0.957D-04 0.138D-02 0.135D-02-0.284D-02-0.169D-01-0.839D-04
 Coeff-Com:  0.809D-01 0.268D+00 0.668D+00
 Coeff:     -0.898D-05 0.648D-05-0.752D-05-0.658D-06 0.205D-04 0.950D-04
 Coeff:     -0.957D-04 0.138D-02 0.135D-02-0.284D-02-0.169D-01-0.839D-04
 Coeff:      0.809D-01 0.268D+00 0.668D+00
 Gap=     0.031 Goal=   None    Shift=    0.000
 RMSDP=4.99D-06 MaxDP=5.83D-04 DE=-1.16D-08 OVMax= 7.72D-05

 Cycle  16  Pass 1  IDiag  1:
 RMSU=  7.81D-07    CP:  1.21D+00  9.80D-01 -2.36D-01 -3.45D-02  1.55D+00
                    CP:  1.62D+00  2.19D+00  2.31D+00  2.27D+00  3.00D+00
                    CP:  1.85D+00  2.15D+00  1.90D+00  9.91D-01  1.30D+00
 E= -915.833937097211     Delta-E=       -0.000000001719 Rises=F Damp=F
 DIIS: error= 2.05D-07 at cycle  16 NSaved=  16.
 NSaved=16 IEnMin=16 EnMin= -915.833937097211     IErMin=16 ErrMin= 2.05D-07
 ErrMax= 2.05D-07  0.00D+00 EMaxC= 1.00D-01 BMatC= 6.66D-11 BMatP= 1.41D-09
 IDIUse=1 WtCom= 1.00D+00 WtEn= 0.00D+00
 Coeff-Com: -0.282D-05 0.679D-05-0.270D-05-0.757D-06 0.106D-04 0.241D-04
 Coeff-Com: -0.688D-04 0.273D-03 0.563D-03 0.861D-03-0.275D-02-0.614D-02
 Coeff-Com:  0.321D-02 0.691D-01 0.244D+00 0.691D+00
 Coeff:     -0.282D-05 0.679D-05-0.270D-05-0.757D-06 0.106D-04 0.241D-04
 Coeff:     -0.688D-04 0.273D-03 0.563D-03 0.861D-03-0.275D-02-0.614D-02
 Coeff:      0.321D-02 0.691D-01 0.244D+00 0.691D+00
 Gap=     0.031 Goal=   None    Shift=    0.000
 RMSDP=1.72D-06 MaxDP=2.35D-04 DE=-1.72D-09 OVMax= 2.21D-05

 Cycle  17  Pass 1  IDiag  1:
 RMSU=  1.49D-07    CP:  1.21D+00  9.80D-01 -2.36D-01 -3.45D-02  1.55D+00
                    CP:  1.62D+00  2.19D+00  2.31D+00  2.27D+00  3.00D+00
                    CP:  1.85D+00  2.16D+00  1.90D+00  9.77D-01  1.45D+00
                    CP:  1.30D+00
 E= -915.833937097301     Delta-E=       -0.000000000090 Rises=F Damp=F
 DIIS: error= 1.48D-07 at cycle  17 NSaved=  17.
 NSaved=17 IEnMin=17 EnMin= -915.833937097301     IErMin=17 ErrMin= 1.48D-07
 ErrMax= 1.48D-07  0.00D+00 EMaxC= 1.00D-01 BMatC= 2.64D-11 BMatP= 6.66D-11
 IDIUse=1 WtCom= 1.00D+00 WtEn= 0.00D+00
 Coeff-Com: -0.348D-07 0.460D-06-0.218D-05 0.519D-07 0.131D-05 0.260D-05
 Coeff-Com:  0.458D-06-0.130D-03 0.408D-04 0.821D-03 0.734D-03-0.408D-02
 Coeff-Com: -0.108D-01-0.789D-02 0.373D-02 0.396D+00 0.622D+00
 Coeff:     -0.348D-07 0.460D-06-0.218D-05 0.519D-07 0.131D-05 0.260D-05
 Coeff:      0.458D-06-0.130D-03 0.408D-04 0.821D-03 0.734D-03-0.408D-02
 Coeff:     -0.108D-01-0.789D-02 0.373D-02 0.396D+00 0.622D+00
 Gap=     0.031 Goal=   None    Shift=    0.000
 RMSDP=6.22D-07 MaxDP=6.90D-05 DE=-9.03D-11 OVMax= 6.24D-06

 Cycle  18  Pass 1  IDiag  1:
 RMSU=  7.10D-08    CP:  1.21D+00  9.80D-01 -2.36D-01 -3.45D-02  1.55D+00
                    CP:  1.62D+00  2.19D+00  2.31D+00  2.27D+00  3.00D+00
                    CP:  1.85D+00  2.17D+00  1.91D+00  9.81D-01  1.53D+00
                    CP:  1.45D+00  1.45D+00
 E= -915.833937097330     Delta-E=       -0.000000000029 Rises=F Damp=F
 DIIS: error= 4.31D-08 at cycle  18 NSaved=  18.
 NSaved=18 IEnMin=18 EnMin= -915.833937097330     IErMin=18 ErrMin= 4.31D-08
 ErrMax= 4.31D-08  0.00D+00 EMaxC= 1.00D-01 BMatC= 2.49D-12 BMatP= 2.64D-11
 IDIUse=1 WtCom= 1.00D+00 WtEn= 0.00D+00
 Coeff-Com:  0.671D-07-0.590D-06-0.322D-07 0.365D-07-0.324D-06 0.110D-05
 Coeff-Com:  0.132D-04-0.776D-04-0.570D-04 0.190D-03 0.596D-03-0.487D-03
 Coeff-Com: -0.283D-02-0.972D-02-0.278D-01 0.326D-01 0.174D+00 0.834D+00
 Coeff:      0.671D-07-0.590D-06-0.322D-07 0.365D-07-0.324D-06 0.110D-05
 Coeff:      0.132D-04-0.776D-04-0.570D-04 0.190D-03 0.596D-03-0.487D-03
 Coeff:     -0.283D-02-0.972D-02-0.278D-01 0.326D-01 0.174D+00 0.834D+00
 Gap=     0.031 Goal=   None    Shift=    0.000
 RMSDP=3.00D-07 MaxDP=4.04D-05 DE=-2.86D-11 OVMax= 3.53D-06

 Cycle  19  Pass 1  IDiag  1:
 RMSU=  2.08D-08    CP:  1.21D+00  9.80D-01 -2.36D-01 -3.45D-02  1.55D+00
                    CP:  1.62D+00  2.19D+00  2.31D+00  2.27D+00  3.00D+00
                    CP:  1.85D+00  2.17D+00  1.91D+00  9.78D-01  1.56D+00
                    CP:  1.52D+00  1.83D+00  1.48D+00
 E= -915.833937097336     Delta-E=       -0.000000000006 Rises=F Damp=F
 DIIS: error= 1.21D-08 at cycle  19 NSaved=  19.
 NSaved=19 IEnMin=19 EnMin= -915.833937097336     IErMin=19 ErrMin= 1.21D-08
 ErrMax= 1.21D-08  0.00D+00 EMaxC= 1.00D-01 BMatC= 2.75D-13 BMatP= 2.49D-12
 IDIUse=1 WtCom= 1.00D+00 WtEn= 0.00D+00
 Coeff-Com: -0.894D-08-0.264D-06 0.210D-06 0.197D-07-0.415D-06 0.106D-05
 Coeff-Com:  0.884D-05-0.234D-04-0.333D-04-0.155D-04 0.171D-03 0.285D-03
 Coeff-Com:  0.202D-03-0.329D-02-0.124D-01-0.334D-01 0.430D-02 0.362D+00
 Coeff-Com:  0.682D+00
 Coeff:     -0.894D-08-0.264D-06 0.210D-06 0.197D-07-0.415D-06 0.106D-05
 Coeff:      0.884D-05-0.234D-04-0.333D-04-0.155D-04 0.171D-03 0.285D-03
 Coeff:      0.202D-03-0.329D-02-0.124D-01-0.334D-01 0.430D-02 0.362D+00
 Coeff:      0.682D+00
 Gap=     0.031 Goal=   None    Shift=    0.000
 RMSDP=1.21D-07 MaxDP=1.57D-05 DE=-5.68D-12 OVMax= 1.15D-06

 Cycle  20  Pass 1  IDiag  1:
 RMSU=  5.41D-09    CP:  1.21D+00  9.80D-01 -2.36D-01 -3.45D-02  1.55D+00
                    CP:  1.62D+00  2.19D+00  2.31D+00  2.27D+00  3.00D+00
                    CP:  1.85D+00  2.17D+00  1.91D+00  9.78D-01  1.57D+00
                    CP:  1.54D+00  2.01D+00  1.71D+00  1.51D+00
 E= -915.833937097343     Delta-E=       -0.000000000008 Rises=F Damp=F
 DIIS: error= 1.00D-08 at cycle  20 NSaved=  20.
 NSaved=20 IEnMin=20 EnMin= -915.833937097343     IErMin=20 ErrMin= 1.00D-08
 ErrMax= 1.00D-08  0.00D+00 EMaxC= 1.00D-01 BMatC= 6.64D-14 BMatP= 2.75D-13
 IDIUse=1 WtCom= 1.00D+00 WtEn= 0.00D+00
 Coeff-Com:  0.330D-07-0.718D-07 0.543D-07 0.426D-08-0.121D-06 0.539D-06
 Coeff-Com:  0.139D-05 0.339D-05-0.302D-05-0.499D-04-0.812D-04 0.232D-03
 Coeff-Com:  0.786D-03 0.732D-03 0.105D-02-0.242D-01-0.431D-01-0.392D-01
 Coeff-Com:  0.386D+00 0.718D+00
 Coeff:      0.330D-07-0.718D-07 0.543D-07 0.426D-08-0.121D-06 0.539D-06
 Coeff:      0.139D-05 0.339D-05-0.302D-05-0.499D-04-0.812D-04 0.232D-03
 Coeff:      0.786D-03 0.732D-03 0.105D-02-0.242D-01-0.431D-01-0.392D-01
 Coeff:      0.386D+00 0.718D+00
 Gap=     0.031 Goal=   None    Shift=    0.000
 RMSDP=7.80D-08 MaxDP=9.05D-06 DE=-7.50D-12 OVMax= 6.00D-07

 Cycle  21  Pass 1  IDiag  1:
 Restarting incremental Fock formation.
 E= -915.833937097346     Delta-E=       -0.000000000003 Rises=F Damp=F
 DIIS: error= 1.22D-09 at cycle  21 NSaved=  20.
 NSaved=20 IEnMin=20 EnMin= -915.833937097346     IErMin=20 ErrMin= 1.22D-09
 ErrMax= 1.22D-09  0.00D+00 EMaxC= 1.00D-01 BMatC= 1.97D-15 BMatP= 6.64D-14
 IDIUse=1 WtCom= 1.00D+00 WtEn= 0.00D+00
 Large coefficients: NSaved= 20 BigCof=    0.00 CofMax=   10.00 Det=-8.77D-15
 Inversion failed.  Reducing to 19 matrices.
 Coeff-Com:  0.333D-07-0.101D-07-0.829D-08 0.121D-06-0.343D-07 0.272D-05
 Coeff-Com:  0.245D-05-0.108D-04-0.384D-04 0.327D-04 0.163D-03 0.449D-03
 Coeff-Com:  0.155D-02-0.230D-02-0.115D-01-0.391D-01 0.329D-01 0.156D+00
 Coeff-Com:  0.862D+00
 Coeff:      0.333D-07-0.101D-07-0.829D-08 0.121D-06-0.343D-07 0.272D-05
 Coeff:      0.245D-05-0.108D-04-0.384D-04 0.327D-04 0.163D-03 0.449D-03
 Coeff:      0.155D-02-0.230D-02-0.115D-01-0.391D-01 0.329D-01 0.156D+00
 Coeff:      0.862D+00
 Gap=     0.031 Goal=   None    Shift=    0.000
 RMSDP=3.09D-08 MaxDP=3.64D-06 DE=-2.73D-12 OVMax= 1.91D-07

 Cycle  22  Pass 1  IDiag  1:
 RMSU=  1.88D-08    CP:  1.00D+00
 E= -915.833937097345     Delta-E=        0.000000000001 Rises=F Damp=F
 DIIS: error= 5.13D-10 at cycle  22 NSaved=  20.
 NSaved=20 IEnMin=19 EnMin= -915.833937097346     IErMin=20 ErrMin= 5.13D-10
 ErrMax= 5.13D-10  0.00D+00 EMaxC= 1.00D-01 BMatC= 4.24D-16 BMatP= 1.97D-15
 IDIUse=1 WtCom= 1.00D+00 WtEn= 0.00D+00
 Large coefficients: NSaved= 20 BigCof=    0.00 CofMax=   10.00 Det=-1.18D-15
 Inversion failed.  Reducing to 19 matrices.
 Large coefficients: NSaved= 19 BigCof=    0.00 CofMax=   10.00 Det=-1.23D-15
 Inversion failed.  Reducing to 18 matrices.
 Large coefficients: NSaved= 18 BigCof=    0.00 CofMax=   10.00 Det=-1.23D-15
 Inversion failed.  Reducing to 17 matrices.
 Large coefficients: NSaved= 17 BigCof=    0.00 CofMax=   10.00 Det=-1.25D-15
 Inversion failed.  Reducing to 16 matrices.
 Large coefficients: NSaved= 16 BigCof=    0.00 CofMax=   10.00 Det=-1.54D-15
 Inversion failed.  Reducing to 15 matrices.
 Coeff-Com:  0.528D-06 0.264D-06-0.147D-05-0.429D-05 0.106D-04 0.238D-04
 Coeff-Com:  0.551D-04 0.310D-03-0.754D-04-0.200D-02-0.757D-02-0.815D-02
 Coeff-Com:  0.601D-02 0.251D+00 0.761D+00
 Coeff:      0.528D-06 0.264D-06-0.147D-05-0.429D-05 0.106D-04 0.238D-04
 Coeff:      0.551D-04 0.310D-03-0.754D-04-0.200D-02-0.757D-02-0.815D-02
 Coeff:      0.601D-02 0.251D+00 0.761D+00
 Gap=     0.031 Goal=   None    Shift=    0.000
 RMSDP=1.02D-08 MaxDP=1.20D-06 DE= 1.36D-12 OVMax= 6.41D-08

 Cycle  23  Pass 1  IDiag  1:
 RMSU=  2.24D-09    CP:  1.00D+00  1.26D+00
 E= -915.833937097341     Delta-E=        0.000000000004 Rises=F Damp=F
 DIIS: error= 3.58D-10 at cycle  23 NSaved=  16.
 NSaved=16 IEnMin=14 EnMin= -915.833937097346     IErMin=16 ErrMin= 3.58D-10
 ErrMax= 3.58D-10  0.00D+00 EMaxC= 1.00D-01 BMatC= 1.12D-16 BMatP= 4.24D-16
 IDIUse=1 WtCom= 1.00D+00 WtEn= 0.00D+00
 Large coefficients: NSaved= 16 BigCof=    0.00 CofMax=   10.00 Det=-4.79D-16
 Inversion failed.  Reducing to 15 matrices.
 Coeff-Com: -0.930D-07 0.287D-06 0.173D-05 0.229D-05-0.232D-05-0.153D-04
 Coeff-Com:  0.147D-04 0.298D-03 0.342D-03 0.354D-03-0.940D-02-0.197D-01
 Coeff-Com:  0.744D-02 0.385D+00 0.635D+00
 Coeff:     -0.930D-07 0.287D-06 0.173D-05 0.229D-05-0.232D-05-0.153D-04
 Coeff:      0.147D-04 0.298D-03 0.342D-03 0.354D-03-0.940D-02-0.197D-01
 Coeff:      0.744D-02 0.385D+00 0.635D+00
 Gap=     0.031 Goal=   None    Shift=    0.000
 RMSDP=5.34D-09 MaxDP=6.43D-07 DE= 3.64D-12 OVMax= 2.72D-08

 Error on total polarization charges =  0.04994
 SCF Done:  E(RB3LYP) =  -915.833937097     A.U. after   23 cycles
            NFock= 23  Conv=0.53D-08     -V/T= 2.0017
 KE= 9.142587019197D+02 PE=-4.317017996947D+03 EE= 1.408942967160D+03
 Leave Link  502 at Mon Mar 18 17:56:59 2024, MaxMem= 13421772800 cpu:             925.0 elap:              33.8
 (Enter /gpfs/software/gaussian/g16/l601.exe)
 Copying SCF densities to generalized density rwf, IOpCl= 0 IROHF=0.

 **********************************************************************

            Population analysis using the SCF Density.

 **********************************************************************

 Orbital symmetries:
       Occupied  (A) (A) (A) (A) (A) (A) (A) (A) (A) (A) (A) (A)
                 (A) (A) (A) (A) (A) (A) (A) (A) (A) (A) (A) (A)
                 (A) (A) (A) (A) (A) (A) (A) (A) (A) (A) (A) (A)
                 (A) (A) (A) (A) (A) (A) (A) (A) (A) (A) (A) (A)
                 (A) (A) (A) (A) (A) (A) (A) (A) (A) (A) (A) (A)
       Virtual   (A) (A) (A) (A) (A) (A) (A) (A) (A) (A) (A) (A)
                 (A) (A) (A) (A) (A) (A) (A) (A) (A) (A) (A) (A)
                 (A) (A) (A) (A) (A) (A) (A) (A) (A) (A) (A) (A)
                 (A) (A) (A) (A) (A) (A) (A) (A) (A) (A) (A) (A)
                 (A) (A) (A) (A) (A) (A) (A) (A) (A) (A) (A) (A)
                 (A) (A) (A) (A) (A) (A) (A) (A) (A) (A) (A) (A)
                 (A) (A) (A) (A) (A) (A) (A) (A) (A) (A) (A) (A)
                 (A) (A) (A) (A) (A) (A) (A) (A) (A) (A) (A) (A)
                 (A) (A) (A) (A) (A) (A) (A) (A) (A) (A) (A) (A)
                 (A) (A) (A) (A) (A) (A) (A) (A) (A) (A) (A) (A)
                 (A) (A) (A) (A) (A) (A) (A) (A) (A) (A) (A) (A)
                 (A) (A) (A) (A) (A) (A) (A) (A) (A) (A) (A) (A)
                 (A) (A) (A) (A) (A) (A) (A) (A) (A) (A) (A) (A)
                 (A) (A) (A) (A) (A) (A) (A) (A) (A) (A) (A) (A)
                 (A) (A) (A) (A) (A) (A) (A) (A) (A) (A) (A) (A)
                 (A) (A) (A) (A) (A) (A) (A) (A) (A) (A) (A) (A)
                 (A) (A) (A) (A) (A) (A) (A) (A) (A) (A) (A) (A)
                 (A) (A) (A) (A) (A) (A) (A) (A) (A) (A) (A) (A)
 The electronic state is 1-A.
 Alpha  occ. eigenvalues --  -19.32655 -19.31526 -19.19815 -19.18510 -19.16807
 Alpha  occ. eigenvalues --  -19.15877 -19.15005 -19.13930 -19.13856 -19.13507
 Alpha  occ. eigenvalues --  -19.13333 -19.13319  -1.53855  -1.13499  -1.11047
 Alpha  occ. eigenvalues --   -1.09293  -1.03171  -1.02867  -1.02549  -1.02128
 Alpha  occ. eigenvalues --   -1.00852  -0.99525  -0.98399  -0.98297  -0.83816
 Alpha  occ. eigenvalues --   -0.79854  -0.67541  -0.66233  -0.63820  -0.61181
 Alpha  occ. eigenvalues --   -0.60430  -0.58964  -0.55945  -0.54865  -0.54524
 Alpha  occ. eigenvalues --   -0.52270  -0.51420  -0.49351  -0.48258  -0.48149
 Alpha  occ. eigenvalues --   -0.44167  -0.41447  -0.41151  -0.39902  -0.39816
 Alpha  occ. eigenvalues --   -0.38481  -0.37767  -0.37231  -0.36117  -0.34847
 Alpha  occ. eigenvalues --   -0.34654  -0.34274  -0.33823  -0.32346  -0.30856
 Alpha  occ. eigenvalues --   -0.29472  -0.24547  -0.23289  -0.22992  -0.05569
 Alpha virt. eigenvalues --   -0.02471   0.00113   0.02740   0.03712   0.05003
 Alpha virt. eigenvalues --    0.05092   0.07203   0.07307   0.08585   0.09151
 Alpha virt. eigenvalues --    0.09370   0.09705   0.10843   0.11448   0.12464
 Alpha virt. eigenvalues --    0.12831   0.13373   0.13666   0.14232   0.14760
 Alpha virt. eigenvalues --    0.15004   0.16221   0.16664   0.17245   0.17629
 Alpha virt. eigenvalues --    0.17981   0.18310   0.18615   0.19064   0.20119
 Alpha virt. eigenvalues --    0.20289   0.20860   0.21417   0.22848   0.23124
 Alpha virt. eigenvalues --    0.23966   0.24381   0.24738   0.25317   0.26163
 Alpha virt. eigenvalues --    0.27127   0.27835   0.28478   0.29151   0.29832
 Alpha virt. eigenvalues --    0.30573   0.30959   0.31371   0.32610   0.33303
 Alpha virt. eigenvalues --    0.33763   0.34410   0.35438   0.35871   0.36474
 Alpha virt. eigenvalues --    0.37586   0.38152   0.38692   0.40216   0.40827
 Alpha virt. eigenvalues --    0.41935   0.42779   0.43901   0.44296   0.45032
 Alpha virt. eigenvalues --    0.45983   0.46820   0.49915   0.53995   0.54513
 Alpha virt. eigenvalues --    0.56331   0.59049   0.83484   0.87346   0.91457
 Alpha virt. eigenvalues --    0.93038   0.93468   0.95726   0.95960   0.97279
 Alpha virt. eigenvalues --    0.97799   0.98530   0.98999   0.99947   1.01218
 Alpha virt. eigenvalues --    1.02004   1.02651   1.04149   1.05059   1.05240
 Alpha virt. eigenvalues --    1.06264   1.06690   1.07499   1.08022   1.08682
 Alpha virt. eigenvalues --    1.09084   1.10472   1.10717   1.11039   1.11710
 Alpha virt. eigenvalues --    1.12133   1.13629   1.13985   1.14792   1.15479
 Alpha virt. eigenvalues --    1.16065   1.16538   1.16837   1.17171   1.18875
 Alpha virt. eigenvalues --    1.20014   1.20826   1.21805   1.21989   1.23236
 Alpha virt. eigenvalues --    1.25397   1.25956   1.26435   1.27549   1.29128
 Alpha virt. eigenvalues --    1.30049   1.31937   1.34138   1.35266   1.36012
 Alpha virt. eigenvalues --    1.38588   1.39468   1.40405   1.41983   1.45312
 Alpha virt. eigenvalues --    1.46718   1.49110   1.52648   1.56548   1.56912
 Alpha virt. eigenvalues --    1.57498   1.59153   1.60650   1.63185   1.63286
 Alpha virt. eigenvalues --    1.65186   1.65833   1.68609   1.69241   1.69916
 Alpha virt. eigenvalues --    1.70950   1.72945   1.73353   1.73391   1.74163
 Alpha virt. eigenvalues --    1.75591   1.76036   1.76650   1.77861   1.78792
 Alpha virt. eigenvalues --    1.79409   1.80414   1.81141   1.82284   1.82898
 Alpha virt. eigenvalues --    1.84628   1.87082   1.87812   1.89261   1.89614
 Alpha virt. eigenvalues --    1.90843   1.92674   1.94005   1.94933   1.99291
 Alpha virt. eigenvalues --    2.02845   2.08054   2.12384   2.15002   2.19858
[...]
 Center     Atomic      Atomic             Coordinates (Angstroms)
 Number     Number       Type             X           Y           Z
 ---------------------------------------------------------------------
      1          8           0        2.765983   -0.574024    1.138073
      2          1           0        2.813926    0.392954    1.049387
      3          1           0        1.856926   -0.789986    1.416940
      4          8           0       -0.516677   -0.849930    1.415690
      5          1           0       -0.347709   -0.010873    0.916092
      6          1           0       -1.499762   -0.874757    1.415173
      7          8           0       -0.857638    1.551841   -0.027937
      8          1           0       -0.541443    1.549891   -0.942942
      9          1           0       -1.822079    1.319117   -0.075313
     10          8           0       -5.214613    0.095496   -2.214191
     11          1           0       -4.946670    0.359364   -3.109797
     12          1           0       -5.763941   -0.697458   -2.335463
     13          8           0       -3.207886   -1.552189    2.085361
     14          1           0       -3.554034   -0.887341    1.455592
     15          1           0       -3.473317   -2.411598    1.730160
     16          8           0       -3.537242    0.486583    0.137010
     17          1           0       -3.799206    0.081933   -0.712725
     18          1           0       -4.275644    1.120830    0.291882
     19          8           0        3.005931    2.312057    0.833194
     20          1           0        2.398084    2.643896    0.150852
     21          1           0        2.767977    2.783262    1.648571
     22          8           0        0.047223   -2.982332   -0.261666
     23          1           0       -0.177618   -2.251177    0.365956
     24          1           0        0.066298   -3.789770    0.276226
     25          8           0        5.606913   -0.380382   -1.518339
     26          1           0        5.689054    0.457957   -1.010174
     27          1           0        6.463268   -0.494029   -1.957811
     28          8           0        2.653905   -2.435390   -1.156534
     29          1           0        2.987425   -1.745125   -0.553207
     30          1           0        1.724856   -2.577446   -0.871585
     31          8           0        5.728622    1.990137   -0.001059
     32          1           0        4.794840    2.113352    0.276975
     33          1           0        5.947286    2.775621   -0.526250
     34          8           0       -5.897091    1.909892   -0.130865
     35          1           0       -5.940458    1.491786   -1.015602
     36          1           0       -5.987496    2.865535   -0.272838
 ---------------------------------------------------------------------
 Rotational constants (GHZ):           0.5398752           0.1463383           0.1340644
 Leave Link  202 at Mon Mar 18 18:27:33 2024, MaxMem= 13421772800 cpu:               0.4 elap:               0.0
 (Enter /gpfs/software/gaussian/g16/l301.exe)
 Standard basis: 6-31+G(d) (6D, 7F)
 Ernie: Thresh=  0.10000D-02 Tol=  0.10000D-05 Strict=F.
 There are   276 symmetry adapted cartesian basis functions of A   symmetry.
 There are   276 symmetry adapted basis functions of A   symmetry.
   276 basis functions,   480 primitive gaussians,   276 cartesian basis functions
    60 alpha electrons       60 beta electrons
       nuclear repulsion energy       825.7845589783 Hartrees.
 IExCor=  402 DFT=T Ex+Corr=B3LYP ExCW=0 ScaHFX=  0.200000
 ScaDFX=  0.800000  0.720000  1.000000  0.810000 ScalE2=  1.000000  1.000000
 IRadAn=      5 IRanWt=     -1 IRanGd=            0 ICorTp=0 IEmpDi=  4
 NAtoms=   36 NActive=   36 NUniq=   36 SFac= 1.00D+00 NAtFMM=   60 NAOKFM=F Big=F
 Integral buffers will be    131072 words long.
 Raffenetti 2 integral format.
 Two-electron integral symmetry is turned on.
 ------------------------------------------------------------------------------
 Polarizable Continuum Model (PCM)
 =================================
 Model                : PCM.
 Atomic radii         : UFF (Universal Force Field).
 Polarization charges : Total charges.
 Charge compensation  : None.
 Solution method      : On-the-fly selection.
 Cavity type          : Scaled VdW (van der Waals Surface) (Alpha=1.100).
 Cavity algorithm     : GePol (No added spheres)
                        Default sphere list used, NSphG=   36.
                        Lebedev-Laikov grids with approx.  5.0 points / Ang**2.
                        Smoothing algorithm: York/Karplus (Gamma=1.0000).
                        Polarization charges: spherical gaussians, with
                                              point-specific exponents (IZeta= 3).
                        Self-potential: point-specific (ISelfS= 7).
                        Self-field    : sphere-specific E.n sum rule (ISelfD= 2).
 1st derivatives      : Analytical E(r).r(x)/FMM algorithm (CHGder, D1EAlg=3).
                        Cavity 1st derivative terms included.
 Solvent              : TetraHydroFuran, Eps=   7.425700 Eps(inf)=   1.974025
 ------------------------------------------------------------------------------
 GePol: Number of generator spheres                  =      36
 GePol: Total number of spheres                      =      36
 GePol: Number of exposed spheres                    =      36 (100.00%)
 GePol: Number of points                             =    3433
 GePol: Average weight of points                     =       0.12
 GePol: Minimum weight of points                     =   0.15D-10
 GePol: Maximum weight of points                     =    0.20212
 GePol: Number of points with low weight             =     196
 GePol: Fraction of low-weight points (<1% of avg)   =       5.71%
 GePol: Cavity surface area                          =    421.042 Ang**2
 GePol: Cavity volume                                =    369.750 Ang**3
 Leave Link  301 at Mon Mar 18 18:27:33 2024, MaxMem= 13421772800 cpu:               2.2 elap:               0.1
 (Enter /gpfs/software/gaussian/g16/l302.exe)
 NPDir=0 NMtPBC=     1 NCelOv=     1 NCel=       1 NClECP=     1 NCelD=      1
         NCelK=      1 NCelE2=     1 NClLst=     1 CellRange=     0.0.
 One-electron integrals computed using PRISM.
 One-electron integral symmetry used in STVInt
 NBasis=   276 RedAO= T EigKep=  3.70D-03  NBF=   276
 NBsUse=   276 1.00D-06 EigRej= -1.00D+00 NBFU=   276
 Precomputing XC quadrature grid using
 IXCGrd= 4 IRadAn=           5 IRanWt=          -1 IRanGd=           0 AccXCQ= 0.00D+00.
 Generated NRdTot=       0 NPtTot=           0 NUsed=           0 NTot=          32
 NSgBfM=   272   272   272   272   272 MxSgAt=    36 MxSgA2=    36.
 Leave Link  302 at Mon Mar 18 18:27:33 2024, MaxMem= 13421772800 cpu:               9.8 elap:               0.4
 (Enter /gpfs/software/gaussian/g16/l303.exe)
 DipDrv:  MaxL=1.
 Leave Link  303 at Mon Mar 18 18:27:33 2024, MaxMem= 13421772800 cpu:               1.0 elap:               0.1
 (Enter /gpfs/software/gaussian/g16/l401.exe)
 Lowest energy guess from the checkpoint file:  "Optimization.chk"
 B after Tr=     0.000000    0.000000   -0.000000
         Rot=    0.999986   -0.004487   -0.001071    0.002566 Ang=  -0.60 deg.
 Guess basis will be translated and rotated to current coordinates.
 B after Tr=     0.000000    0.000000   -0.000000
         Rot=    1.000000   -0.000272    0.000025    0.000002 Ang=  -0.03 deg.
 Guess basis will be translated and rotated to current coordinates.
 CkInt1:  FT= 1.40D-01
 Max alpha theta=  0.483 degrees.
 JPrj=2 DoOrth=T DoCkMO=T.
 Leave Link  401 at Mon Mar 18 18:27:34 2024, MaxMem= 13421772800 cpu:               6.8 elap:               0.3
 (Enter /gpfs/software/gaussian/g16/l502.exe)
 Integral symmetry usage will be decided dynamically.
 Closed shell SCF:
 Using DIIS extrapolation, IDIIS=  1040.
 NGot= 13421772800 LenX= 13421608498 LenY= 13421531881
 Requested convergence on RMS density matrix=1.00D-08 within 128 cycles.
 Requested convergence on MAX density matrix=1.00D-06.
 Requested convergence on             energy=1.00D-06.
 No special actions if energy rises.
 Fock matrices will be formed incrementally for  20 cycles.

 Cycle   1  Pass 1  IDiag  1:
 FoFJK:  IHMeth= 1 ICntrl=       0 DoSepK=F KAlg= 0 I1Cent=           0 FoldK=F
 IRaf= 750000000 NMat=       1 IRICut=       1 DoRegI=T DoRafI=F ISym2E= 0 IDoP0=0 IntGTp=1.
 FoFCou: FMM=F IPFlag=           0 FMFlag=      100000 FMFlg1=           0
         NFxFlg=           0 DoJE=F BraDBF=F KetDBF=F FulRan=T
         wScrn=  0.000000 ICntrl=         0 IOpCl=  0 I1Cent=           0 NGrid=           0
         NMat0=    1 NMatS0=      1 NMatT0=    0 NMatD0=    1 NMtDS0=    0 NMtDT0=    0
 Symmetry not used in FoFCou.
 Inv3:  Mode=1 IEnd=    35356467.
 Iteration    1 A*A^-1 deviation from unit magnitude is 3.89D-15 for   2937.
 Iteration    1 A*A^-1 deviation from orthogonality  is 2.66D-15 for   3166    677.
 Iteration    1 A^-1*A deviation from unit magnitude is 3.22D-15 for   2263.
 Iteration    1 A^-1*A deviation from orthogonality  is 1.13D-14 for   2608   2538.
 E= -917.243512681566    
 DIIS: error= 8.47D-04 at cycle   1 NSaved=   1.
 NSaved= 1 IEnMin= 1 EnMin= -917.243512681566     IErMin= 1 ErrMin= 8.47D-04
 ErrMax= 8.47D-04  0.00D+00 EMaxC= 1.00D-01 BMatC= 3.98D-04 BMatP= 3.98D-04
 IDIUse=3 WtCom= 9.92D-01 WtEn= 8.47D-03
 Coeff-Com:  0.100D+01
 Coeff-En:   0.100D+01
 Coeff:      0.100D+01
 Gap=    19.725 Goal=   None    Shift=    0.000
 RMSDP=1.42D-04 MaxDP=3.97D-03              OVMax= 5.81D-03

 Cycle   2  Pass 1  IDiag  1:
 RMSU=  1.42D-04    CP:  1.00D+00
 E= -917.244111005368     Delta-E=       -0.000598323801 Rises=F Damp=F
 DIIS: error= 1.29D-04 at cycle   2 NSaved=   2.
 NSaved= 2 IEnMin= 2 EnMin= -917.244111005368     IErMin= 2 ErrMin= 1.29D-04
 ErrMax= 1.29D-04  0.00D+00 EMaxC= 1.00D-01 BMatC= 1.64D-05 BMatP= 3.98D-04
 IDIUse=3 WtCom= 9.99D-01 WtEn= 1.29D-03
 Coeff-Com:  0.173D-01 0.983D+00
 Coeff-En:   0.000D+00 0.100D+01
 Coeff:      0.173D-01 0.983D+00
 Gap=     0.268 Goal=   None    Shift=    0.000
 RMSDP=2.51D-05 MaxDP=1.33D-03 DE=-5.98D-04 OVMax= 1.43D-03

 Cycle   3  Pass 1  IDiag  1:
 RMSU=  2.38D-05    CP:  1.00D+00  1.06D+00
 E= -917.244105743608     Delta-E=        0.000005261759 Rises=F Damp=F
 DIIS: error= 2.11D-04 at cycle   3 NSaved=   3.
 NSaved= 3 IEnMin= 2 EnMin= -917.244111005368     IErMin= 2 ErrMin= 1.29D-04
 ErrMax= 2.11D-04  0.00D+00 EMaxC= 1.00D-01 BMatC= 2.93D-05 BMatP= 1.64D-05
 IDIUse=3 WtCom= 4.08D-01 WtEn= 5.92D-01
 Coeff-Com: -0.292D-01 0.592D+00 0.438D+00
 Coeff-En:   0.000D+00 0.575D+00 0.425D+00
 Coeff:     -0.119D-01 0.582D+00 0.430D+00
 Gap=     0.268 Goal=   None    Shift=    0.000
 RMSDP=1.23D-05 MaxDP=8.79D-04 DE= 5.26D-06 OVMax= 9.90D-04

 Cycle   4  Pass 1  IDiag  1:
 RMSU=  7.38D-06    CP:  1.00D+00  1.07D+00  5.92D-01
 E= -917.244126510772     Delta-E=       -0.000020767164 Rises=F Damp=F
 DIIS: error= 1.75D-05 at cycle   4 NSaved=   4.
 NSaved= 4 IEnMin= 4 EnMin= -917.244126510772     IErMin= 4 ErrMin= 1.75D-05
 ErrMax= 1.75D-05  0.00D+00 EMaxC= 1.00D-01 BMatC= 3.09D-07 BMatP= 1.64D-05
 IDIUse=1 WtCom= 1.00D+00 WtEn= 0.00D+00
 Coeff-Com: -0.126D-01 0.135D+00 0.149D+00 0.729D+00
 Coeff:     -0.126D-01 0.135D+00 0.149D+00 0.729D+00
 Gap=     0.269 Goal=   None    Shift=    0.000
 RMSDP=1.90D-06 MaxDP=6.57D-05 DE=-2.08D-05 OVMax= 8.32D-05

 Cycle   5  Pass 1  IDiag  1:
 RMSU=  1.62D-06    CP:  1.00D+00  1.07D+00  6.24D-01  9.64D-01
 E= -917.244126737204     Delta-E=       -0.000000226432 Rises=F Damp=F
 DIIS: error= 4.84D-06 at cycle   5 NSaved=   5.
 NSaved= 5 IEnMin= 5 EnMin= -917.244126737204     IErMin= 5 ErrMin= 4.84D-06
 ErrMax= 4.84D-06  0.00D+00 EMaxC= 1.00D-01 BMatC= 1.89D-08 BMatP= 3.09D-07
 IDIUse=1 WtCom= 1.00D+00 WtEn= 0.00D+00
 Coeff-Com: -0.401D-02 0.350D-01 0.444D-01 0.284D+00 0.641D+00
 Coeff:     -0.401D-02 0.350D-01 0.444D-01 0.284D+00 0.641D+00
 Gap=     0.268 Goal=   None    Shift=    0.000
 RMSDP=4.89D-07 MaxDP=2.65D-05 DE=-2.26D-07 OVMax= 3.23D-05

 Cycle   6  Pass 1  IDiag  1:
 RMSU=  4.31D-07    CP:  1.00D+00  1.07D+00  6.26D-01  9.88D-01  9.28D-01
 E= -917.244126746236     Delta-E=       -0.000000009032 Rises=F Damp=F
 DIIS: error= 3.35D-06 at cycle   6 NSaved=   6.
 NSaved= 6 IEnMin= 6 EnMin= -917.244126746236     IErMin= 6 ErrMin= 3.35D-06
 ErrMax= 3.35D-06  0.00D+00 EMaxC= 1.00D-01 BMatC= 7.16D-09 BMatP= 1.89D-08
 IDIUse=1 WtCom= 1.00D+00 WtEn= 0.00D+00
 Coeff-Com:  0.283D-03-0.702D-02-0.501D-02 0.139D-01 0.394D+00 0.604D+00
 Coeff:      0.283D-03-0.702D-02-0.501D-02 0.139D-01 0.394D+00 0.604D+00
 Gap=     0.269 Goal=   None    Shift=    0.000
 RMSDP=2.06D-07 MaxDP=1.23D-05 DE=-9.03D-09 OVMax= 1.46D-05

 Cycle   7  Pass 1  IDiag  1:
 RMSU=  7.24D-08    CP:  1.00D+00  1.07D+00  6.28D-01  9.98D-01  9.68D-01
                    CP:  6.36D-01
 E= -917.244126751437     Delta-E=       -0.000000005201 Rises=F Damp=F
 DIIS: error= 1.86D-07 at cycle   7 NSaved=   7.
 NSaved= 7 IEnMin= 7 EnMin= -917.244126751437     IErMin= 7 ErrMin= 1.86D-07
 ErrMax= 1.86D-07  0.00D+00 EMaxC= 1.00D-01 BMatC= 3.06D-11 BMatP= 7.16D-09
 IDIUse=1 WtCom= 1.00D+00 WtEn= 0.00D+00
 Coeff-Com:  0.137D-03-0.276D-02-0.219D-02 0.933D-04 0.117D+00 0.192D+00
 Coeff-Com:  0.696D+00
 Coeff:      0.137D-03-0.276D-02-0.219D-02 0.933D-04 0.117D+00 0.192D+00
 Coeff:      0.696D+00
 Gap=     0.268 Goal=   None    Shift=    0.000
 RMSDP=2.22D-08 MaxDP=9.69D-07 DE=-5.20D-09 OVMax= 1.03D-06

 Cycle   8  Pass 1  IDiag  1:
 RMSU=  1.89D-08    CP:  1.00D+00  1.07D+00  6.28D-01  9.98D-01  9.72D-01
                    CP:  6.46D-01  9.16D-01
 E= -917.244126751459     Delta-E=       -0.000000000023 Rises=F Damp=F
 DIIS: error= 1.48D-07 at cycle   8 NSaved=   8.
 NSaved= 8 IEnMin= 8 EnMin= -917.244126751459     IErMin= 8 ErrMin= 1.48D-07
 ErrMax= 1.48D-07  0.00D+00 EMaxC= 1.00D-01 BMatC= 1.21D-11 BMatP= 3.06D-11
 IDIUse=1 WtCom= 1.00D+00 WtEn= 0.00D+00
 Coeff-Com:  0.544D-04-0.958D-03-0.800D-03-0.141D-02 0.301D-01 0.539D-01
 Coeff-Com:  0.406D+00 0.513D+00
 Coeff:      0.544D-04-0.958D-03-0.800D-03-0.141D-02 0.301D-01 0.539D-01
 Coeff:      0.406D+00 0.513D+00
 Gap=     0.268 Goal=   None    Shift=    0.000
 RMSDP=8.92D-09 MaxDP=4.56D-07 DE=-2.25D-11 OVMax= 4.79D-07

 Error on total polarization charges =  0.01811
 SCF Done:  E(RB3LYP) =  -917.244126751     A.U. after    8 cycles
            NFock=  8  Conv=0.89D-08     -V/T= 2.0094
 KE= 9.086865303825D+02 PE=-3.815614933501D+03 EE= 1.163899717389D+03
 Leave Link  502 at Mon Mar 18 18:27:47 2024, MaxMem= 13421772800 cpu:             340.8 elap:              13.6
 (Enter /gpfs/software/gaussian/g16/l701.exe)
 ... and contract with generalized density number  0.
 Compute integral first derivatives.
 D1PCM: PCM CHGder 1st derivatives, ID1Alg=3 FixD1E=F DoIter=F DoCFld=F I1PDM=0.
 GePol: Maximum number of non-zero 1st derivatives   =     283
 Leave Link  701 at Mon Mar 18 18:27:49 2024, MaxMem= 13421772800 cpu:              38.2 elap:               1.4
 (Enter /gpfs/software/gaussian/g16/l702.exe)
 L702 exits ... SP integral derivatives will be done elsewhere.
 Leave Link  702 at Mon Mar 18 18:27:49 2024, MaxMem= 13421772800 cpu:               0.7 elap:               0.0
 (Enter /gpfs/software/gaussian/g16/l703.exe)
 Integral derivatives from FoFJK, PRISM(SPDF).
 Compute integral first derivatives, UseDBF=F ICtDFT=           0.
 Calling FoFJK, ICntrl=      2127 FMM=F ISym2X=0 I1Cent= 0 IOpClX= 0 NMat=1 NMatS=1 NMatT=0.
 FoFJK:  IHMeth= 1 ICntrl=    2127 DoSepK=F KAlg= 0 I1Cent=           0 FoldK=F
 IRaf=         0 NMat=       1 IRICut=       1 DoRegI=T DoRafI=F ISym2E= 0 IDoP0=0 IntGTp=1.
 FoFCou: FMM=F IPFlag=           0 FMFlag=      100000 FMFlg1=         800
         NFxFlg=           0 DoJE=F BraDBF=F KetDBF=F FulRan=T
         wScrn=  0.000000 ICntrl=      2127 IOpCl=  0 I1Cent=           0 NGrid=           0
         NMat0=    1 NMatS0=      1 NMatT0=    0 NMatD0=    1 NMtDS0=    0 NMtDT0=    0
 Symmetry not used in FoFCou.
 Leave Link  703 at Mon Mar 18 18:27:51 2024, MaxMem= 13421772800 cpu:              57.0 elap:               2.1
 (Enter /gpfs/software/gaussian/g16/l716.exe)
 Dipole        =-5.80638460D+00 4.33053751D+00-2.25574663D+00
 ***** Axes restored to original set *****
 -------------------------------------------------------------------
 Center     Atomic                   Forces (Hartrees/Bohr)
 Number     Number              X              Y              Z
 -------------------------------------------------------------------
      1        8          -0.008197321   -0.002089023    0.003288361
      2        1           0.005639236   -0.001636485   -0.002398924
      3        1           0.002388040    0.002763673   -0.001493498
      4        8           0.014097387    0.000660299    0.005787639
      5        1          -0.004307440   -0.000836636   -0.000579491
      6        1          -0.012610235    0.002347345   -0.006560421
      7        8          -0.002224697   -0.008094666   -0.000701361
      8        1           0.000737306    0.000193469    0.002112958
      9        1           0.000523669    0.006188846   -0.001017581
     10        8          -0.000253168   -0.000303547   -0.000063505
     11        1          -0.000017367    0.000184385    0.000149058
     12        1           0.000306028    0.000297276   -0.000358960
     13        8           0.002519194    0.001809144   -0.001645890
     14        1           0.003664691   -0.002616960    0.001656629
     15        1          -0.002109518   -0.000765675    0.001807821
     16        8          -0.000511186    0.001763936   -0.000711703
     17        1           0.000209847   -0.000319664    0.001603820
     18        1           0.001154336   -0.000185108   -0.000812989
     19        8          -0.001243392   -0.000236485    0.002188333
     20        1          -0.000327937    0.000171133   -0.000823974
     21        1           0.000213841    0.000566182   -0.000252649
     22        8          -0.000065976   -0.002045786   -0.000288654
     23        1           0.000409338    0.000280931   -0.000614954
     24        1           0.000132065    0.000713717    0.000309764
     25        8           0.000880593    0.000381024    0.000299644
     26        1          -0.000508244    0.000573587   -0.000537169
     27        1          -0.000527590    0.000111204    0.000217142
     28        8           0.001661126    0.000902647    0.001908362
     29        1          -0.000202575   -0.000277834   -0.001834729
     30        1          -0.002452054    0.000269929    0.000690732
     31        8          -0.000430857   -0.001735514    0.000572063
     32        1           0.001356275    0.000896843   -0.001836675
     33        1           0.000328360    0.000103872   -0.000030846
     34        8           0.000185339   -0.000416029    0.000042167
     35        1          -0.000103890    0.000227831   -0.000224822
     36        1          -0.000313225    0.000152140    0.000154303
 -------------------------------------------------------------------
 Cartesian Forces:  Max     0.014097387 RMS     0.002737275
 Leave Link  716 at Mon Mar 18 18:27:51 2024, MaxMem= 13421772800 cpu:               0.9 elap:               0.1
 (Enter /gpfs/software/gaussian/g16/l103.exe)

 GradGradGradGradGradGradGradGradGradGradGradGradGradGradGradGradGradGrad
 Berny optimization.
 Using GEDIIS/GDIIS optimizer.
 Bend failed for angle     3 -     4 -     6
 Tors failed for dihedral     1 -     3 -     4 -     6
 Tors failed for dihedral     3 -     4 -     6 -    14
 Tors failed for dihedral     3 -     4 -     6 -    16
 FormBX had a problem.
 Error termination via Lnk1e in /gpfs/software/gaussian/g16/l103.exe at Mon Mar 18 18:27:51 2024.
 Job cpu time:       0 days 12 hours 49 minutes 59.7 seconds.
 Elapsed time:       0 days  0 hours 31 minutes 18.0 seconds.
 File lengths (MBytes):  RWF=    536 Int=      0 D2E=      0 Chk=     24 Scr=     16
