 Entering Gaussian System, Link 0=g16
 Initial command:
 /gpfs/software/gaussian/g16/l1.exe "/gpfs/scratch/ratwi/tests/Custodian/opt/convergence/dme/Optimization/Gau-9994.inp" -scrdir="/gpfs/scratch/ratwi/tests/Custodian/opt/convergence/dme/Optimization/"
 Entering Link 1 = /gpfs/software/gaussian/g16/l1.exe PID=      9995.
  
 Copyright (c) 1988-2019, Gaussian, Inc.  All Rights Reserved.
  
 This is part of the Gaussian(R) 16 program.  It is based on
 the Gaussian(R) 09 system (copyright 2009, Gaussian, Inc.),
 the Gaussian(R) 03 system (copyright 2003, Gaussian, Inc.),
 the Gaussian(R) 98 system (copyright 1998, Gaussian, Inc.),
 the Gaussian(R) 94 system (copyright 1995, Gaussian, Inc.),
 the Gaussian 92(TM) system (copyright 1992, Gaussian, Inc.),
 the Gaussian 90(TM) system (copyright 1990, Gaussian, Inc.),
 the Gaussian 88(TM) system (copyright 1988, Gaussian, Inc.),
 the Gaussian 86(TM) system (copyright 1986, Carnegie Mellon
 University), and the Gaussian 82(TM) system (copyright 1983,
 Carnegie Mellon University). Gaussian is a federally registered
 trademark of Gaussian, Inc.
  
 This software contains proprietary and confidential information,
 including trade secrets, belonging to Gaussian, Inc.
  
 This software is provided under written license and may be
 used, copied, transmitted, or stored only in accord with that
 written license.
  
 The following legend is applicable only to US Government
 contracts under FAR:
  
                    RESTRICTED RIGHTS LEGEND
  
 Use, reproduction and disclosure by the US Government is
 subject to restrictions as set forth in subparagraphs (a)
 and (c) of the Commercial Computer Software - Restricted
 Rights clause in FAR 52.227-19.
  
 Gaussian, Inc.
 340 Quinnipiac St., Bldg. 40, Wallingford CT 06492
  
  
 ---------------------------------------------------------------
 Warning -- This program may not be used in any manner that
 competes with the business of Gaussian, Inc. or will provide
 assistance to any competitor of Gaussian, Inc.  The licensee
 of this program is prohibited from giving any competitor of
 Gaussian, Inc. access to this program.  By using this program,
 the user acknowledges that Gaussian, Inc. is engaged in the
 business of creating and licensing software in the field of
 computational chemistry and represents and warrants to the
 licensee that it is not a competitor of Gaussian, Inc. and that
 it will not use this program in any manner prohibited above.
 ---------------------------------------------------------------
  

 Cite this work as:
 Gaussian 16, Revision C.01,
 M. J. Frisch, G. W. Trucks, H. B. Schlegel, G. E. Scuseria, 
 M. A. Robb, J. R. Cheeseman, G. Scalmani, V. Barone, 
 G. A. Petersson, H. Nakatsuji, X. Li, M. Caricato, A. V. Marenich, 
 J. Bloino, B. G. Janesko, R. Gomperts, B. Mennucci, H. P. Hratchian, 
 J. V. Ortiz, A. F. Izmaylov, J. L. Sonnenberg, D. Williams-Young, 
 F. Ding, F. Lipparini, F. Egidi, J. Goings, B. Peng, A. Petrone, 
 T. Henderson, D. Ranasinghe, V. G. Zakrzewski, J. Gao, N. Rega, 
 G. Zheng, W. Liang, M. Hada, M. Ehara, K. Toyota, R. Fukuda, 
 J. Hasegawa, M. Ishida, T. Nakajima, Y. Honda, O. Kitao, H. Nakai, 
 T. Vreven, K. Throssell, J. A. Montgomery, Jr., J. E. Peralta, 
 F. Ogliaro, M. J. Bearpark, J. J. Heyd, E. N. Brothers, K. N. Kudin, 
 V. N. Staroverov, T. A. Keith, R. Kobayashi, J. Normand, 
 K. Raghavachari, A. P. Rendell, J. C. Burant, S. S. Iyengar, 
 J. Tomasi, M. Cossi, J. M. Millam, M. Klene, C. Adamo, R. Cammi, 
 J. W. Ochterski, R. L. Martin, K. Morokuma, O. Farkas, 
 J. B. Foresman, and D. J. Fox, Gaussian, Inc., Wallingford CT, 2019.
 
 ******************************************
 Gaussian 16:  ES64L-G16RevC.01  3-Jul-2019
                14-Mar-2024 
 ******************************************
 %chk=Optimization.chk
 %mem=48GB
 %NProcShared=28
 Will use up to   28 processors via shared memory.
 --------------------------------------
 #P B3LYP/6-31+G* opt=(maxcycles=5) scf
 --------------------------------------
 1/6=5,18=20,19=15,26=3,38=1/1,3;
 2/9=110,12=2,17=6,18=5,40=1/2;
 3/5=1,6=6,7=11,11=2,25=1,30=1,71=1,74=-5/1,2,3;
 4//1;
 5/5=2,38=5/2;
 6/7=2,8=2,9=2,10=2,28=1/1;
 7//1,2,3,16;
 1/6=5,18=20,19=15,26=3/3(2);
 2/9=110/2;
 99//99;
 2/9=110/2;
 3/5=1,6=6,7=11,11=2,25=1,30=1,71=1,74=-5/1,2,3;
 4/5=5,16=3,69=1/1;
 5/5=2,38=5/2;
 7//1,2,3,16;
 1/6=5,18=20,19=15,26=3/3(-5);
 2/9=110/2;
 6/7=2,8=2,9=2,10=2,19=2,28=1/1;
 99/9=1/99;
 Leave Link    1 at Thu Mar 14 22:23:44 2024, MaxMem=  6442450944 cpu:               3.3 elap:               0.1
 (Enter /gpfs/software/gaussian/g16/l101.exe)
 ---------
 H10 C4 O2
 ---------
 Symbolic Z-matrix:
 Charge =  0 Multiplicity = 1
 O                     1.72494  -0.52202  -0.00276 
 C                     2.99377   0.11717   0.00186 
 C                     0.64824   0.40089  -0.00039 
 C                    -0.64644  -0.40095   0.00129 
 O                    -1.72623   0.51875   0.00017 
 C                    -2.99301  -0.11463   0.00008 
 H                     3.19102   0.60899   0.96506 
 H                     3.05884   0.86286  -0.80811 
 H                     0.68645   1.04744  -0.89143 
 H                     0.6838    1.04834   0.89038 
 H                    -0.68578  -1.04634   0.89333 
 H                    -0.68635  -1.04861  -0.88918 
 H                    -3.12847  -0.74085   0.89602 
 H                    -3.1278   -0.74204  -0.89513 
 H                    -3.74495   0.6786   -0.00076 
 H                     3.74821  -0.65717  -0.15653 
 
 ITRead=  0  0  0  0  0  0  0  0  0  0  0  0  0  0  0  0
 MicOpt= -1 -1 -1 -1 -1 -1 -1 -1 -1 -1 -1 -1 -1 -1 -1 -1
 NAtoms=     16 NQM=       16 NQMF=       0 NMMI=      0 NMMIF=      0
                NMic=       0 NMicF=      0.
                    Isotopes and Nuclear Properties:
 (Nuclear quadrupole moments (NQMom) in fm**2, nuclear magnetic moments (NMagM)
  in nuclear magnetons)

  Atom         1           2           3           4           5           6           7           8           9          10
 IAtWgt=          16          12          12          12          16          12           1           1           1           1
 AtmWgt=  15.9949146  12.0000000  12.0000000  12.0000000  15.9949146  12.0000000   1.0078250   1.0078250   1.0078250   1.0078250
 NucSpn=           0           0           0           0           0           0           1           1           1           1
 AtZEff=  -0.0000000  -0.0000000  -0.0000000  -0.0000000  -0.0000000  -0.0000000  -0.0000000  -0.0000000  -0.0000000  -0.0000000
 NQMom=    0.0000000   0.0000000   0.0000000   0.0000000   0.0000000   0.0000000   0.0000000   0.0000000   0.0000000   0.0000000
 NMagM=    0.0000000   0.0000000   0.0000000   0.0000000   0.0000000   0.0000000   2.7928460   2.7928460   2.7928460   2.7928460
 AtZNuc=   8.0000000   6.0000000   6.0000000   6.0000000   8.0000000   6.0000000   1.0000000   1.0000000   1.0000000   1.0000000

  Atom        11          12          13          14          15          16
 IAtWgt=           1           1           1           1           1           1
 AtmWgt=   1.0078250   1.0078250   1.0078250   1.0078250   1.0078250   1.0078250
 NucSpn=           1           1           1           1           1           1
 AtZEff=  -0.0000000  -0.0000000  -0.0000000  -0.0000000  -0.0000000  -0.0000000
 NQMom=    0.0000000   0.0000000   0.0000000   0.0000000   0.0000000   0.0000000
 NMagM=    2.7928460   2.7928460   2.7928460   2.7928460   2.7928460   2.7928460
 AtZNuc=   1.0000000   1.0000000   1.0000000   1.0000000   1.0000000   1.0000000
 Leave Link  101 at Thu Mar 14 22:23:44 2024, MaxMem=  6442450944 cpu:              11.4 elap:               0.4
 (Enter /gpfs/software/gaussian/g16/l103.exe)

 GradGradGradGradGradGradGradGradGradGradGradGradGradGradGradGradGradGrad
 Berny optimization.
 Initialization pass.
                           ----------------------------
                           !    Initial Parameters    !
                           ! (Angstroms and Degrees)  !
 --------------------------                            --------------------------
 ! Name  Definition              Value          Derivative Info.                !
 --------------------------------------------------------------------------------
 ! R1    R(1,2)                  1.4207         estimate D2E/DX2                !
 ! R2    R(1,3)                  1.4181         estimate D2E/DX2                !
 ! R3    R(2,7)                  1.0993         estimate D2E/DX2                !
 ! R4    R(2,8)                  1.1029         estimate D2E/DX2                !
 ! R5    R(2,16)                 1.0926         estimate D2E/DX2                !
 ! R6    R(3,4)                  1.5229         estimate D2E/DX2                !
 ! R7    R(3,9)                  1.1016         estimate D2E/DX2                !
 ! R8    R(3,10)                 1.1018         estimate D2E/DX2                !
 ! R9    R(4,5)                  1.4184         estimate D2E/DX2                !
 ! R10   R(4,11)                 1.1017         estimate D2E/DX2                !
 ! R11   R(4,12)                 1.1018         estimate D2E/DX2                !
 ! R12   R(5,6)                  1.4163         estimate D2E/DX2                !
 ! R13   R(6,13)                 1.1015         estimate D2E/DX2                !
 ! R14   R(6,14)                 1.1015         estimate D2E/DX2                !
 ! R15   R(6,15)                 1.093          estimate D2E/DX2                !
 ! A1    A(2,1,3)              112.6598         estimate D2E/DX2                !
 ! A2    A(1,2,7)              111.3682         estimate D2E/DX2                !
 ! A3    A(1,2,8)              110.7627         estimate D2E/DX2                !
 ! A4    A(1,2,16)             107.2972         estimate D2E/DX2                !
 ! A5    A(7,2,8)              109.2931         estimate D2E/DX2                !
 ! A6    A(7,2,16)             108.6732         estimate D2E/DX2                !
 ! A7    A(8,2,16)             109.3881         estimate D2E/DX2                !
 ! A8    A(1,3,4)              107.6264         estimate D2E/DX2                !
 ! A9    A(1,3,9)              110.75           estimate D2E/DX2                !
 ! A10   A(1,3,10)             111.0559         estimate D2E/DX2                !
 ! A11   A(4,3,9)              109.842          estimate D2E/DX2                !
 ! A12   A(4,3,10)             109.6308         estimate D2E/DX2                !
 ! A13   A(9,3,10)             107.9355         estimate D2E/DX2                !
 ! A14   A(3,4,5)              107.8063         estimate D2E/DX2                !
 ! A15   A(3,4,11)             109.8582         estimate D2E/DX2                !
 ! A16   A(3,4,12)             109.841          estimate D2E/DX2                !
 ! A17   A(5,4,11)             110.6886         estimate D2E/DX2                !
 ! A18   A(5,4,12)             110.6668         estimate D2E/DX2                !
 ! A19   A(11,4,12)            107.9827         estimate D2E/DX2                !
 ! A20   A(4,5,6)              113.0134         estimate D2E/DX2                !
 ! A21   A(5,6,13)             111.3581         estimate D2E/DX2                !
 ! A22   A(5,6,14)             111.3609         estimate D2E/DX2                !
 ! A23   A(5,6,15)             106.9051         estimate D2E/DX2                !
 ! A24   A(13,6,14)            108.7956         estimate D2E/DX2                !
 ! A25   A(13,6,15)            109.1861         estimate D2E/DX2                !
 ! A26   A(14,6,15)            109.1829         estimate D2E/DX2                !
 ! D1    D(3,1,2,7)             69.7986         estimate D2E/DX2                !
 ! D2    D(3,1,2,8)            -52.0558         estimate D2E/DX2                !
 ! D3    D(3,1,2,16)          -171.3898         estimate D2E/DX2                !
 ! D4    D(2,1,3,4)           -179.7224         estimate D2E/DX2                !
 ! D5    D(2,1,3,9)             60.1964         estimate D2E/DX2                !
 ! D6    D(2,1,3,10)           -59.7192         estimate D2E/DX2                !
 ! D7    D(1,3,4,5)           -179.852          estimate D2E/DX2                !
 ! D8    D(1,3,4,11)            59.4491         estimate D2E/DX2                !
 ! D9    D(1,3,4,12)           -59.1896         estimate D2E/DX2                !
 ! D10   D(9,3,4,5)            -59.1976         estimate D2E/DX2                !
 ! D11   D(9,3,4,11)          -179.8965         estimate D2E/DX2                !
 ! D12   D(9,3,4,12)            61.4648         estimate D2E/DX2                !
 ! D13   D(10,3,4,5)            59.2462         estimate D2E/DX2                !
 ! D14   D(10,3,4,11)          -61.4528         estimate D2E/DX2                !
 ! D15   D(10,3,4,12)          179.9085         estimate D2E/DX2                !
 ! D16   D(3,4,5,6)            179.9344         estimate D2E/DX2                !
 ! D17   D(11,4,5,6)           -59.8887         estimate D2E/DX2                !
 ! D18   D(12,4,5,6)            59.7913         estimate D2E/DX2                !
 ! D19   D(4,5,6,13)            60.8106         estimate D2E/DX2                !
 ! D20   D(4,5,6,14)           -60.8182         estimate D2E/DX2                !
 ! D21   D(4,5,6,15)           179.9973         estimate D2E/DX2                !
 --------------------------------------------------------------------------------
 Trust Radius=3.00D-01 FncErr=1.00D-07 GrdErr=1.00D-06 EigMax=2.50D+02 EigMin=1.00D-04
 Number of steps in this run=      5 maximum allowed number of steps=    100.
 GradGradGradGradGradGradGradGradGradGradGradGradGradGradGradGradGradGrad

 Leave Link  103 at Thu Mar 14 22:23:44 2024, MaxMem=  6442450944 cpu:               0.7 elap:               0.1
 (Enter /gpfs/software/gaussian/g16/l202.exe)
                          Input orientation:                          
 ---------------------------------------------------------------------
 Center     Atomic      Atomic             Coordinates (Angstroms)
 Number     Number       Type             X           Y           Z
 ---------------------------------------------------------------------
      1          8           0        1.724940   -0.522024   -0.002758
      2          6           0        2.993771    0.117174    0.001859
      3          6           0        0.648237    0.400893   -0.000391
      4          6           0       -0.646436   -0.400946    0.001289
      5          8           0       -1.726229    0.518750    0.000170
      6          6           0       -2.993014   -0.114625    0.000081
      7          1           0        3.191019    0.608990    0.965064
      8          1           0        3.058841    0.862859   -0.808106
      9          1           0        0.686452    1.047437   -0.891425
     10          1           0        0.683799    1.048338    0.890377
     11          1           0       -0.685781   -1.046335    0.893333
     12          1           0       -0.686351   -1.048611   -0.889176
     13          1           0       -3.128465   -0.740853    0.896021
     14          1           0       -3.127802   -0.742042   -0.895128
     15          1           0       -3.744952    0.678596   -0.000759
     16          1           0        3.748207   -0.657166   -0.156531
 ---------------------------------------------------------------------
                    Distance matrix (angstroms):
                    1          2          3          4          5
     1  O    0.000000
     2  C    1.420749   0.000000
     3  C    1.418122   2.362632   0.000000
     4  C    2.374468   3.676895   1.522868   0.000000
     5  O    3.604690   4.737052   2.377389   1.418378   0.000000
     6  C    4.735512   5.991271   3.677563   2.363982   1.416301
     7  H    2.089320   1.099342   2.727847   4.083490   5.011835
     8  H    2.084653   1.102871   2.583956   3.997674   4.865040
     9  H    2.081200   2.643306   1.101554   2.161329   2.625925
    10  H    2.085114   2.644334   1.101779   2.158802   2.623198
    11  H    2.624777   3.960755   2.161670   1.101734   2.080808
    12  H    2.622471   3.961855   2.161510   1.101813   2.080602
    13  H    4.940772   6.246400   4.046062   2.660179   2.086963
    14  H    4.939012   6.246318   4.045408   2.660280   2.086998
    15  H    5.600108   6.762070   4.401957   3.281191   2.025042
    16  H    2.033598   1.092641   3.279281   4.404934   5.601498
                    6          7          8          9         10
     6  C    0.000000
     7  H    6.300561   0.000000
     8  H    6.183332   1.796121   0.000000
     9  H    3.960258   3.148276   2.381017   0.000000
    10  H    3.957785   2.546519   2.925760   1.781804   0.000000
    11  H    2.643730   4.216020   4.534546   3.074454   2.502681
    12  H    2.642688   4.606500   4.205562   2.505596   3.072672
    13  H    1.101461   6.462408   6.615036   4.576739   4.211246
    14  H    1.101462   6.724069   6.392013   4.213168   4.574034
    15  H    1.092983   7.003239   6.854003   4.535049   4.532623
    16  H    6.764831   1.780894   1.791717   3.580515   3.659967
                   11         12         13         14         15
    11  H    0.000000
    12  H    1.782511   0.000000
    13  H    2.461713   3.040652   0.000000
    14  H    3.042146   2.460631   1.791150   0.000000
    15  H    3.623992   3.623199   1.788604   1.788570   0.000000
    16  H    4.573174   4.511685   6.957261   6.916085   7.612881
                   16
    16  H    0.000000
 Stoichiometry    C4H10O2
 Framework group  C1[X(C4H10O2)]
 Deg. of freedom    42
 Full point group                 C1      NOp   1
 Largest Abelian subgroup         C1      NOp   1
 Largest concise Abelian subgroup C1      NOp   1
                         Standard orientation:                         
 ---------------------------------------------------------------------
 Center     Atomic      Atomic             Coordinates (Angstroms)
 Number     Number       Type             X           Y           Z
 ---------------------------------------------------------------------
      1          8           0        1.724940   -0.522024   -0.002758
      2          6           0        2.993771    0.117174    0.001859
      3          6           0        0.648237    0.400893   -0.000391
      4          6           0       -0.646436   -0.400946    0.001289
      5          8           0       -1.726229    0.518750    0.000170
      6          6           0       -2.993014   -0.114625    0.000081
      7          1           0        3.191019    0.608990    0.965064
      8          1           0        3.058841    0.862859   -0.808106
      9          1           0        0.686452    1.047437   -0.891425
     10          1           0        0.683799    1.048338    0.890377
     11          1           0       -0.685781   -1.046335    0.893333
     12          1           0       -0.686351   -1.048611   -0.889176
     13          1           0       -3.128465   -0.740853    0.896021
     14          1           0       -3.127802   -0.742042   -0.895128
     15          1           0       -3.744952    0.678596   -0.000759
     16          1           0        3.748207   -0.657166   -0.156531
 ---------------------------------------------------------------------
 Rotational constants (GHZ):          18.9242791           1.2744796           1.2315373
 Leave Link  202 at Thu Mar 14 22:23:44 2024, MaxMem=  6442450944 cpu:               0.5 elap:               0.1
 (Enter /gpfs/software/gaussian/g16/l301.exe)
 Standard basis: 6-31+G(d) (6D, 7F)
 Ernie: Thresh=  0.10000D-02 Tol=  0.10000D-05 Strict=F.
 There are   134 symmetry adapted cartesian basis functions of A   symmetry.
 There are   134 symmetry adapted basis functions of A   symmetry.
   134 basis functions,   232 primitive gaussians,   134 cartesian basis functions
    25 alpha electrons       25 beta electrons
       nuclear repulsion energy       251.5590991750 Hartrees.
 IExCor=  402 DFT=T Ex+Corr=B3LYP ExCW=0 ScaHFX=  0.200000
 ScaDFX=  0.800000  0.720000  1.000000  0.810000 ScalE2=  1.000000  1.000000
 IRadAn=      5 IRanWt=     -1 IRanGd=            0 ICorTp=0 IEmpDi=  4
 NAtoms=   16 NActive=   16 NUniq=   16 SFac= 1.00D+00 NAtFMM=   60 NAOKFM=F Big=F
 Integral buffers will be    131072 words long.
 Raffenetti 2 integral format.
 Two-electron integral symmetry is turned on.
 Leave Link  301 at Thu Mar 14 22:23:45 2024, MaxMem=  6442450944 cpu:               1.8 elap:               0.1
 (Enter /gpfs/software/gaussian/g16/l302.exe)
 NPDir=0 NMtPBC=     1 NCelOv=     1 NCel=       1 NClECP=     1 NCelD=      1
         NCelK=      1 NCelE2=     1 NClLst=     1 CellRange=     0.0.
 One-electron integrals computed using PRISM.
 One-electron integral symmetry used in STVInt
 NBasis=   134 RedAO= T EigKep=  6.87D-05  NBF=   134
 NBsUse=   134 1.00D-06 EigRej= -1.00D+00 NBFU=   134
 Precomputing XC quadrature grid using
 IXCGrd= 4 IRadAn=           5 IRanWt=          -1 IRanGd=           0 AccXCQ= 0.00D+00.
 Generated NRdTot=       0 NPtTot=           0 NUsed=           0 NTot=          32
 NSgBfM=   134   134   134   134   134 MxSgAt=    16 MxSgA2=    16.
 Leave Link  302 at Thu Mar 14 22:23:45 2024, MaxMem=  6442450944 cpu:               5.9 elap:               0.2
 (Enter /gpfs/software/gaussian/g16/l303.exe)
 DipDrv:  MaxL=1.
 Leave Link  303 at Thu Mar 14 22:23:45 2024, MaxMem=  6442450944 cpu:               0.9 elap:               0.1
 (Enter /gpfs/software/gaussian/g16/l401.exe)
 ExpMin= 4.38D-02 ExpMax= 5.48D+03 ExpMxC= 8.25D+02 IAcc=3 IRadAn=         5 AccDes= 0.00D+00
 Harris functional with IExCor=  402 and IRadAn=       5 diagonalized for initial guess.
 HarFok:  IExCor=  402 AccDes= 0.00D+00 IRadAn=         5 IDoV= 1 UseB2=F ITyADJ=14
 ICtDFT=  3500011 ScaDFX=  1.000000  1.000000  1.000000  1.000000
 FoFCou: FMM=F IPFlag=           0 FMFlag=      100000 FMFlg1=           0
         NFxFlg=           0 DoJE=T BraDBF=F KetDBF=T FulRan=T
         wScrn=  0.000000 ICntrl=       500 IOpCl=  0 I1Cent=   200000004 NGrid=           0
         NMat0=    1 NMatS0=      1 NMatT0=    0 NMatD0=    1 NMtDS0=    0 NMtDT0=    0
 Petite list used in FoFCou.
 Harris En= -308.877318479606    
 JPrj=0 DoOrth=F DoCkMO=F.
 Leave Link  401 at Thu Mar 14 22:23:45 2024, MaxMem=  6442450944 cpu:              11.4 elap:               0.5
 (Enter /gpfs/software/gaussian/g16/l502.exe)
 Integral symmetry usage will be decided dynamically.
 Closed shell SCF:
 Using DIIS extrapolation, IDIIS=  1040.
 NGot=  6442450944 LenX=  6442409262 LenY=  6442390865
 Requested convergence on RMS density matrix=1.00D-08 within 128 cycles.
 Requested convergence on MAX density matrix=1.00D-06.
 Requested convergence on             energy=1.00D-06.
 No special actions if energy rises.
 Fock matrices will be formed incrementally for  20 cycles.

 Cycle   1  Pass 1  IDiag  1:
 FoFJK:  IHMeth= 1 ICntrl=       0 DoSepK=F KAlg= 0 I1Cent=           0 FoldK=F
 IRaf= 950000000 NMat=       1 IRICut=       1 DoRegI=T DoRafI=F ISym2E= 0 IDoP0=0 IntGTp=1.
 FoFCou: FMM=F IPFlag=           0 FMFlag=      100000 FMFlg1=           0
         NFxFlg=           0 DoJE=F BraDBF=F KetDBF=F FulRan=T
         wScrn=  0.000000 ICntrl=         0 IOpCl=  0 I1Cent=           0 NGrid=           0
         NMat0=    1 NMatS0=      1 NMatT0=    0 NMatD0=    1 NMtDS0=    0 NMtDT0=    0
 Symmetry not used in FoFCou.
 E= -308.736333358093    
 DIIS: error= 3.04D-02 at cycle   1 NSaved=   1.
 NSaved= 1 IEnMin= 1 EnMin= -308.736333358093     IErMin= 1 ErrMin= 3.04D-02
 ErrMax= 3.04D-02  0.00D+00 EMaxC= 1.00D-01 BMatC= 1.30D-01 BMatP= 1.30D-01
 IDIUse=3 WtCom= 6.96D-01 WtEn= 3.04D-01
 Coeff-Com:  0.100D+01
 Coeff-En:   0.100D+01
 Coeff:      0.100D+01
 Gap=     0.280 Goal=   None    Shift=    0.000
 GapD=    0.280 DampG=1.000 DampE=0.500 DampFc=0.5000 IDamp=-1.
 Damping current iteration by 5.00D-01
 RMSDP=6.44D-03 MaxDP=1.02D-01              OVMax= 1.50D-01

 Cycle   2  Pass 1  IDiag  1:
 RMSU=  3.13D-03    CP:  9.71D-01
 E= -308.794476360717     Delta-E=       -0.058143002625 Rises=F Damp=T
 DIIS: error= 7.32D-03 at cycle   2 NSaved=   2.
 NSaved= 2 IEnMin= 2 EnMin= -308.794476360717     IErMin= 2 ErrMin= 7.32D-03
 ErrMax= 7.32D-03  0.00D+00 EMaxC= 1.00D-01 BMatC= 1.00D-02 BMatP= 1.30D-01
 IDIUse=3 WtCom= 9.27D-01 WtEn= 7.32D-02
 Coeff-Com:  0.781D-01 0.922D+00
 Coeff-En:   0.117D+00 0.883D+00
 Coeff:      0.810D-01 0.919D+00
 Gap=     0.292 Goal=   None    Shift=    0.000
 RMSDP=1.62D-03 MaxDP=2.76D-02 DE=-5.81D-02 OVMax= 9.49D-02

 Cycle   3  Pass 1  IDiag  1:
 RMSU=  1.59D-03    CP:  9.69D-01  8.88D-01
 E= -308.866615201338     Delta-E=       -0.072138840620 Rises=F Damp=F
 DIIS: error= 6.03D-03 at cycle   3 NSaved=   3.
 NSaved= 3 IEnMin= 3 EnMin= -308.866615201338     IErMin= 3 ErrMin= 6.03D-03
 ErrMax= 6.03D-03  0.00D+00 EMaxC= 1.00D-01 BMatC= 5.99D-03 BMatP= 1.00D-02
 IDIUse=3 WtCom= 9.40D-01 WtEn= 6.03D-02
 Coeff-Com: -0.190D-01 0.423D+00 0.596D+00
 Coeff-En:   0.000D+00 0.000D+00 0.100D+01
 Coeff:     -0.179D-01 0.397D+00 0.621D+00
 Gap=     0.273 Goal=   None    Shift=    0.000
 RMSDP=6.06D-04 MaxDP=1.48D-02 DE=-7.21D-02 OVMax= 1.64D-02

 Cycle   4  Pass 1  IDiag  1:
 RMSU=  4.54D-04    CP:  9.70D-01  9.31D-01  7.62D-01
 E= -308.869931271625     Delta-E=       -0.003316070287 Rises=F Damp=F
 DIIS: error= 2.80D-03 at cycle   4 NSaved=   4.
 NSaved= 4 IEnMin= 4 EnMin= -308.869931271625     IErMin= 4 ErrMin= 2.80D-03
 ErrMax= 2.80D-03  0.00D+00 EMaxC= 1.00D-01 BMatC= 1.55D-03 BMatP= 5.99D-03
 IDIUse=3 WtCom= 9.72D-01 WtEn= 2.80D-02
 Coeff-Com: -0.171D-01 0.101D+00 0.357D+00 0.559D+00
 Coeff-En:   0.000D+00 0.000D+00 0.212D+00 0.788D+00
 Coeff:     -0.166D-01 0.981D-01 0.353D+00 0.566D+00
 Gap=     0.276 Goal=   None    Shift=    0.000
 RMSDP=2.27D-04 MaxDP=5.04D-03 DE=-3.32D-03 OVMax= 5.42D-03

 Cycle   5  Pass 1  IDiag  1:
 RMSU=  1.21D-04    CP:  9.69D-01  9.42D-01  7.87D-01  5.95D-01
 E= -308.871084154320     Delta-E=       -0.001152882696 Rises=F Damp=F
 DIIS: error= 2.62D-04 at cycle   5 NSaved=   5.
 NSaved= 5 IEnMin= 5 EnMin= -308.871084154320     IErMin= 5 ErrMin= 2.62D-04
 ErrMax= 2.62D-04  0.00D+00 EMaxC= 1.00D-01 BMatC= 1.36D-05 BMatP= 1.55D-03
 IDIUse=3 WtCom= 9.97D-01 WtEn= 2.62D-03
 Coeff-Com: -0.281D-02 0.534D-02 0.669D-01 0.160D+00 0.770D+00
 Coeff-En:   0.000D+00 0.000D+00 0.000D+00 0.000D+00 0.100D+01
 Coeff:     -0.280D-02 0.533D-02 0.668D-01 0.160D+00 0.771D+00
 Gap=     0.276 Goal=   None    Shift=    0.000
 RMSDP=4.01D-05 MaxDP=9.49D-04 DE=-1.15D-03 OVMax= 6.76D-04

 Cycle   6  Pass 1  IDiag  1:
 RMSU=  1.55D-05    CP:  9.69D-01  9.39D-01  7.99D-01  6.35D-01  8.12D-01
 E= -308.871095080783     Delta-E=       -0.000010926462 Rises=F Damp=F
 DIIS: error= 3.72D-05 at cycle   6 NSaved=   6.
 NSaved= 6 IEnMin= 6 EnMin= -308.871095080783     IErMin= 6 ErrMin= 3.72D-05
 ErrMax= 3.72D-05  0.00D+00 EMaxC= 1.00D-01 BMatC= 1.83D-07 BMatP= 1.36D-05
 IDIUse=1 WtCom= 1.00D+00 WtEn= 0.00D+00
 Coeff-Com: -0.567D-03 0.356D-03 0.169D-01 0.435D-01 0.242D+00 0.698D+00
 Coeff:     -0.567D-03 0.356D-03 0.169D-01 0.435D-01 0.242D+00 0.698D+00
 Gap=     0.276 Goal=   None    Shift=    0.000
 RMSDP=5.56D-06 MaxDP=1.07D-04 DE=-1.09D-05 OVMax= 1.03D-04

 Cycle   7  Pass 1  IDiag  1:
 RMSU=  3.65D-06    CP:  9.69D-01  9.39D-01  7.99D-01  6.32D-01  8.28D-01
                    CP:  7.75D-01
 E= -308.871095226610     Delta-E=       -0.000000145827 Rises=F Damp=F
 DIIS: error= 1.87D-05 at cycle   7 NSaved=   7.
 NSaved= 7 IEnMin= 7 EnMin= -308.871095226610     IErMin= 7 ErrMin= 1.87D-05
 ErrMax= 1.87D-05  0.00D+00 EMaxC= 1.00D-01 BMatC= 3.76D-08 BMatP= 1.83D-07
 IDIUse=1 WtCom= 1.00D+00 WtEn= 0.00D+00
 Coeff-Com: -0.104D-03-0.164D-03 0.436D-02 0.122D-01 0.742D-01 0.354D+00
 Coeff-Com:  0.556D+00
 Coeff:     -0.104D-03-0.164D-03 0.436D-02 0.122D-01 0.742D-01 0.354D+00
 Coeff:      0.556D+00
 Gap=     0.276 Goal=   None    Shift=    0.000
 RMSDP=1.61D-06 MaxDP=2.90D-05 DE=-1.46D-07 OVMax= 3.71D-05

 Cycle   8  Pass 1  IDiag  1:
 RMSU=  1.31D-06    CP:  9.69D-01  9.39D-01  7.99D-01  6.33D-01  8.27D-01
                    CP:  7.78D-01  7.62D-01
 E= -308.871095260376     Delta-E=       -0.000000033767 Rises=F Damp=F
 DIIS: error= 2.54D-06 at cycle   8 NSaved=   8.
 NSaved= 8 IEnMin= 8 EnMin= -308.871095260376     IErMin= 8 ErrMin= 2.54D-06
 ErrMax= 2.54D-06  0.00D+00 EMaxC= 1.00D-01 BMatC= 1.41D-09 BMatP= 3.76D-08
 IDIUse=1 WtCom= 1.00D+00 WtEn= 0.00D+00
 Coeff-Com:  0.267D-04-0.101D-03-0.388D-03-0.452D-03-0.121D-02 0.477D-01
 Coeff-Com:  0.189D+00 0.766D+00
 Coeff:      0.267D-04-0.101D-03-0.388D-03-0.452D-03-0.121D-02 0.477D-01
 Coeff:      0.189D+00 0.766D+00
 Gap=     0.276 Goal=   None    Shift=    0.000
 RMSDP=3.83D-07 MaxDP=6.89D-06 DE=-3.38D-08 OVMax= 7.41D-06

 Cycle   9  Pass 1  IDiag  1:
 RMSU=  2.13D-07    CP:  9.69D-01  9.39D-01  7.99D-01  6.33D-01  8.27D-01
                    CP:  7.89D-01  7.91D-01  8.26D-01
 E= -308.871095261395     Delta-E=       -0.000000001019 Rises=F Damp=F
 DIIS: error= 1.37D-06 at cycle   9 NSaved=   9.
 NSaved= 9 IEnMin= 9 EnMin= -308.871095261395     IErMin= 9 ErrMin= 1.37D-06
 ErrMax= 1.37D-06  0.00D+00 EMaxC= 1.00D-01 BMatC= 3.18D-10 BMatP= 1.41D-09
 IDIUse=1 WtCom= 1.00D+00 WtEn= 0.00D+00
 Coeff-Com:  0.195D-04-0.545D-04-0.392D-03-0.690D-03-0.334D-02 0.168D-01
 Coeff-Com:  0.945D-01 0.465D+00 0.429D+00
 Coeff:      0.195D-04-0.545D-04-0.392D-03-0.690D-03-0.334D-02 0.168D-01
 Coeff:      0.945D-01 0.465D+00 0.429D+00
 Gap=     0.276 Goal=   None    Shift=    0.000
 RMSDP=1.15D-07 MaxDP=2.72D-06 DE=-1.02D-09 OVMax= 3.29D-06

 Cycle  10  Pass 1  IDiag  1:
 RMSU=  7.60D-08    CP:  9.69D-01  9.39D-01  7.99D-01  6.33D-01  8.27D-01
                    CP:  7.90D-01  7.93D-01  8.28D-01  6.01D-01
 E= -308.871095261623     Delta-E=       -0.000000000227 Rises=F Damp=F
 DIIS: error= 1.51D-07 at cycle  10 NSaved=  10.
 NSaved=10 IEnMin=10 EnMin= -308.871095261623     IErMin=10 ErrMin= 1.51D-07
 ErrMax= 1.51D-07  0.00D+00 EMaxC= 1.00D-01 BMatC= 5.62D-12 BMatP= 3.18D-10
 IDIUse=1 WtCom= 1.00D+00 WtEn= 0.00D+00
 Coeff-Com:  0.229D-05-0.348D-05-0.734D-04-0.140D-03-0.821D-03-0.245D-03
 Coeff-Com:  0.629D-02 0.520D-01 0.135D+00 0.808D+00
 Coeff:      0.229D-05-0.348D-05-0.734D-04-0.140D-03-0.821D-03-0.245D-03
 Coeff:      0.629D-02 0.520D-01 0.135D+00 0.808D+00
 Gap=     0.276 Goal=   None    Shift=    0.000
 RMSDP=1.92D-08 MaxDP=4.15D-07 DE=-2.27D-10 OVMax= 3.98D-07

 Cycle  11  Pass 1  IDiag  1:
 RMSU=  9.72D-09    CP:  9.69D-01  9.39D-01  7.99D-01  6.33D-01  8.27D-01
                    CP:  7.90D-01  7.93D-01  8.35D-01  6.51D-01  9.17D-01
 E= -308.871095261626     Delta-E=       -0.000000000003 Rises=F Damp=F
 DIIS: error= 2.24D-08 at cycle  11 NSaved=  11.
 NSaved=11 IEnMin=11 EnMin= -308.871095261626     IErMin=11 ErrMin= 2.24D-08
 ErrMax= 2.24D-08  0.00D+00 EMaxC= 1.00D-01 BMatC= 4.52D-14 BMatP= 5.62D-12
 IDIUse=1 WtCom= 1.00D+00 WtEn= 0.00D+00
 Coeff-Com: -0.118D-06 0.778D-06-0.559D-05-0.115D-04-0.823D-04-0.445D-03
 Coeff-Com: -0.734D-03-0.152D-03 0.152D-01 0.146D+00 0.840D+00
 Coeff:     -0.118D-06 0.778D-06-0.559D-05-0.115D-04-0.823D-04-0.445D-03
 Coeff:     -0.734D-03-0.152D-03 0.152D-01 0.146D+00 0.840D+00
 Gap=     0.276 Goal=   None    Shift=    0.000
 RMSDP=2.22D-09 MaxDP=3.58D-08 DE=-3.30D-12 OVMax= 5.01D-08

 SCF Done:  E(RB3LYP) =  -308.871095262     A.U. after   11 cycles
            NFock= 11  Conv=0.22D-08     -V/T= 2.0095
 KE= 3.059719119277D+02 PE=-1.223557459654D+03 EE= 3.571553532900D+02
 Leave Link  502 at Thu Mar 14 22:23:49 2024, MaxMem=  6442450944 cpu:              94.3 elap:               3.4
 (Enter /gpfs/software/gaussian/g16/l601.exe)
 Copying SCF densities to generalized density rwf, IOpCl= 0 IROHF=0.

 **********************************************************************

            Population analysis using the SCF Density.

 **********************************************************************

 Orbital symmetries:
       Occupied  (A) (A) (A) (A) (A) (A) (A) (A) (A) (A) (A) (A)
                 (A) (A) (A) (A) (A) (A) (A) (A) (A) (A) (A) (A)
                 (A)
       Virtual   (A) (A) (A) (A) (A) (A) (A) (A) (A) (A) (A) (A)
                 (A) (A) (A) (A) (A) (A) (A) (A) (A) (A) (A) (A)
                 (A) (A) (A) (A) (A) (A) (A) (A) (A) (A) (A) (A)
                 (A) (A) (A) (A) (A) (A) (A) (A) (A) (A) (A) (A)
                 (A) (A) (A) (A) (A) (A) (A) (A) (A) (A) (A) (A)
                 (A) (A) (A) (A) (A) (A) (A) (A) (A) (A) (A) (A)
                 (A) (A) (A) (A) (A) (A) (A) (A) (A) (A) (A) (A)
                 (A) (A) (A) (A) (A) (A) (A) (A) (A) (A) (A) (A)
                 (A) (A) (A) (A) (A) (A) (A) (A) (A) (A) (A) (A)
                 (A)
 The electronic state is 1-A.
 Alpha  occ. eigenvalues --  -19.16205 -19.16186 -10.23586 -10.23560 -10.23406
 Alpha  occ. eigenvalues --  -10.23372  -1.04472  -1.03559  -0.76949  -0.70030
 Alpha  occ. eigenvalues --   -0.65182  -0.61010  -0.50502  -0.50116  -0.47951
 Alpha  occ. eigenvalues --   -0.46226  -0.45844  -0.43372  -0.42126  -0.37106
 Alpha  occ. eigenvalues --   -0.36659  -0.33170  -0.32423  -0.26896  -0.26249
 Alpha virt. eigenvalues --    0.01356   0.01548   0.03252   0.03511   0.03670
 Alpha virt. eigenvalues --    0.03995   0.05479   0.05976   0.07941   0.08100
 Alpha virt. eigenvalues --    0.09592   0.09653   0.10423   0.12149   0.13807
 Alpha virt. eigenvalues --    0.14621   0.18543   0.19379   0.20289   0.20887
 Alpha virt. eigenvalues --    0.21303   0.22406   0.22574   0.22689   0.24266
 Alpha virt. eigenvalues --    0.24653   0.25589   0.26758   0.28000   0.28324
 Alpha virt. eigenvalues --    0.29852   0.30588   0.31087   0.32678   0.32796
 Alpha virt. eigenvalues --    0.38488   0.39549   0.40632   0.41490   0.60403
 Alpha virt. eigenvalues --    0.64433   0.64828   0.66311   0.67636   0.68642
 Alpha virt. eigenvalues --    0.69102   0.75066   0.76889   0.83438   0.84786
 Alpha virt. eigenvalues --    0.86624   0.87071   0.90827   0.94816   0.96497
 Alpha virt. eigenvalues --    0.99170   1.01156   1.02735   1.04081   1.08751
 Alpha virt. eigenvalues --    1.09299   1.20348   1.22836   1.23785   1.25952
 Alpha virt. eigenvalues --    1.27631   1.27828   1.37862   1.41694   1.44855
 Alpha virt. eigenvalues --    1.47452   1.49228   1.51102   1.51808   1.54283
 Alpha virt. eigenvalues --    1.61278   1.68749   1.81919   1.85308   1.91093
 Alpha virt. eigenvalues --    1.91561   2.00322   2.02731   2.06055   2.07893
 Alpha virt. eigenvalues --    2.11342   2.12189   2.16752   2.20043   2.20209
 Alpha virt. eigenvalues --    2.21854   2.26868   2.31349   2.33358   2.37655
 Alpha virt. eigenvalues --    2.49810   2.52837   2.65097   2.72266   2.77336
 Alpha virt. eigenvalues --    2.84442   3.00612   3.01392   4.17988   4.24536
 Alpha virt. eigenvalues --    4.32249   4.34118   4.34653   4.54338
          Condensed to atoms (all electrons):
               1          2          3          4          5          6
     1  O    8.383421   0.118984   0.132010  -0.026156   0.004046   0.004164
     2  C    0.118984   5.201948  -0.149664   0.009373   0.004021   0.000382
     3  C    0.132010  -0.149664   5.432544   0.123971  -0.025268   0.008501
     4  C   -0.026156   0.009373   0.123971   5.428462   0.132600  -0.150770
     5  O    0.004046   0.004021  -0.025268   0.132600   8.384580   0.119298
     6  C    0.004164   0.000382   0.008501  -0.150770   0.119298   5.202340
     7  H   -0.050528   0.391235  -0.012638   0.004109  -0.000000   0.000053
     8  H   -0.048076   0.393832  -0.019168   0.005104   0.000005   0.000135
     9  H   -0.054851  -0.011473   0.408807  -0.048540   0.002638  -0.000240
    10  H   -0.056639  -0.004288   0.409390  -0.052845   0.002613  -0.000391
    11  H    0.002675  -0.001068  -0.051512   0.411092  -0.056322  -0.007774
    12  H    0.002617   0.000278  -0.049820   0.407944  -0.056268  -0.007780
    13  H   -0.000003   0.000095   0.004513  -0.016253  -0.049390   0.392546
    14  H    0.000003   0.000089   0.004500  -0.016249  -0.049336   0.392527
    15  H    0.000009  -0.000107  -0.006396   0.016341  -0.055838   0.396804
    16  H   -0.054634   0.395975   0.015907  -0.006315   0.000008  -0.000104
               7          8          9         10         11         12
     1  O   -0.050528  -0.048076  -0.054851  -0.056639   0.002675   0.002617
     2  C    0.391235   0.393832  -0.011473  -0.004288  -0.001068   0.000278
     3  C   -0.012638  -0.019168   0.408807   0.409390  -0.051512  -0.049820
     4  C    0.004109   0.005104  -0.048540  -0.052845   0.411092   0.407944
     5  O   -0.000000   0.000005   0.002638   0.002613  -0.056322  -0.056268
     6  C    0.000053   0.000135  -0.000240  -0.000391  -0.007774  -0.007780
     7  H    0.556740  -0.047103  -0.001889   0.007771  -0.000006  -0.000002
     8  H   -0.047103   0.558456   0.010380  -0.002618   0.000000  -0.000018
     9  H   -0.001889   0.010380   0.565016  -0.052600   0.004457  -0.007268
    10  H    0.007771  -0.002618  -0.052600   0.566387  -0.007294   0.004506
    11  H   -0.000006   0.000000   0.004457  -0.007294   0.565515  -0.052287
    12  H   -0.000002  -0.000018  -0.007268   0.004506  -0.052287   0.565677
    13  H    0.000000  -0.000000  -0.000001  -0.000012   0.009253  -0.002260
    14  H   -0.000000   0.000000  -0.000013  -0.000001  -0.002258   0.009265
    15  H    0.000000   0.000000   0.000006   0.000006  -0.000172  -0.000171
    16  H   -0.032080  -0.028249  -0.000066  -0.000239   0.000005   0.000007
              13         14         15         16
     1  O   -0.000003   0.000003   0.000009  -0.054634
     2  C    0.000095   0.000089  -0.000107   0.395975
     3  C    0.004513   0.004500  -0.006396   0.015907
     4  C   -0.016253  -0.016249   0.016341  -0.006315
     5  O   -0.049390  -0.049336  -0.055838   0.000008
     6  C    0.392546   0.392527   0.396804  -0.000104
     7  H    0.000000  -0.000000   0.000000  -0.032080
     8  H   -0.000000   0.000000   0.000000  -0.028249
     9  H   -0.000001  -0.000013   0.000006  -0.000066
    10  H   -0.000012  -0.000001   0.000006  -0.000239
    11  H    0.009253  -0.002258  -0.000172   0.000005
    12  H   -0.002260   0.009265  -0.000171   0.000007
    13  H    0.559720  -0.048618  -0.029754   0.000000
    14  H   -0.048618   0.559672  -0.029760   0.000000
    15  H   -0.029754  -0.029760   0.511140   0.000000
    16  H    0.000000   0.000000   0.000000   0.511565
 Mulliken charges:
               1
     1  O   -0.357043
     2  C   -0.349610
     3  C   -0.225679
     4  C   -0.221871
     5  O   -0.357388
     6  C   -0.349691
     7  H    0.184338
     8  H    0.177319
     9  H    0.185638
    10  H    0.186255
    11  H    0.185695
    12  H    0.185579
    13  H    0.180165
    14  H    0.180179
    15  H    0.197892
    16  H    0.198221
 Sum of Mulliken charges =  -0.00000
 Mulliken charges with hydrogens summed into heavy atoms:
               1
     1  O   -0.357043
     2  C    0.210268
     3  C    0.146213
     4  C    0.149403
     5  O   -0.357388
     6  C    0.208546
 Electronic spatial extent (au):  <R**2>=            974.0644
 Charge=             -0.0000 electrons
 Dipole moment (field-independent basis, Debye):
    X=              0.0227    Y=              0.0143    Z=             -0.0043  Tot=              0.0272
 Quadrupole moment (field-independent basis, Debye-Ang):
   XX=            -31.5483   YY=            -41.0467   ZZ=            -38.8243
   XY=              4.2860   XZ=             -0.0289   YZ=             -0.0058
 Traceless Quadrupole moment (field-independent basis, Debye-Ang):
   XX=              5.5915   YY=             -3.9069   ZZ=             -1.6846
   XY=              4.2860   XZ=             -0.0289   YZ=             -0.0058
 Octapole moment (field-independent basis, Debye-Ang**2):
  XXX=              0.3998  YYY=              0.0652  ZZZ=              0.1798  XYY=             -0.0692
  XXY=              0.0727  XXZ=             -0.1719  XZZ=              0.0917  YZZ=             -0.0328
  YYZ=             -0.2029  XYZ=              0.0931
 Hexadecapole moment (field-independent basis, Debye-Ang**3):
 XXXX=          -1001.2119 YYYY=           -111.2834 ZZZZ=            -69.8763 XXXY=            -15.2747
 XXXZ=             -0.9086 YYYX=             -6.7244 YYYZ=             -0.1308 ZZZX=              0.6374
 ZZZY=              0.0353 XXYY=           -207.5558 XXZZ=           -201.4856 YYZZ=            -28.9714
 XXYZ=              0.6502 YYXZ=             -0.6402 ZZXY=              1.8656
 N-N= 2.515590991750D+02 E-N=-1.223557458279D+03  KE= 3.059719119277D+02
 No NMR shielding tensors so no spin-rotation constants.
 Leave Link  601 at Thu Mar 14 22:23:49 2024, MaxMem=  6442450944 cpu:               4.5 elap:               0.2
 (Enter /gpfs/software/gaussian/g16/l701.exe)
 ... and contract with generalized density number  0.
 Compute integral first derivatives.
 Leave Link  701 at Thu Mar 14 22:23:49 2024, MaxMem=  6442450944 cpu:               4.7 elap:               0.2
 (Enter /gpfs/software/gaussian/g16/l702.exe)
 L702 exits ... SP integral derivatives will be done elsewhere.
 Leave Link  702 at Thu Mar 14 22:23:49 2024, MaxMem=  6442450944 cpu:               1.0 elap:               0.1
 (Enter /gpfs/software/gaussian/g16/l703.exe)
 Integral derivatives from FoFJK, PRISM(SPDF).
 Compute integral first derivatives, UseDBF=F ICtDFT=           0.
 Calling FoFJK, ICntrl=      2127 FMM=F ISym2X=0 I1Cent= 0 IOpClX= 0 NMat=1 NMatS=1 NMatT=0.
 FoFJK:  IHMeth= 1 ICntrl=    2127 DoSepK=F KAlg= 0 I1Cent=           0 FoldK=F
 IRaf=         0 NMat=       1 IRICut=       1 DoRegI=T DoRafI=F ISym2E= 0 IDoP0=0 IntGTp=1.
 FoFCou: FMM=F IPFlag=           0 FMFlag=      100000 FMFlg1=         800
         NFxFlg=           0 DoJE=F BraDBF=F KetDBF=F FulRan=T
         wScrn=  0.000000 ICntrl=      2127 IOpCl=  0 I1Cent=           0 NGrid=           0
         NMat0=    1 NMatS0=      1 NMatT0=    0 NMatD0=    1 NMtDS0=    0 NMtDT0=    0
 Symmetry not used in FoFCou.
 Leave Link  703 at Thu Mar 14 22:23:50 2024, MaxMem=  6442450944 cpu:              21.0 elap:               0.8
 (Enter /gpfs/software/gaussian/g16/l716.exe)
 Dipole        = 8.91235648D-03 5.63782052D-03-1.69796560D-03
 ***** Axes restored to original set *****
 -------------------------------------------------------------------
 Center     Atomic                   Forces (Hartrees/Bohr)
 Number     Number              X              Y              Z
 -------------------------------------------------------------------
      1        8           0.002565856    0.002146424   -0.000753459
      2        6          -0.002516989   -0.001454905   -0.001495089
      3        6          -0.001495403   -0.000818639    0.001076369
      4        6          -0.000051344    0.000206962   -0.000164474
      5        8           0.000019698   -0.000673441    0.000014396
      6        6           0.000614730    0.000796423    0.000003797
      7        1          -0.000698586    0.001673042    0.000618611
      8        1           0.001074634   -0.000794740    0.001124856
      9        1           0.000294370   -0.000017461   -0.000167318
     10        1           0.000476605   -0.000049238    0.000168472
     11        1          -0.000024052   -0.000051840    0.000061392
     12        1           0.000006948   -0.000081620   -0.000027708
     13        1           0.000073164   -0.000076587    0.000026002
     14        1           0.000081362   -0.000077670   -0.000024895
     15        1          -0.000098642   -0.000122089    0.000004186
     16        1          -0.000322351   -0.000604620   -0.000465140
 -------------------------------------------------------------------
 Cartesian Forces:  Max     0.002565856 RMS     0.000864751
 Leave Link  716 at Thu Mar 14 22:23:50 2024, MaxMem=  6442450944 cpu:               1.0 elap:               0.1
 (Enter /gpfs/software/gaussian/g16/l103.exe)

 GradGradGradGradGradGradGradGradGradGradGradGradGradGradGradGradGradGrad
 Berny optimization.
 FormGI is forming the generalized inverse of G from B-inverse, IUseBI=4.
 Internal  Forces:  Max     0.002732223 RMS     0.000632361
 Search for a local minimum.
 Step number   1 out of a maximum of    5
 All quantities printed in internal units (Hartrees-Bohrs-Radians)
 RMS Force = .63236D-03 SwitMx=.10000D-02 MixMth= 2
 Mixed Optimization -- En-DIIS/RFO-DIIS
 Second derivative matrix not updated -- first step.
 ITU=  0
     Eigenvalues ---    0.00463   0.01417   0.01449   0.01452   0.01476
     Eigenvalues ---    0.05393   0.05414   0.05980   0.06005   0.10091
     Eigenvalues ---    0.10103   0.10534   0.10563   0.11056   0.11097
     Eigenvalues ---    0.13611   0.13626   0.16000   0.16000   0.16000
     Eigenvalues ---    0.16000   0.16000   0.16000   0.21974   0.21978
     Eigenvalues ---    0.25000   0.25000   0.30092   0.33367   0.33482
     Eigenvalues ---    0.33486   0.33491   0.33511   0.33521   0.33521
     Eigenvalues ---    0.33755   0.34470   0.34509   0.42348   0.42706
     Eigenvalues ---    0.42744   0.43022
 RFO step:  Lambda=-2.46855359D-04 EMin= 4.63448440D-03
 Linear search not attempted -- first point.
 Iteration  1 RMS(Cart)=  0.02351440 RMS(Int)=  0.00051598
 Iteration  2 RMS(Cart)=  0.00053825 RMS(Int)=  0.00000357
 Iteration  3 RMS(Cart)=  0.00000023 RMS(Int)=  0.00000356
 ITry= 1 IFail=0 DXMaxC= 8.01D-02 DCOld= 1.00D+10 DXMaxT= 3.00D-01 DXLimC= 3.00D+00 Rises=F
 Variable       Old X    -DE/DX   Delta X   Delta X   Delta X     New X
                                 (Linear)    (Quad)   (Total)
    R1        2.68483  -0.00273   0.00000  -0.00645  -0.00645   2.67838
    R2        2.67986  -0.00055   0.00000  -0.00128  -0.00128   2.67858
    R3        2.07746   0.00117   0.00000   0.00345   0.00345   2.08091
    R4        2.08412  -0.00130   0.00000  -0.00389  -0.00389   2.08023
    R5        2.06479   0.00027   0.00000   0.00079   0.00079   2.06558
    R6        2.87780  -0.00049   0.00000  -0.00162  -0.00162   2.87619
    R7        2.08164   0.00014   0.00000   0.00040   0.00040   2.08204
    R8        2.08206   0.00012   0.00000   0.00037   0.00037   2.08243
    R9        2.68035  -0.00062   0.00000  -0.00146  -0.00146   2.67888
   R10        2.08198   0.00008   0.00000   0.00024   0.00024   2.08222
   R11        2.08212   0.00007   0.00000   0.00021   0.00021   2.08233
   R12        2.67642  -0.00083   0.00000  -0.00193  -0.00193   2.67449
   R13        2.08146   0.00006   0.00000   0.00017   0.00017   2.08163
   R14        2.08146   0.00005   0.00000   0.00016   0.00016   2.08162
   R15        2.06544  -0.00002   0.00000  -0.00006  -0.00006   2.06538
    A1        1.96628   0.00152   0.00000   0.00607   0.00607   1.97236
    A2        1.94374  -0.00056   0.00000  -0.00333  -0.00333   1.94041
    A3        1.93317   0.00168   0.00000   0.00984   0.00985   1.94302
    A4        1.87269  -0.00099   0.00000  -0.00577  -0.00576   1.86693
    A5        1.90752  -0.00089   0.00000  -0.00636  -0.00636   1.90117
    A6        1.89671   0.00123   0.00000   0.00894   0.00894   1.90564
    A7        1.90918  -0.00045   0.00000  -0.00324  -0.00323   1.90595
    A8        1.87844   0.00016   0.00000   0.00038   0.00038   1.87881
    A9        1.93295  -0.00023   0.00000  -0.00255  -0.00255   1.93040
   A10        1.93829  -0.00039   0.00000  -0.00371  -0.00371   1.93458
   A11        1.91710   0.00012   0.00000   0.00167   0.00166   1.91877
   A12        1.91342   0.00035   0.00000   0.00336   0.00336   1.91678
   A13        1.88383  -0.00001   0.00000   0.00095   0.00094   1.88477
   A14        1.88158  -0.00057   0.00000  -0.00273  -0.00273   1.87884
   A15        1.91739   0.00015   0.00000   0.00057   0.00056   1.91795
   A16        1.91709   0.00015   0.00000   0.00078   0.00078   1.91787
   A17        1.93188   0.00016   0.00000   0.00033   0.00033   1.93221
   A18        1.93150   0.00019   0.00000   0.00089   0.00089   1.93239
   A19        1.88465  -0.00008   0.00000   0.00020   0.00020   1.88485
   A20        1.97246  -0.00010   0.00000  -0.00040  -0.00040   1.97206
   A21        1.94356  -0.00014   0.00000  -0.00100  -0.00100   1.94256
   A22        1.94361  -0.00015   0.00000  -0.00106  -0.00106   1.94255
   A23        1.86585   0.00032   0.00000   0.00231   0.00231   1.86815
   A24        1.89884  -0.00004   0.00000  -0.00075  -0.00075   1.89809
   A25        1.90566  -0.00000   0.00000   0.00027   0.00027   1.90592
   A26        1.90560   0.00001   0.00000   0.00033   0.00033   1.90593
    D1        1.21822  -0.00117   0.00000  -0.06247  -0.06248   1.15574
    D2       -0.90854  -0.00080   0.00000  -0.05890  -0.05891  -0.96745
    D3       -2.99132  -0.00060   0.00000  -0.05707  -0.05706  -3.04838
    D4       -3.13675  -0.00009   0.00000  -0.00238  -0.00238  -3.13913
    D5        1.05062  -0.00021   0.00000  -0.00315  -0.00315   1.04748
    D6       -1.04230   0.00021   0.00000  -0.00021  -0.00022  -1.04252
    D7       -3.13901  -0.00003   0.00000   0.00062   0.00062  -3.13839
    D8        1.03758   0.00004   0.00000   0.00155   0.00155   1.03913
    D9       -1.03305  -0.00005   0.00000   0.00049   0.00049  -1.03256
   D10       -1.03319  -0.00014   0.00000  -0.00127  -0.00127  -1.03446
   D11       -3.13979  -0.00007   0.00000  -0.00034  -0.00034  -3.14013
   D12        1.07276  -0.00016   0.00000  -0.00140  -0.00140   1.07136
   D13        1.03404   0.00014   0.00000   0.00292   0.00292   1.03696
   D14       -1.07255   0.00020   0.00000   0.00385   0.00385  -1.06870
   D15        3.14000   0.00012   0.00000   0.00279   0.00279  -3.14040
   D16        3.14045   0.00001   0.00000   0.00053   0.00053   3.14097
   D17       -1.04526  -0.00007   0.00000  -0.00029  -0.00029  -1.04554
   D18        1.04356   0.00007   0.00000   0.00075   0.00075   1.04431
   D19        1.06135  -0.00012   0.00000  -0.00117  -0.00117   1.06018
   D20       -1.06148   0.00012   0.00000   0.00124   0.00123  -1.06024
   D21        3.14155  -0.00000   0.00000   0.00001   0.00001   3.14156
         Item               Value     Threshold  Converged?
 Maximum Force            0.002732     0.000450     NO 
 RMS     Force            0.000632     0.000300     NO 
 Maximum Displacement     0.080102     0.001800     NO 
 RMS     Displacement     0.023541     0.001200     NO 
 Predicted change in Energy=-1.248084D-04
 Lowest energy point so far.  Saving SCF results.
 GradGradGradGradGradGradGradGradGradGradGradGradGradGradGradGradGradGrad

 Leave Link  103 at Thu Mar 14 22:23:50 2024, MaxMem=  6442450944 cpu:               1.0 elap:               0.1
 (Enter /gpfs/software/gaussian/g16/l202.exe)
                          Input orientation:                          
 ---------------------------------------------------------------------
 Center     Atomic      Atomic             Coordinates (Angstroms)
 Number     Number       Type             X           Y           Z
 ---------------------------------------------------------------------
      1          8           0        1.724115   -0.516503   -0.011354
      2          6           0        2.992057    0.116828   -0.003609
      3          6           0        0.645461    0.402956    0.004387
      4          6           0       -0.646631   -0.401392   -0.002362
      5          8           0       -1.725441    0.518194    0.009052
      6          6           0       -2.991328   -0.114663    0.003297
      7          1           0        3.164349    0.650561    0.944028
      8          1           0        3.088906    0.829087   -0.837331
      9          1           0        0.683410    1.060306   -0.878982
     10          1           0        0.685222    1.038670    0.903626
     11          1           0       -0.684471   -1.057388    0.882136
     12          1           0       -0.686890   -1.038413   -0.900593
     13          1           0       -3.124012   -0.752205    0.891747
     14          1           0       -3.125900   -0.732118   -0.898949
     15          1           0       -3.745050    0.676761    0.012972
     16          1           0        3.742440   -0.670246   -0.114143
 ---------------------------------------------------------------------
                    Distance matrix (angstroms):
                    1          2          3          4          5
     1  O    0.000000
     2  C    1.417337   0.000000
     3  C    1.417444   2.363989   0.000000
     4  C    2.373556   3.675404   1.522012   0.000000
     5  O    3.601452   4.734558   2.373706   1.417604   0.000000
     6  C    4.732557   5.987865   3.673440   2.362171   1.415277
     7  H    2.085441   1.101168   2.699820   4.065196   4.980135
     8  H    2.086984   1.100810   2.619255   4.020632   4.898056
     9  H    2.078984   2.643157   1.101767   2.161951   2.623938
    10  H    2.082079   2.644684   1.101973   2.160654   2.623443
    11  H    2.625294   3.959821   2.161427   1.101862   2.080469
    12  H    2.622229   3.959017   2.161410   1.101923   2.080641
    13  H    4.937154   6.242050   4.041130   2.657051   2.085442
    14  H    4.935277   6.241133   4.040739   2.657071   2.085433
    15  H    5.597878   6.760355   4.399048   3.280678   2.025828
    16  H    2.026780   1.093060   3.279801   4.398718   5.596900
                    6          7          8          9         10
     6  C    0.000000
     7  H    6.273986   0.000000
     8  H    6.210198   1.791870   0.000000
     9  H    3.957609   3.105852   2.416942   0.000000
    10  H    3.956992   2.509648   2.975324   1.782740   0.000000
    11  H    2.642476   4.211215   4.555626   3.075266   2.503993
    12  H    2.642114   4.592091   4.212860   2.506554   3.074439
    13  H    1.101549   6.443134   6.640071   4.573526   4.209233
    14  H    1.101548   6.698925   6.408195   4.209991   4.572704
    15  H    1.092951   6.971896   6.888335   4.533645   4.533381
    16  H    6.757670   1.788419   1.788325   3.596868   3.647305
                   11         12         13         14         15
    11  H    0.000000
    12  H    1.782831   0.000000
    13  H    2.458575   3.038744   0.000000
    14  H    3.039513   2.458167   1.790810   0.000000
    15  H    3.623515   3.623363   1.788821   1.788823   0.000000
    16  H    4.554119   4.513648   6.940224   6.913309   7.608751
                   16
    16  H    0.000000
 Stoichiometry    C4H10O2
 Framework group  C1[X(C4H10O2)]
 Deg. of freedom    42
 Full point group                 C1      NOp   1
 RotChk:  IX=0 Diff= 1.86D-02
 Largest Abelian subgroup         C1      NOp   1
 Largest concise Abelian subgroup C1      NOp   1
                         Standard orientation:                         
 ---------------------------------------------------------------------
 Center     Atomic      Atomic             Coordinates (Angstroms)
 Number     Number       Type             X           Y           Z
 ---------------------------------------------------------------------
      1          8           0        1.724234   -0.518062   -0.001476
      2          6           0        2.992408    0.114848    0.000305
      3          6           0        0.645915    0.401922    0.000388
      4          6           0       -0.646478   -0.401967    0.001782
      5          8           0       -1.724946    0.518088   -0.000682
      6          6           0       -2.991069   -0.114321   -0.000477
      7          1           0        3.163221    0.660785    0.941233
      8          1           0        3.091023    0.816176   -0.842427
      9          1           0        0.685697    1.047725   -0.891379
     10          1           0        0.684323    1.049254    0.891360
     11          1           0       -0.686153   -1.046400    0.894660
     12          1           0       -0.685387   -1.050591   -0.888167
     13          1           0       -3.125588   -0.740216    0.895944
     14          1           0       -3.124276   -0.743399   -0.894862
     15          1           0       -3.744496    0.677440   -0.002433
     16          1           0        3.742679   -0.673874   -0.098651
 ---------------------------------------------------------------------
 Rotational constants (GHZ):          18.9594916           1.2759298           1.2330284
 Leave Link  202 at Thu Mar 14 22:23:50 2024, MaxMem=  6442450944 cpu:               1.1 elap:               0.1
 (Enter /gpfs/software/gaussian/g16/l301.exe)
 Standard basis: 6-31+G(d) (6D, 7F)
 Ernie: Thresh=  0.10000D-02 Tol=  0.10000D-05 Strict=F.
 There are   134 symmetry adapted cartesian basis functions of A   symmetry.
 There are   134 symmetry adapted basis functions of A   symmetry.
   134 basis functions,   232 primitive gaussians,   134 cartesian basis functions
    25 alpha electrons       25 beta electrons
       nuclear repulsion energy       251.7057498864 Hartrees.
 IExCor=  402 DFT=T Ex+Corr=B3LYP ExCW=0 ScaHFX=  0.200000
 ScaDFX=  0.800000  0.720000  1.000000  0.810000 ScalE2=  1.000000  1.000000
 IRadAn=      5 IRanWt=     -1 IRanGd=            0 ICorTp=0 IEmpDi=  4
 NAtoms=   16 NActive=   16 NUniq=   16 SFac= 1.00D+00 NAtFMM=   60 NAOKFM=F Big=F
 Integral buffers will be    131072 words long.
 Raffenetti 2 integral format.
 Two-electron integral symmetry is turned on.
 Leave Link  301 at Thu Mar 14 22:23:51 2024, MaxMem=  6442450944 cpu:               1.8 elap:               0.1
 (Enter /gpfs/software/gaussian/g16/l302.exe)
 NPDir=0 NMtPBC=     1 NCelOv=     1 NCel=       1 NClECP=     1 NCelD=      1
         NCelK=      1 NCelE2=     1 NClLst=     1 CellRange=     0.0.
 One-electron integrals computed using PRISM.
 One-electron integral symmetry used in STVInt
 NBasis=   134 RedAO= T EigKep=  6.90D-05  NBF=   134
 NBsUse=   134 1.00D-06 EigRej= -1.00D+00 NBFU=   134
 Precomputing XC quadrature grid using
 IXCGrd= 4 IRadAn=           5 IRanWt=          -1 IRanGd=           0 AccXCQ= 0.00D+00.
 Generated NRdTot=       0 NPtTot=           0 NUsed=           0 NTot=          32
 NSgBfM=   134   134   134   134   134 MxSgAt=    16 MxSgA2=    16.
 Leave Link  302 at Thu Mar 14 22:23:51 2024, MaxMem=  6442450944 cpu:               6.9 elap:               0.3
 (Enter /gpfs/software/gaussian/g16/l303.exe)
 DipDrv:  MaxL=1.
 Leave Link  303 at Thu Mar 14 22:23:51 2024, MaxMem=  6442450944 cpu:               1.0 elap:               0.1
 (Enter /gpfs/software/gaussian/g16/l401.exe)
 Initial guess from the checkpoint file:  "Optimization.chk"
 B after Tr=    -0.000000   -0.000000    0.000000
         Rot=    0.999989    0.004631    0.000225    0.000034 Ang=   0.53 deg.
 Guess basis will be translated and rotated to current coordinates.
 JPrj=2 DoOrth=T DoCkMO=T.
 Generating alternative initial guess.
 ExpMin= 4.38D-02 ExpMax= 5.48D+03 ExpMxC= 8.25D+02 IAcc=3 IRadAn=         5 AccDes= 0.00D+00
 Harris functional with IExCor=  402 and IRadAn=       5 diagonalized for initial guess.
 HarFok:  IExCor=  402 AccDes= 0.00D+00 IRadAn=         5 IDoV= 1 UseB2=F ITyADJ=14
 ICtDFT=  3500011 ScaDFX=  1.000000  1.000000  1.000000  1.000000
 FoFCou: FMM=F IPFlag=           0 FMFlag=      100000 FMFlg1=           0
         NFxFlg=           0 DoJE=T BraDBF=F KetDBF=T FulRan=T
         wScrn=  0.000000 ICntrl=       500 IOpCl=  0 I1Cent=   200000004 NGrid=           0
         NMat0=    1 NMatS0=      1 NMatT0=    0 NMatD0=    1 NMtDS0=    0 NMtDT0=    0
 Petite list used in FoFCou.
 Harris En= -308.877466233942    
 Leave Link  401 at Thu Mar 14 22:23:51 2024, MaxMem=  6442450944 cpu:              14.0 elap:               0.5
 (Enter /gpfs/software/gaussian/g16/l502.exe)
 Integral symmetry usage will be decided dynamically.
 Closed shell SCF:
 Using DIIS extrapolation, IDIIS=  1040.
 NGot=  6442450944 LenX=  6442409262 LenY=  6442390865
 Requested convergence on RMS density matrix=1.00D-08 within 128 cycles.
 Requested convergence on MAX density matrix=1.00D-06.
 Requested convergence on             energy=1.00D-06.
 No special actions if energy rises.
 Fock matrices will be formed incrementally for  20 cycles.

 Cycle   1  Pass 1  IDiag  1:
 FoFJK:  IHMeth= 1 ICntrl=       0 DoSepK=F KAlg= 0 I1Cent=           0 FoldK=F
 IRaf= 950000000 NMat=       1 IRICut=       1 DoRegI=T DoRafI=F ISym2E= 0 IDoP0=0 IntGTp=1.
 FoFCou: FMM=F IPFlag=           0 FMFlag=      100000 FMFlg1=           0
         NFxFlg=           0 DoJE=F BraDBF=F KetDBF=F FulRan=T
         wScrn=  0.000000 ICntrl=         0 IOpCl=  0 I1Cent=           0 NGrid=           0
         NMat0=    1 NMatS0=      1 NMatT0=    0 NMatD0=    1 NMtDS0=    0 NMtDT0=    0
 Symmetry not used in FoFCou.
 E= -308.870582780090    
 DIIS: error= 1.21D-03 at cycle   1 NSaved=   1.
 NSaved= 1 IEnMin= 1 EnMin= -308.870582780090     IErMin= 1 ErrMin= 1.21D-03
 ErrMax= 1.21D-03  0.00D+00 EMaxC= 1.00D-01 BMatC= 3.24D-04 BMatP= 3.24D-04
 IDIUse=3 WtCom= 9.88D-01 WtEn= 1.21D-02
 Coeff-Com:  0.100D+01
 Coeff-En:   0.100D+01
 Coeff:      0.100D+01
 Gap=     0.662 Goal=   None    Shift=    0.000
 GapD=    0.662 DampG=2.000 DampE=1.000 DampFc=2.0000 IDamp=-1.
 RMSDP=2.38D-04 MaxDP=6.23D-03              OVMax= 7.41D-03

 Cycle   2  Pass 1  IDiag  1:
 RMSU=  2.38D-04    CP:  1.00D+00
 E= -308.871262503005     Delta-E=       -0.000679722915 Rises=F Damp=F
 DIIS: error= 1.41D-04 at cycle   2 NSaved=   2.
 NSaved= 2 IEnMin= 2 EnMin= -308.871262503005     IErMin= 2 ErrMin= 1.41D-04
 ErrMax= 1.41D-04  0.00D+00 EMaxC= 1.00D-01 BMatC= 3.22D-06 BMatP= 3.24D-04
 IDIUse=3 WtCom= 9.99D-01 WtEn= 1.41D-03
 Coeff-Com: -0.917D-01 0.109D+01
 Coeff-En:   0.000D+00 0.100D+01
 Coeff:     -0.916D-01 0.109D+01
 Gap=     0.276 Goal=   None    Shift=    0.000
 RMSDP=3.88D-05 MaxDP=1.11D-03 DE=-6.80D-04 OVMax= 9.69D-04

 Cycle   3  Pass 1  IDiag  1:
 RMSU=  3.03D-05    CP:  1.00D+00  1.10D+00
 E= -308.871269910904     Delta-E=       -0.000007407899 Rises=F Damp=F
 DIIS: error= 3.63D-05 at cycle   3 NSaved=   3.
 NSaved= 3 IEnMin= 3 EnMin= -308.871269910904     IErMin= 3 ErrMin= 3.63D-05
 ErrMax= 3.63D-05  0.00D+00 EMaxC= 1.00D-01 BMatC= 3.29D-07 BMatP= 3.22D-06
 IDIUse=1 WtCom= 1.00D+00 WtEn= 0.00D+00
 Coeff-Com: -0.335D-01 0.372D+00 0.662D+00
 Coeff:     -0.335D-01 0.372D+00 0.662D+00
 Gap=     0.276 Goal=   None    Shift=    0.000
 RMSDP=7.86D-06 MaxDP=1.91D-04 DE=-7.41D-06 OVMax= 1.47D-04

 Cycle   4  Pass 1  IDiag  1:
 RMSU=  6.71D-06    CP:  1.00D+00  1.10D+00  8.65D-01
 E= -308.871270134790     Delta-E=       -0.000000223886 Rises=F Damp=F
 DIIS: error= 1.97D-05 at cycle   4 NSaved=   4.
 NSaved= 4 IEnMin= 4 EnMin= -308.871270134790     IErMin= 4 ErrMin= 1.97D-05
 ErrMax= 1.97D-05  0.00D+00 EMaxC= 1.00D-01 BMatC= 1.03D-07 BMatP= 3.29D-07
 IDIUse=1 WtCom= 1.00D+00 WtEn= 0.00D+00
 Coeff-Com: -0.789D-02 0.792D-01 0.364D+00 0.565D+00
 Coeff:     -0.789D-02 0.792D-01 0.364D+00 0.565D+00
 Gap=     0.276 Goal=   None    Shift=    0.000
 RMSDP=2.26D-06 MaxDP=7.24D-05 DE=-2.24D-07 OVMax= 5.58D-05

 Cycle   5  Pass 1  IDiag  1:
 RMSU=  2.12D-06    CP:  1.00D+00  1.10D+00  8.84D-01  9.17D-01
 E= -308.871270207094     Delta-E=       -0.000000072304 Rises=F Damp=F
 DIIS: error= 6.06D-06 at cycle   5 NSaved=   5.
 NSaved= 5 IEnMin= 5 EnMin= -308.871270207094     IErMin= 5 ErrMin= 6.06D-06
 ErrMax= 6.06D-06  0.00D+00 EMaxC= 1.00D-01 BMatC= 8.18D-09 BMatP= 1.03D-07
 IDIUse=1 WtCom= 1.00D+00 WtEn= 0.00D+00
 Coeff-Com: -0.454D-03 0.437D-03 0.116D+00 0.283D+00 0.601D+00
 Coeff:     -0.454D-03 0.437D-03 0.116D+00 0.283D+00 0.601D+00
 Gap=     0.276 Goal=   None    Shift=    0.000
 RMSDP=9.95D-07 MaxDP=2.83D-05 DE=-7.23D-08 OVMax= 1.90D-05

 Cycle   6  Pass 1  IDiag  1:
 RMSU=  6.66D-07    CP:  1.00D+00  1.10D+00  9.04D-01  9.07D-01  7.94D-01
 E= -308.871270212835     Delta-E=       -0.000000005741 Rises=F Damp=F
 DIIS: error= 2.11D-06 at cycle   6 NSaved=   6.
 NSaved= 6 IEnMin= 6 EnMin= -308.871270212835     IErMin= 6 ErrMin= 2.11D-06
 ErrMax= 2.11D-06  0.00D+00 EMaxC= 1.00D-01 BMatC= 6.99D-10 BMatP= 8.18D-09
 IDIUse=1 WtCom= 1.00D+00 WtEn= 0.00D+00
 Coeff-Com:  0.327D-03-0.550D-02 0.335D-01 0.104D+00 0.310D+00 0.558D+00
 Coeff:      0.327D-03-0.550D-02 0.335D-01 0.104D+00 0.310D+00 0.558D+00
 Gap=     0.276 Goal=   None    Shift=    0.000
 RMSDP=2.64D-07 MaxDP=5.69D-06 DE=-5.74D-09 OVMax= 5.23D-06

 Cycle   7  Pass 1  IDiag  1:
 RMSU=  2.25D-07    CP:  1.00D+00  1.10D+00  9.07D-01  9.08D-01  8.05D-01
                    CP:  8.84D-01
 E= -308.871270213436     Delta-E=       -0.000000000601 Rises=F Damp=F
 DIIS: error= 3.11D-07 at cycle   7 NSaved=   7.
 NSaved= 7 IEnMin= 7 EnMin= -308.871270213436     IErMin= 7 ErrMin= 3.11D-07
 ErrMax= 3.11D-07  0.00D+00 EMaxC= 1.00D-01 BMatC= 1.84D-11 BMatP= 6.99D-10
 IDIUse=1 WtCom= 1.00D+00 WtEn= 0.00D+00
 Coeff-Com:  0.141D-03-0.203D-02 0.577D-02 0.214D-01 0.747D-01 0.204D+00
 Coeff-Com:  0.696D+00
 Coeff:      0.141D-03-0.203D-02 0.577D-02 0.214D-01 0.747D-01 0.204D+00
 Coeff:      0.696D+00
 Gap=     0.276 Goal=   None    Shift=    0.000
 RMSDP=5.71D-08 MaxDP=9.80D-07 DE=-6.01D-10 OVMax= 1.03D-06

 Cycle   8  Pass 1  IDiag  1:
 RMSU=  4.24D-08    CP:  1.00D+00  1.10D+00  9.07D-01  9.12D-01  8.14D-01
                    CP:  9.07D-01  9.39D-01
 E= -308.871270213449     Delta-E=       -0.000000000013 Rises=F Damp=F
 DIIS: error= 1.28D-07 at cycle   8 NSaved=   8.
 NSaved= 8 IEnMin= 8 EnMin= -308.871270213449     IErMin= 8 ErrMin= 1.28D-07
 ErrMax= 1.28D-07  0.00D+00 EMaxC= 1.00D-01 BMatC= 4.21D-12 BMatP= 1.84D-11
 IDIUse=1 WtCom= 1.00D+00 WtEn= 0.00D+00
 Coeff-Com:  0.604D-04-0.840D-03 0.149D-02 0.656D-02 0.255D-01 0.875D-01
 Coeff-Com:  0.404D+00 0.476D+00
 Coeff:      0.604D-04-0.840D-03 0.149D-02 0.656D-02 0.255D-01 0.875D-01
 Coeff:      0.404D+00 0.476D+00
 Gap=     0.276 Goal=   None    Shift=    0.000
 RMSDP=1.49D-08 MaxDP=4.69D-07 DE=-1.34D-11 OVMax= 3.68D-07

 Cycle   9  Pass 1  IDiag  1:
 RMSU=  1.17D-08    CP:  1.00D+00  1.10D+00  9.07D-01  9.12D-01  8.15D-01
                    CP:  9.13D-01  9.59D-01  8.74D-01
 E= -308.871270213453     Delta-E=       -0.000000000004 Rises=F Damp=F
 DIIS: error= 2.24D-08 at cycle   9 NSaved=   9.
 NSaved= 9 IEnMin= 9 EnMin= -308.871270213453     IErMin= 9 ErrMin= 2.24D-08
 ErrMax= 2.24D-08  0.00D+00 EMaxC= 1.00D-01 BMatC= 1.58D-13 BMatP= 4.21D-12
 IDIUse=1 WtCom= 1.00D+00 WtEn= 0.00D+00
 Coeff-Com:  0.687D-05-0.858D-04-0.135D-03-0.120D-03 0.293D-03 0.898D-02
 Coeff-Com:  0.785D-01 0.199D+00 0.714D+00
 Coeff:      0.687D-05-0.858D-04-0.135D-03-0.120D-03 0.293D-03 0.898D-02
 Coeff:      0.785D-01 0.199D+00 0.714D+00
 Gap=     0.276 Goal=   None    Shift=    0.000
 RMSDP=6.94D-09 MaxDP=1.93D-07 DE=-3.87D-12 OVMax= 8.70D-08

 SCF Done:  E(RB3LYP) =  -308.871270213     A.U. after    9 cycles
            NFock=  9  Conv=0.69D-08     -V/T= 2.0094
 KE= 3.059823688181D+02 PE=-1.223853173249D+03 EE= 3.572937843306D+02
 Leave Link  502 at Thu Mar 14 22:23:54 2024, MaxMem=  6442450944 cpu:              78.0 elap:               2.8
 (Enter /gpfs/software/gaussian/g16/l701.exe)
 ... and contract with generalized density number  0.
 Compute integral first derivatives.
 Leave Link  701 at Thu Mar 14 22:23:54 2024, MaxMem=  6442450944 cpu:               4.4 elap:               0.2
 (Enter /gpfs/software/gaussian/g16/l702.exe)
 L702 exits ... SP integral derivatives will be done elsewhere.
 Leave Link  702 at Thu Mar 14 22:23:55 2024, MaxMem=  6442450944 cpu:               0.6 elap:               0.0
 (Enter /gpfs/software/gaussian/g16/l703.exe)
 Integral derivatives from FoFJK, PRISM(SPDF).
 Compute integral first derivatives, UseDBF=F ICtDFT=           0.
 Calling FoFJK, ICntrl=      2127 FMM=F ISym2X=0 I1Cent= 0 IOpClX= 0 NMat=1 NMatS=1 NMatT=0.
 FoFJK:  IHMeth= 1 ICntrl=    2127 DoSepK=F KAlg= 0 I1Cent=           0 FoldK=F
 IRaf=         0 NMat=       1 IRICut=       1 DoRegI=T DoRafI=F ISym2E= 0 IDoP0=0 IntGTp=1.
 FoFCou: FMM=F IPFlag=           0 FMFlag=      100000 FMFlg1=         800
         NFxFlg=           0 DoJE=F BraDBF=F KetDBF=F FulRan=T
         wScrn=  0.000000 ICntrl=      2127 IOpCl=  0 I1Cent=           0 NGrid=           0
         NMat0=    1 NMatS0=      1 NMatT0=    0 NMatD0=    1 NMtDS0=    0 NMtDT0=    0
 Symmetry not used in FoFCou.
 Leave Link  703 at Thu Mar 14 22:23:55 2024, MaxMem=  6442450944 cpu:              18.9 elap:               0.7
 (Enter /gpfs/software/gaussian/g16/l716.exe)
 Dipole        = 3.63243560D-03 1.73519383D-03-2.45537903D-03
 ***** Axes restored to original set *****
 -------------------------------------------------------------------
 Center     Atomic                   Forces (Hartrees/Bohr)
 Number     Number              X              Y              Z
 -------------------------------------------------------------------
      1        8           0.001082057    0.000639946   -0.000913867
      2        6          -0.001169602   -0.001329607    0.000578563
      3        6          -0.000073937   -0.000267403    0.000517829
      4        6           0.000058452    0.000341728   -0.000038665
      5        8          -0.000143290   -0.000209223   -0.000011087
      6        6           0.000251010    0.000207231    0.000005718
      7        1           0.000048200    0.000559082   -0.000087068
      8        1           0.000128353    0.000089716   -0.000295394
      9        1          -0.000113716    0.000081425    0.000005791
     10        1           0.000068126   -0.000005436    0.000022479
     11        1          -0.000001622   -0.000043305    0.000002757
     12        1           0.000008527   -0.000013688    0.000012619
     13        1          -0.000075096   -0.000050103    0.000022371
     14        1          -0.000074702   -0.000049263   -0.000021660
     15        1          -0.000008235   -0.000029971    0.000000253
     16        1           0.000015475    0.000078870    0.000199360
 -------------------------------------------------------------------
 Cartesian Forces:  Max     0.001329607 RMS     0.000383214
 Leave Link  716 at Thu Mar 14 22:23:55 2024, MaxMem=  6442450944 cpu:               0.7 elap:               0.0
 (Enter /gpfs/software/gaussian/g16/l103.exe)

 GradGradGradGradGradGradGradGradGradGradGradGradGradGradGradGradGradGrad
 Berny optimization.
 Using GEDIIS/GDIIS optimizer.
 FormGI is forming the generalized inverse of G from B-inverse, IUseBI=4.
 Internal  Forces:  Max     0.001141518 RMS     0.000210316
 Search for a local minimum.
 Step number   2 out of a maximum of    5
 All quantities printed in internal units (Hartrees-Bohrs-Radians)
 RMS Force = .21032D-03 SwitMx=.10000D-02 MixMth= 2
 Mixed Optimization -- En-DIIS/RFO-DIIS
 Swapping is turned off.
 Update second derivatives using D2CorX and points    1    2
 DE= -1.75D-04 DEPred=-1.25D-04 R= 1.40D+00
 TightC=F SS=  1.41D+00  RLast= 1.05D-01 DXNew= 5.0454D-01 3.1647D-01
 Trust test= 1.40D+00 RLast= 1.05D-01 DXMaxT set to 3.16D-01
 ITU=  1  0
     Eigenvalues ---    0.00464   0.00701   0.01449   0.01452   0.01476
     Eigenvalues ---    0.05408   0.05413   0.05977   0.06034   0.10032
     Eigenvalues ---    0.10124   0.10505   0.10552   0.11081   0.11159
     Eigenvalues ---    0.13589   0.13614   0.15874   0.16000   0.16000
     Eigenvalues ---    0.16000   0.16000   0.18077   0.21965   0.22275
     Eigenvalues ---    0.24952   0.25570   0.30099   0.33480   0.33483
     Eigenvalues ---    0.33489   0.33504   0.33517   0.33521   0.33606
     Eigenvalues ---    0.34403   0.34470   0.35104   0.41106   0.42717
     Eigenvalues ---    0.42886   0.43278
 En-DIIS/RFO-DIIS/Sim-DIIS IScMMF=       -3 using points:     2    1
 RFO step:  Lambda=-1.37815110D-04.
 NNeg= 0 NGDIIS= 2 SimSw=  2.50D-03 Rises=F DC= -1.75D-04 SmlDif=  1.00D-05
 NRisDI= 0 DoIntr=F SqrtH=F CThrHd= 10.0 CDAdj=  3.0
 RMS Error=  0.1723624243D-01 NUsed= 2 OKEnD=T EnDIS=F
 InvSVX:  RCond= 2.65D-03 Info=           0 Equed=N FErr=  6.78D-15 BErr=  4.99D-17
 DidBck=F Rises=F RFO-DIIS coefs:    2.28999   -1.28999
 Iteration  1 RMS(Cart)=  0.03129735 RMS(Int)=  0.00089658
 Iteration  2 RMS(Cart)=  0.00093679 RMS(Int)=  0.00000469
 Iteration  3 RMS(Cart)=  0.00000071 RMS(Int)=  0.00000466
 ITry= 1 IFail=0 DXMaxC= 1.18D-01 DCOld= 1.00D+10 DXMaxT= 3.16D-01 DXLimC= 3.00D+00 Rises=F
 Variable       Old X    -DE/DX   Delta X   Delta X   Delta X     New X
                                 (Linear)    (Quad)   (Total)
    R1        2.67838  -0.00114  -0.00832   0.00197  -0.00635   2.67203
    R2        2.67858   0.00006  -0.00165   0.00155  -0.00010   2.67848
    R3        2.08091   0.00020   0.00445  -0.00249   0.00196   2.08287
    R4        2.08023   0.00029  -0.00502   0.00547   0.00045   2.08068
    R5        2.06558  -0.00007   0.00102  -0.00114  -0.00011   2.06547
    R6        2.87619  -0.00009  -0.00209   0.00112  -0.00097   2.87522
    R7        2.08204   0.00004   0.00052  -0.00021   0.00031   2.08235
    R8        2.08243   0.00002   0.00047  -0.00028   0.00019   2.08262
    R9        2.67888  -0.00005  -0.00189   0.00130  -0.00058   2.67830
   R10        2.08222   0.00003   0.00031  -0.00010   0.00021   2.08243
   R11        2.08233  -0.00000   0.00027  -0.00023   0.00004   2.08238
   R12        2.67449  -0.00012  -0.00250   0.00150  -0.00099   2.67350
   R13        2.08163   0.00006   0.00021   0.00012   0.00033   2.08196
   R14        2.08162   0.00005   0.00021   0.00011   0.00032   2.08195
   R15        2.06538  -0.00002  -0.00008  -0.00002  -0.00010   2.06528
    A1        1.97236   0.00014   0.00783  -0.00521   0.00262   1.97498
    A2        1.94041   0.00033  -0.00429   0.00693   0.00264   1.94306
    A3        1.94302  -0.00009   0.01271  -0.01147   0.00125   1.94427
    A4        1.86693   0.00012  -0.00743   0.00758   0.00016   1.86709
    A5        1.90117  -0.00030  -0.00820   0.00252  -0.00566   1.89550
    A6        1.90564   0.00000   0.01153  -0.00811   0.00342   1.90906
    A7        1.90595  -0.00006  -0.00416   0.00249  -0.00166   1.90429
    A8        1.87881   0.00008   0.00049   0.00045   0.00094   1.87975
    A9        1.93040   0.00009  -0.00329   0.00477   0.00148   1.93188
   A10        1.93458  -0.00011  -0.00478   0.00211  -0.00267   1.93191
   A11        1.91877  -0.00011   0.00215  -0.00267  -0.00053   1.91824
   A12        1.91678   0.00005   0.00434  -0.00323   0.00111   1.91788
   A13        1.88477  -0.00000   0.00121  -0.00151  -0.00031   1.88445
   A14        1.87884   0.00013  -0.00353   0.00396   0.00043   1.87927
   A15        1.91795  -0.00002   0.00073  -0.00066   0.00007   1.91802
   A16        1.91787  -0.00003   0.00100  -0.00111  -0.00011   1.91776
   A17        1.93221  -0.00004   0.00043  -0.00039   0.00004   1.93226
   A18        1.93239  -0.00003   0.00115  -0.00101   0.00014   1.93254
   A19        1.88485  -0.00001   0.00025  -0.00083  -0.00057   1.88428
   A20        1.97206   0.00017  -0.00051   0.00160   0.00108   1.97314
   A21        1.94256   0.00009  -0.00129   0.00200   0.00071   1.94327
   A22        1.94255   0.00009  -0.00137   0.00207   0.00070   1.94325
   A23        1.86815  -0.00000   0.00298  -0.00242   0.00056   1.86871
   A24        1.89809  -0.00007  -0.00097   0.00010  -0.00087   1.89722
   A25        1.90592  -0.00005   0.00035  -0.00092  -0.00057   1.90535
   A26        1.90593  -0.00005   0.00042  -0.00097  -0.00054   1.90539
    D1        1.15574  -0.00069  -0.08060  -0.00232  -0.08293   1.07281
    D2       -0.96745  -0.00048  -0.07599  -0.00240  -0.07839  -1.04584
    D3       -3.04838  -0.00043  -0.07361  -0.00359  -0.07718  -3.12556
    D4       -3.13913  -0.00004  -0.00307   0.00125  -0.00182  -3.14094
    D5        1.04748  -0.00001  -0.00406   0.00143  -0.00262   1.04486
    D6       -1.04252   0.00001  -0.00028  -0.00117  -0.00146  -1.04397
    D7       -3.13839  -0.00005   0.00080  -0.00235  -0.00155  -3.13994
    D8        1.03913  -0.00007   0.00200  -0.00391  -0.00191   1.03723
    D9       -1.03256  -0.00003   0.00063  -0.00181  -0.00118  -1.03374
   D10       -1.03446   0.00005  -0.00164   0.00215   0.00050  -1.03396
   D11       -3.14013   0.00003  -0.00044   0.00059   0.00015  -3.13998
   D12        1.07136   0.00007  -0.00181   0.00269   0.00088   1.07224
   D13        1.03696   0.00000   0.00377  -0.00330   0.00047   1.03743
   D14       -1.06870  -0.00002   0.00497  -0.00485   0.00012  -1.06858
   D15       -3.14040   0.00002   0.00360  -0.00276   0.00085  -3.13955
   D16        3.14097  -0.00000   0.00068  -0.00004   0.00064  -3.14157
   D17       -1.04554   0.00003  -0.00037   0.00139   0.00102  -1.04452
   D18        1.04431  -0.00002   0.00097  -0.00055   0.00042   1.04473
   D19        1.06018   0.00002  -0.00151   0.00146  -0.00005   1.06013
   D20       -1.06024  -0.00001   0.00159  -0.00150   0.00009  -1.06016
   D21        3.14156  -0.00000   0.00002  -0.00001   0.00000   3.14156
         Item               Value     Threshold  Converged?
 Maximum Force            0.001142     0.000450     NO 
 RMS     Force            0.000210     0.000300     YES
 Maximum Displacement     0.118423     0.001800     NO 
 RMS     Displacement     0.031354     0.001200     NO 
 Predicted change in Energy=-7.020157D-05
 Lowest energy point so far.  Saving SCF results.
 GradGradGradGradGradGradGradGradGradGradGradGradGradGradGradGradGradGrad

 Leave Link  103 at Thu Mar 14 22:23:56 2024, MaxMem=  6442450944 cpu:               3.5 elap:               0.2
 (Enter /gpfs/software/gaussian/g16/l202.exe)
                          Input orientation:                          
 ---------------------------------------------------------------------
 Center     Atomic      Atomic             Coordinates (Angstroms)
 Number     Number       Type             X           Y           Z
 ---------------------------------------------------------------------
      1          8           0        1.724982   -0.514528   -0.021923
      2          6           0        2.990816    0.115393   -0.008046
      3          6           0        0.645287    0.403212    0.009773
      4          6           0       -0.646165   -0.401018   -0.008277
      5          8           0       -1.725358    0.517244    0.021202
      6          6           0       -2.991026   -0.114763    0.007920
      7          1           0        3.134724    0.705837    0.911478
      8          1           0        3.118037    0.780606   -0.876157
      9          1           0        0.680525    1.076031   -0.862196
     10          1           0        0.688007    1.023417    0.919764
     11          1           0       -0.681947   -1.072584    0.864684
     12          1           0       -0.687788   -1.022675   -0.917174
     13          1           0       -3.122495   -0.767438    0.885717
     14          1           0       -3.128730   -0.717291   -0.904100
     15          1           0       -3.744826    0.676187    0.032730
     16          1           0        3.742192   -0.677194   -0.051476
 ---------------------------------------------------------------------
                    Distance matrix (angstroms):
                    1          2          3          4          5
     1  O    0.000000
     2  C    1.413977   0.000000
     3  C    1.417390   2.363190   0.000000
     4  C    2.373901   3.673460   1.521499   0.000000
     5  O    3.601563   4.733353   2.373413   1.417297   0.000000
     6  C    4.733015   5.986289   3.673020   2.362325   1.414753
     7  H    2.085162   1.102206   2.664949   4.045515   4.944548
     8  H    2.085112   1.101049   2.653637   4.039637   4.932858
     9  H    2.080103   2.643832   1.101933   2.161239   2.623148
    10  H    2.080233   2.643534   1.102073   2.161085   2.624491
    11  H    2.625034   3.957541   2.161110   1.101972   2.080317
    12  H    2.623194   3.956494   2.160897   1.101946   2.080493
    13  H    4.938198   6.241055   4.041519   2.658138   2.085614
    14  H    4.937394   6.240602   4.041521   2.658130   2.085596
    15  H    5.598177   6.759070   4.398651   3.280816   2.025747
    16  H    2.023974   1.092999   3.280526   4.397251   5.596969
[...]
 ! A11   A(4,3,9)              109.8827         -DE/DX =    0.0                 !
 ! A12   A(4,3,10)             109.8873         -DE/DX =    0.0                 !
 ! A13   A(9,3,10)             107.9623         -DE/DX =    0.0                 !
 ! A14   A(3,4,5)              107.6843         -DE/DX =    0.0                 !
 ! A15   A(3,4,11)             109.8869         -DE/DX =    0.0                 !
 ! A16   A(3,4,12)             109.8814         -DE/DX =    0.0                 !
 ! A17   A(5,4,11)             110.7138         -DE/DX =    0.0                 !
 ! A18   A(5,4,12)             110.7168         -DE/DX =    0.0                 !
 ! A19   A(11,4,12)            107.9623         -DE/DX =    0.0                 !
 ! A20   A(4,5,6)              113.0421         -DE/DX =    0.0                 !
 ! A21   A(5,6,13)             111.3381         -DE/DX =    0.0                 !
 ! A22   A(5,6,14)             111.3376         -DE/DX =    0.0                 !
 ! A23   A(5,6,15)             107.0466         -DE/DX =    0.0                 !
 ! A24   A(13,6,14)            108.7183         -DE/DX =    0.0                 !
 ! A25   A(13,6,15)            109.1757         -DE/DX =    0.0                 !
 ! A26   A(14,6,15)            109.1757         -DE/DX =    0.0                 !
 ! D1    D(3,1,2,7)             60.7682         -DE/DX =    0.0                 !
 ! D2    D(3,1,2,8)            -60.7306         -DE/DX =    0.0                 !
 ! D3    D(3,1,2,16)           180.0169         -DE/DX =    0.0                 !
 ! D4    D(2,1,3,4)           -179.9818         -DE/DX =    0.0                 !
 ! D5    D(2,1,3,9)             59.8718         -DE/DX =    0.0                 !
 ! D6    D(2,1,3,10)           -59.8314         -DE/DX =    0.0                 !
 ! D7    D(1,3,4,5)           -179.9652         -DE/DX =    0.0                 !
 ! D8    D(1,3,4,11)            59.3629         -DE/DX =    0.0                 !
 ! D9    D(1,3,4,12)           -59.293          -DE/DX =    0.0                 !
 ! D10   D(9,3,4,5)            -59.2934         -DE/DX =    0.0                 !
 ! D11   D(9,3,4,11)          -179.9653         -DE/DX =    0.0                 !
 ! D12   D(9,3,4,12)            61.3789         -DE/DX =    0.0                 !
 ! D13   D(10,3,4,5)            59.3634         -DE/DX =    0.0                 !
 ! D14   D(10,3,4,11)          -61.3085         -DE/DX =    0.0                 !
 ! D15   D(10,3,4,12)         -179.9643         -DE/DX =    0.0                 !
 ! D16   D(3,4,5,6)           -179.9881         -DE/DX =    0.0                 !
 ! D17   D(11,4,5,6)           -59.8373         -DE/DX =    0.0                 !
 ! D18   D(12,4,5,6)            59.8661         -DE/DX =    0.0                 !
 ! D19   D(4,5,6,13)            60.7497         -DE/DX =    0.0                 !
 ! D20   D(4,5,6,14)           -60.75           -DE/DX =    0.0                 !
 ! D21   D(4,5,6,15)          -180.0001         -DE/DX =    0.0                 !
 --------------------------------------------------------------------------------
 Lowest energy point so far.  Saving SCF results.
 Largest change from initial coordinates is atom    8       0.157 Angstoms.
 GradGradGradGradGradGradGradGradGradGradGradGradGradGradGradGradGradGrad

 Leave Link  103 at Thu Mar 14 22:24:10 2024, MaxMem=  6442450944 cpu:               0.9 elap:               0.1
 (Enter /gpfs/software/gaussian/g16/l202.exe)
                          Input orientation:                          
 ---------------------------------------------------------------------
 Center     Atomic      Atomic             Coordinates (Angstroms)
 Number     Number       Type             X           Y           Z
 ---------------------------------------------------------------------
      1          8           0        1.724766   -0.515931   -0.023835
      2          6           0        2.990562    0.115812   -0.008761
      3          6           0        0.645786    0.402566    0.010315
      4          6           0       -0.646269   -0.401186   -0.009737
      5          8           0       -1.725282    0.517315    0.023593
      6          6           0       -2.991116   -0.114609    0.009118
      7          1           0        3.129258    0.714073    0.905879
      8          1           0        3.121499    0.772363   -0.883777
      9          1           0        0.680788    1.077577   -0.859983
     10          1           0        0.688703    1.020559    0.921642
     11          1           0       -0.681627   -1.075777    0.860873
     12          1           0       -0.688791   -1.019623   -0.920789
     13          1           0       -3.121997   -0.770039    0.884891
     14          1           0       -3.129527   -0.713940   -0.904852
     15          1           0       -3.744561    0.676638    0.037091
     16          1           0        3.744044   -0.675365   -0.037748
 ---------------------------------------------------------------------
                    Distance matrix (angstroms):
                    1          2          3          4          5
     1  O    0.000000
     2  C    1.414768   0.000000
     3  C    1.417393   2.362323   0.000000
     4  C    2.373852   3.673395   1.521783   0.000000
     5  O    3.601760   4.733016   2.373880   1.417400   0.000000
     6  C    4.733042   5.986141   3.673490   2.362369   1.414876
     7  H    2.085636   1.101689   2.658328   4.041876   4.937986
     8  H    2.085681   1.101752   2.658064   4.041935   4.937576
     9  H    2.080457   2.642845   1.101945   2.161189   2.623694
    10  H    2.080422   2.642494   1.101941   2.161244   2.624323
    11  H    2.624283   3.957414   2.161244   1.101946   2.080432
    12  H    2.623640   3.957101   2.161174   1.101948   2.080469
    13  H    4.937759   6.240732   4.041791   2.658127   2.085648
    14  H    4.937566   6.240750   4.041918   2.658123   2.085642
    15  H    5.598166   6.758588   4.398974   3.280748   2.025599
    16  H    2.025610   1.092949   3.280770   4.398955   5.598194
                    6          7          8          9         10
     6  C    0.000000
     7  H    6.240983   0.000000
     8  H    6.240837   1.790622   0.000000
     9  H    3.957211   3.040627   2.459836   0.000000
    10  H    3.957572   2.459775   3.039677   1.782554   0.000000
    11  H    2.642550   4.210515   4.574188   3.074809   2.505219
    12  H    2.642817   4.573830   4.210806   2.505532   3.074798
    13  H    1.101679   6.425047   6.669965   4.573778   4.210586
    14  H    1.101679   6.670110   6.425330   4.210706   4.574216
    15  H    1.092947   6.928606   6.928199   4.533123   4.533712
    16  H    6.758626   1.788557   1.788643   3.623867   3.623769
                   11         12         13         14         15
    11  H    0.000000
    12  H    1.782561   0.000000
    13  H    2.459565   3.040274   0.000000
    14  H    3.039889   2.459856   1.790637   0.000000
    15  H    3.623691   3.623888   1.788638   1.788638   0.000000
    16  H    4.533698   4.533023   6.928401   6.928155   7.610040
                   16
    16  H    0.000000
 Stoichiometry    C4H10O2
 Framework group  C1[X(C4H10O2)]
 Deg. of freedom    42
 Full point group                 C1      NOp   1
 RotChk:  IX=0 Diff= 1.13D-15
 Largest Abelian subgroup         C1      NOp   1
 Largest concise Abelian subgroup C1      NOp   1
                         Standard orientation:                         
 ---------------------------------------------------------------------
 Center     Atomic      Atomic             Coordinates (Angstroms)
 Number     Number       Type             X           Y           Z
 ---------------------------------------------------------------------
      1          8           0        1.724901   -0.517535   -0.000286
      2          6           0        2.990869    0.114043    0.000057
      3          6           0        0.646145    0.401860    0.000133
      4          6           0       -0.646127   -0.401792    0.000167
      5          8           0       -1.724912    0.517581   -0.000234
      6          6           0       -2.990921   -0.114159    0.000028
      7          1           0        3.125951    0.741011    0.895815
      8          1           0        3.125740    0.742444   -0.894806
      9          1           0        0.685070    1.048885   -0.891004
     10          1           0        0.685471    1.048469    0.891550
     11          1           0       -0.685409   -1.048388    0.891601
     12          1           0       -0.685059   -1.048836   -0.890960
     13          1           0       -3.125739   -0.741416    0.895611
     14          1           0       -3.125722   -0.742175   -0.895025
     15          1           0       -3.744168    0.677770   -0.000314
     16          1           0        3.744157   -0.677849   -0.000617
 ---------------------------------------------------------------------
 Rotational constants (GHZ):          18.9745761           1.2762261           1.2333483
 Leave Link  202 at Thu Mar 14 22:24:10 2024, MaxMem=  6442450944 cpu:               1.0 elap:               0.1
 (Enter /gpfs/software/gaussian/g16/l601.exe)
 Copying SCF densities to generalized density rwf, IOpCl= 0 IROHF=0.

 **********************************************************************

            Population analysis using the SCF Density.

 **********************************************************************

 Orbital symmetries:
       Occupied  (A) (A) (A) (A) (A) (A) (A) (A) (A) (A) (A) (A)
                 (A) (A) (A) (A) (A) (A) (A) (A) (A) (A) (A) (A)
                 (A)
       Virtual   (A) (A) (A) (A) (A) (A) (A) (A) (A) (A) (A) (A)
                 (A) (A) (A) (A) (A) (A) (A) (A) (A) (A) (A) (A)
                 (A) (A) (A) (A) (A) (A) (A) (A) (A) (A) (A) (A)
                 (A) (A) (A) (A) (A) (A) (A) (A) (A) (A) (A) (A)
                 (A) (A) (A) (A) (A) (A) (A) (A) (A) (A) (A) (A)
                 (A) (A) (A) (A) (A) (A) (A) (A) (A) (A) (A) (A)
                 (A) (A) (A) (A) (A) (A) (A) (A) (A) (A) (A) (A)
                 (A) (A) (A) (A) (A) (A) (A) (A) (A) (A) (A) (A)
                 (A) (A) (A) (A) (A) (A) (A) (A) (A) (A) (A) (A)
                 (A)
 The electronic state is 1-A.
 Alpha  occ. eigenvalues --  -19.16204 -19.16203 -10.23603 -10.23579 -10.23378
 Alpha  occ. eigenvalues --  -10.23378  -1.04595  -1.03689  -0.77032  -0.70060
 Alpha  occ. eigenvalues --   -0.65142  -0.61027  -0.50589  -0.50160  -0.48015
 Alpha  occ. eigenvalues --   -0.46247  -0.45924  -0.43410  -0.42093  -0.37078
 Alpha  occ. eigenvalues --   -0.36700  -0.33150  -0.32430  -0.26907  -0.26255
 Alpha virt. eigenvalues --    0.01352   0.01550   0.03268   0.03526   0.03665
 Alpha virt. eigenvalues --    0.03999   0.05478   0.05984   0.07922   0.08085
 Alpha virt. eigenvalues --    0.09610   0.09655   0.10420   0.12167   0.13792
 Alpha virt. eigenvalues --    0.14611   0.18647   0.19397   0.20282   0.20990
 Alpha virt. eigenvalues --    0.21250   0.22461   0.22625   0.22684   0.24360
 Alpha virt. eigenvalues --    0.24612   0.25668   0.26751   0.28020   0.28253
 Alpha virt. eigenvalues --    0.29909   0.30588   0.31113   0.32700   0.32876
 Alpha virt. eigenvalues --    0.38457   0.39453   0.40682   0.41531   0.60335
 Alpha virt. eigenvalues --    0.64409   0.64842   0.66469   0.67608   0.68589
 Alpha virt. eigenvalues --    0.69110   0.75176   0.77257   0.84100   0.84712
 Alpha virt. eigenvalues --    0.86344   0.86838   0.90687   0.94781   0.96611
 Alpha virt. eigenvalues --    0.99161   1.01290   1.02692   1.04150   1.08790
 Alpha virt. eigenvalues --    1.09307   1.20376   1.22902   1.23908   1.26071
 Alpha virt. eigenvalues --    1.27519   1.27793   1.37818   1.41797   1.45003
 Alpha virt. eigenvalues --    1.47928   1.48673   1.51198   1.51347   1.54346
 Alpha virt. eigenvalues --    1.61509   1.68749   1.82017   1.85174   1.91394
 Alpha virt. eigenvalues --    1.91679   2.00506   2.02616   2.05922   2.08322
 Alpha virt. eigenvalues --    2.11792   2.11906   2.17020   2.20010   2.21098
 Alpha virt. eigenvalues --    2.21196   2.27199   2.31055   2.33447   2.37683
 Alpha virt. eigenvalues --    2.50240   2.53091   2.65162   2.72314   2.77662
 Alpha virt. eigenvalues --    2.84611   3.00836   3.01381   4.18139   4.24705
 Alpha virt. eigenvalues --    4.32333   4.34182   4.34699   4.54409
          Condensed to atoms (all electrons):
               1          2          3          4          5          6
     1  O    8.384450   0.119005   0.132801  -0.025686   0.004056   0.004127
     2  C    0.119005   5.202050  -0.150660   0.008960   0.004127   0.000277
     3  C    0.132801  -0.150660   5.427082   0.126364  -0.025731   0.008956
     4  C   -0.025686   0.008960   0.126364   5.427003   0.132853  -0.150645
     5  O    0.004056   0.004127  -0.025731   0.132853   8.384486   0.118997
     6  C    0.004127   0.000277   0.008956  -0.150645   0.118997   5.202028
     7  H   -0.049551   0.392644  -0.016266   0.004511   0.000001   0.000092
     8  H   -0.049526   0.392641  -0.016278   0.004513   0.000001   0.000092
     9  H   -0.056257  -0.007735   0.409453  -0.050732   0.002605  -0.000303
    10  H   -0.056292  -0.007707   0.409557  -0.050823   0.002606  -0.000314
    11  H    0.002607  -0.000314  -0.050813   0.409550  -0.056288  -0.007717
    12  H    0.002603  -0.000302  -0.050733   0.409452  -0.056262  -0.007732
    13  H    0.000001   0.000092   0.004512  -0.016269  -0.049542   0.392644
    14  H    0.000001   0.000092   0.004511  -0.016268  -0.049527   0.392640
    15  H    0.000009  -0.000107  -0.006428   0.016358  -0.055794   0.396795
    16  H   -0.055797   0.396793   0.016363  -0.006432   0.000009  -0.000107
               7          8          9         10         11         12
     1  O   -0.049551  -0.049526  -0.056257  -0.056292   0.002607   0.002603
     2  C    0.392644   0.392641  -0.007735  -0.007707  -0.000314  -0.000302
     3  C   -0.016266  -0.016278   0.409453   0.409557  -0.050813  -0.050733
     4  C    0.004511   0.004513  -0.050732  -0.050823   0.409550   0.409452
     5  O    0.000001   0.000001   0.002605   0.002606  -0.056288  -0.056262
     6  C    0.000092   0.000092  -0.000303  -0.000314  -0.007717  -0.007732
     7  H    0.560112  -0.048734  -0.002269   0.009303  -0.000012  -0.000001
     8  H   -0.048734   0.560114   0.009302  -0.002273  -0.000001  -0.000012
     9  H   -0.002269   0.009302   0.565518  -0.052314   0.004462  -0.007235
    10  H    0.009303  -0.002273  -0.052314   0.565560  -0.007242   0.004463
    11  H   -0.000012  -0.000001   0.004462  -0.007242   0.565568  -0.052316
    12  H   -0.000001  -0.000012  -0.007235   0.004463  -0.052316   0.565535
    13  H    0.000000  -0.000000  -0.000001  -0.000012   0.009305  -0.002270
    14  H   -0.000000   0.000000  -0.000012  -0.000001  -0.002272   0.009300
    15  H    0.000000   0.000000   0.000006   0.000006  -0.000172  -0.000172
    16  H   -0.029779  -0.029769  -0.000172  -0.000172   0.000006   0.000006
              13         14         15         16
     1  O    0.000001   0.000001   0.000009  -0.055797
     2  C    0.000092   0.000092  -0.000107   0.396793
     3  C    0.004512   0.004511  -0.006428   0.016363
     4  C   -0.016269  -0.016268   0.016358  -0.006432
     5  O   -0.049542  -0.049527  -0.055794   0.000009
     6  C    0.392644   0.392640   0.396795  -0.000107
     7  H    0.000000  -0.000000   0.000000  -0.029779
     8  H   -0.000000   0.000000   0.000000  -0.029769
     9  H   -0.000001  -0.000012   0.000006  -0.000172
    10  H   -0.000012  -0.000001   0.000006  -0.000172
    11  H    0.009305  -0.002272  -0.000172   0.000006
    12  H   -0.002270   0.009300  -0.000172   0.000006
    13  H    0.560076  -0.048725  -0.029766   0.000000
    14  H   -0.048725   0.560068  -0.029767   0.000000
    15  H   -0.029766  -0.029767   0.511143   0.000000
    16  H    0.000000   0.000000   0.000000   0.511169
 Mulliken charges:
               1
     1  O   -0.356551
     2  C   -0.349856
     3  C   -0.222690
     4  C   -0.222709
     5  O   -0.356597
     6  C   -0.349830
     7  H    0.179950
     8  H    0.179929
     9  H    0.185685
    10  H    0.185655
    11  H    0.185650
    12  H    0.185677
    13  H    0.179955
    14  H    0.179961
    15  H    0.197889
    16  H    0.197882
 Sum of Mulliken charges =  -0.00000
 Mulliken charges with hydrogens summed into heavy atoms:
               1
     1  O   -0.356551
     2  C    0.207905
     3  C    0.148649
     4  C    0.148618
     5  O   -0.356597
     6  C    0.207976
 Electronic spatial extent (au):  <R**2>=            972.9690
 Charge=             -0.0000 electrons
 Dipole moment (field-independent basis, Debye):
    X=             -0.0003    Y=             -0.0003    Z=              0.0013  Tot=              0.0013
 Quadrupole moment (field-independent basis, Debye-Ang):
   XX=            -31.6600   YY=            -41.0178   ZZ=            -38.8480
   XY=              4.2301   XZ=              0.0003   YZ=             -0.0001
 Traceless Quadrupole moment (field-independent basis, Debye-Ang):
   XX=              5.5152   YY=             -3.8425   ZZ=             -1.6727
   XY=              4.2301   XZ=              0.0003   YZ=             -0.0001
 Octapole moment (field-independent basis, Debye-Ang**2):
  XXX=             -0.0056  YYY=             -0.0003  ZZZ=              0.0009  XYY=             -0.0005
  XXY=             -0.0016  XXZ=              0.0010  XZZ=             -0.0012  YZZ=             -0.0004
  YYZ=             -0.0024  XYZ=             -0.0009
 Hexadecapole moment (field-independent basis, Debye-Ang**3):
 XXXX=          -1001.8335 YYYY=           -111.2044 ZZZZ=            -69.9597 XXXY=            -15.7247
 XXXZ=              0.0008 YYYX=             -6.9295 YYYZ=             -0.0002 ZZZX=              0.0019
 ZZZY=              0.0001 XXYY=           -207.0308 XXZZ=           -201.7273 YYZZ=            -28.9497
 XXYZ=              0.0010 YYXZ=             -0.0014 ZZXY=              1.9586
 N-N= 2.517538783434D+02 E-N=-1.223944690583D+03  KE= 3.059848405473D+02
 No NMR shielding tensors so no spin-rotation constants.
 Leave Link  601 at Thu Mar 14 22:24:10 2024, MaxMem=  6442450944 cpu:               4.5 elap:               0.2
 (Enter /gpfs/software/gaussian/g16/l9999.exe)
 Unable to Open any file for archive entry.
 1\1\GINC-SN141\FOpt\RB3LYP\6-31+G(d)\C4H10O2\RATWI\14-Mar-2024\0\\#P B
 3LYP/6-31+G* opt=(maxcycles=5) scf\\H10 C4 O2\\0,1\O,1.7247657652,-0.5
 159309196,-0.0238352532\C,2.9905624618,0.1158123657,-0.0087608126\C,0.
 6457857283,0.4025664351,0.0103147284\C,-0.6462690683,-0.4011855548,-0.
 009737252\O,-1.7252820967,0.5173153503,0.0235933915\C,-2.9911158953,-0
 .1146091367,0.0091182038\H,3.1292582321,0.7140734898,0.9058793673\H,3.
 1214989065,0.7723630251,-0.883777055\H,0.6807879532,1.0775770438,-0.85
 99825247\H,0.6887030549,1.0205592889,0.9216420173\H,-0.6816271178,-1.0
 757769741,0.8608730021\H,-0.688790577,-1.0196229062,-0.9207892412\H,-3
 .1219971923,-0.7700394438,0.8848905072\H,-3.1295272902,-0.7139395292,-
 0.9048516806\H,-3.7445608413,0.6766377787,0.037090916\H,3.7440439769,-
 0.675365313,-0.0377483143\\Version=ES64L-G16RevC.01\State=1-A\HF=-308.
 8713509\RMSD=3.873e-09\RMSF=2.401e-05\Dipole=-0.0001355,-0.0001159,0.0
 004893\Quadrupole=4.0987319,-2.8527442,-1.2459877,3.1458172,0.0776395,
 -0.0644715\PG=C01 [X(C4H10O2)]\\@
 The archive entry for this job was punched.


 MARY HAD A LITTLE LAMB
      HIS FEET WERE BLACK AS SOOT,
           AND EVERYWHERE THAT MARY WENT
                HIS SOOTY FOOT HE PUT.

                    -- NONAME
 Job cpu time:       0 days  0 hours 10 minutes 58.3 seconds.
 Elapsed time:       0 days  0 hours  0 minutes 25.6 seconds.
 File lengths (MBytes):  RWF=    136 Int=      0 D2E=      0 Chk=     16 Scr=     16
 Normal termination of Gaussian 16 at Thu Mar 14 22:24:10 2024.
