 Entering Gaussian System, Link 0=g16
 Initial command:
 /gpfs/software/gaussian/g16/l1.exe "/gpfs/scratch/ratwi/tests/Custodian/opt/convergence/dme/Optimization/Gau-8200.inp" -scrdir="/gpfs/scratch/ratwi/tests/Custodian/opt/convergence/dme/Optimization/"
 Entering Link 1 = /gpfs/software/gaussian/g16/l1.exe PID=      8201.
  
 Copyright (c) 1988-2019, Gaussian, Inc.  All Rights Reserved.
  
 This is part of the Gaussian(R) 16 program.  It is based on
 the Gaussian(R) 09 system (copyright 2009, Gaussian, Inc.),
 the Gaussian(R) 03 system (copyright 2003, Gaussian, Inc.),
 the Gaussian(R) 98 system (copyright 1998, Gaussian, Inc.),
 the Gaussian(R) 94 system (copyright 1995, Gaussian, Inc.),
 the Gaussian 92(TM) system (copyright 1992, Gaussian, Inc.),
 the Gaussian 90(TM) system (copyright 1990, Gaussian, Inc.),
 the Gaussian 88(TM) system (copyright 1988, Gaussian, Inc.),
 the Gaussian 86(TM) system (copyright 1986, Carnegie Mellon
 University), and the Gaussian 82(TM) system (copyright 1983,
 Carnegie Mellon University). Gaussian is a federally registered
 trademark of Gaussian, Inc.
  
 This software contains proprietary and confidential information,
 including trade secrets, belonging to Gaussian, Inc.
  
 This software is provided under written license and may be
 used, copied, transmitted, or stored only in accord with that
 written license.
  
 The following legend is applicable only to US Government
 contracts under FAR:
  
                    RESTRICTED RIGHTS LEGEND
  
 Use, reproduction and disclosure by the US Government is
 subject to restrictions as set forth in subparagraphs (a)
 and (c) of the Commercial Computer Software - Restricted
 Rights clause in FAR 52.227-19.
  
 Gaussian, Inc.
 340 Quinnipiac St., Bldg. 40, Wallingford CT 06492
  
  
 ---------------------------------------------------------------
 Warning -- This program may not be used in any manner that
 competes with the business of Gaussian, Inc. or will provide
 assistance to any competitor of Gaussian, Inc.  The licensee
 of this program is prohibited from giving any competitor of
 Gaussian, Inc. access to this program.  By using this program,
 the user acknowledges that Gaussian, Inc. is engaged in the
 business of creating and licensing software in the field of
 computational chemistry and represents and warrants to the
 licensee that it is not a competitor of Gaussian, Inc. and that
 it will not use this program in any manner prohibited above.
 ---------------------------------------------------------------
  

 Cite this work as:
 Gaussian 16, Revision C.01,
 M. J. Frisch, G. W. Trucks, H. B. Schlegel, G. E. Scuseria, 
 M. A. Robb, J. R. Cheeseman, G. Scalmani, V. Barone, 
 G. A. Petersson, H. Nakatsuji, X. Li, M. Caricato, A. V. Marenich, 
 J. Bloino, B. G. Janesko, R. Gomperts, B. Mennucci, H. P. Hratchian, 
 J. V. Ortiz, A. F. Izmaylov, J. L. Sonnenberg, D. Williams-Young, 
 F. Ding, F. Lipparini, F. Egidi, J. Goings, B. Peng, A. Petrone, 
 T. Henderson, D. Ranasinghe, V. G. Zakrzewski, J. Gao, N. Rega, 
 G. Zheng, W. Liang, M. Hada, M. Ehara, K. Toyota, R. Fukuda, 
 J. Hasegawa, M. Ishida, T. Nakajima, Y. Honda, O. Kitao, H. Nakai, 
 T. Vreven, K. Throssell, J. A. Montgomery, Jr., J. E. Peralta, 
 F. Ogliaro, M. J. Bearpark, J. J. Heyd, E. N. Brothers, K. N. Kudin, 
 V. N. Staroverov, T. A. Keith, R. Kobayashi, J. Normand, 
 K. Raghavachari, A. P. Rendell, J. C. Burant, S. S. Iyengar, 
 J. Tomasi, M. Cossi, J. M. Millam, M. Klene, C. Adamo, R. Cammi, 
 J. W. Ochterski, R. L. Martin, K. Morokuma, O. Farkas, 
 J. B. Foresman, and D. J. Fox, Gaussian, Inc., Wallingford CT, 2019.
 
 ******************************************
 Gaussian 16:  ES64L-G16RevC.01  3-Jul-2019
                14-Mar-2024 
 ******************************************
 %chk=Optimization.chk
 %mem=48GB
 %NProcShared=28
 Will use up to   28 processors via shared memory.
 --------------------------------------
 #P B3LYP/6-31+G* Opt=(MaxCycles=5) SCF
 --------------------------------------
 1/6=5,18=20,19=15,26=3,38=1/1,3;
 2/9=110,12=2,17=6,18=5,40=1/2;
 3/5=1,6=6,7=11,11=2,25=1,30=1,71=1,74=-5/1,2,3;
 4//1;
 5/5=2,38=5/2;
 6/7=2,8=2,9=2,10=2,28=1/1;
 7//1,2,3,16;
 1/6=5,18=20,19=15,26=3/3(2);
 2/9=110/2;
 99//99;
 2/9=110/2;
 3/5=1,6=6,7=11,11=2,25=1,30=1,71=1,74=-5/1,2,3;
 4/5=5,16=3,69=1/1;
 5/5=2,38=5/2;
 7//1,2,3,16;
 1/6=5,18=20,19=15,26=3/3(-5);
 2/9=110/2;
 6/7=2,8=2,9=2,10=2,19=2,28=1/1;
 99/9=1/99;
 Leave Link    1 at Thu Mar 14 22:23:10 2024, MaxMem=  6442450944 cpu:               3.7 elap:               0.1
 (Enter /gpfs/software/gaussian/g16/l101.exe)
 ---------
 H10 C4 O2
 ---------
 Symbolic Z-matrix:
 Charge =  0 Multiplicity = 1
 O                    -1.678    -0.723     0.319 
 C                    -2.188    -1.963     0.789 
 C                    -0.258    -0.683     0.309 
 C                     0.152     0.687    -0.221 
 O                     1.572     0.727    -0.231 
 C                     2.092     1.957    -0.701 
 H                    -1.482    -1.948     1.593 
 H                    -1.768    -2.882     0.437 
 H                     0.142    -1.473    -0.351 
 H                     0.142    -0.833     1.319 
 H                    -0.248     1.477     0.439 
 H                    -0.248     0.837    -1.231 
 H                     1.751     2.752    -0.072 
 H                     1.757     2.126    -1.703 
 H                     3.161     1.922    -0.684 
 H                    -2.894    -1.978    -0.015 
 
 ITRead=  0  0  0  0  0  0  0  0  0  0  0  0  0  0  0  0
 MicOpt= -1 -1 -1 -1 -1 -1 -1 -1 -1 -1 -1 -1 -1 -1 -1 -1
 NAtoms=     16 NQM=       16 NQMF=       0 NMMI=      0 NMMIF=      0
                NMic=       0 NMicF=      0.
                    Isotopes and Nuclear Properties:
 (Nuclear quadrupole moments (NQMom) in fm**2, nuclear magnetic moments (NMagM)
  in nuclear magnetons)

  Atom         1           2           3           4           5           6           7           8           9          10
 IAtWgt=          16          12          12          12          16          12           1           1           1           1
 AtmWgt=  15.9949146  12.0000000  12.0000000  12.0000000  15.9949146  12.0000000   1.0078250   1.0078250   1.0078250   1.0078250
 NucSpn=           0           0           0           0           0           0           1           1           1           1
 AtZEff=  -0.0000000  -0.0000000  -0.0000000  -0.0000000  -0.0000000  -0.0000000  -0.0000000  -0.0000000  -0.0000000  -0.0000000
 NQMom=    0.0000000   0.0000000   0.0000000   0.0000000   0.0000000   0.0000000   0.0000000   0.0000000   0.0000000   0.0000000
 NMagM=    0.0000000   0.0000000   0.0000000   0.0000000   0.0000000   0.0000000   2.7928460   2.7928460   2.7928460   2.7928460
 AtZNuc=   8.0000000   6.0000000   6.0000000   6.0000000   8.0000000   6.0000000   1.0000000   1.0000000   1.0000000   1.0000000

  Atom        11          12          13          14          15          16
 IAtWgt=           1           1           1           1           1           1
 AtmWgt=   1.0078250   1.0078250   1.0078250   1.0078250   1.0078250   1.0078250
 NucSpn=           1           1           1           1           1           1
 AtZEff=  -0.0000000  -0.0000000  -0.0000000  -0.0000000  -0.0000000  -0.0000000
 NQMom=    0.0000000   0.0000000   0.0000000   0.0000000   0.0000000   0.0000000
 NMagM=    2.7928460   2.7928460   2.7928460   2.7928460   2.7928460   2.7928460
 AtZNuc=   1.0000000   1.0000000   1.0000000   1.0000000   1.0000000   1.0000000
 Leave Link  101 at Thu Mar 14 22:23:10 2024, MaxMem=  6442450944 cpu:              11.7 elap:               0.5
 (Enter /gpfs/software/gaussian/g16/l103.exe)

 GradGradGradGradGradGradGradGradGradGradGradGradGradGradGradGradGradGrad
 Berny optimization.
 Initialization pass.
                           ----------------------------
                           !    Initial Parameters    !
                           ! (Angstroms and Degrees)  !
 --------------------------                            --------------------------
 ! Name  Definition              Value          Derivative Info.                !
 --------------------------------------------------------------------------------
 ! R1    R(1,2)                  1.4208         estimate D2E/DX2                !
 ! R2    R(1,3)                  1.4206         estimate D2E/DX2                !
 ! R3    R(2,7)                  1.0701         estimate D2E/DX2                !
 ! R4    R(2,8)                  1.07           estimate D2E/DX2                !
 ! R5    R(2,16)                 1.0701         estimate D2E/DX2                !
 ! R6    R(3,4)                  1.5251         estimate D2E/DX2                !
 ! R7    R(3,9)                  1.1044         estimate D2E/DX2                !
 ! R8    R(3,10)                 1.0966         estimate D2E/DX2                !
 ! R9    R(4,5)                  1.4206         estimate D2E/DX2                !
 ! R10   R(4,11)                 1.1044         estimate D2E/DX2                !
 ! R11   R(4,12)                 1.0966         estimate D2E/DX2                !
 ! R12   R(5,6)                  1.4157         estimate D2E/DX2                !
 ! R13   R(6,13)                 1.0696         estimate D2E/DX2                !
 ! R14   R(6,14)                 1.0699         estimate D2E/DX2                !
 ! R15   R(6,15)                 1.0697         estimate D2E/DX2                !
 ! A1    A(2,1,3)              112.6879         estimate D2E/DX2                !
 ! A2    A(1,2,7)               89.9706         estimate D2E/DX2                !
 ! A3    A(1,2,8)              119.992          estimate D2E/DX2                !
 ! A4    A(1,2,16)              90.0294         estimate D2E/DX2                !
 ! A5    A(7,2,8)               90.0137         estimate D2E/DX2                !
 ! A6    A(8,2,16)              89.9863         estimate D2E/DX2                !
 ! A7    A(1,3,4)              107.2453         estimate D2E/DX2                !
 ! A8    A(1,3,9)              110.249          estimate D2E/DX2                !
 ! A9    A(1,3,10)             110.7484         estimate D2E/DX2                !
 ! A10   A(4,3,9)              109.7263         estimate D2E/DX2                !
 ! A11   A(4,3,10)             110.1745         estimate D2E/DX2                !
 ! A12   A(9,3,10)             108.69           estimate D2E/DX2                !
 ! A13   A(3,4,5)              107.2453         estimate D2E/DX2                !
 ! A14   A(3,4,11)             109.7263         estimate D2E/DX2                !
 ! A15   A(3,4,12)             110.1745         estimate D2E/DX2                !
 ! A16   A(5,4,11)             110.249          estimate D2E/DX2                !
 ! A17   A(5,4,12)             110.7484         estimate D2E/DX2                !
 ! A18   A(11,4,12)            108.69           estimate D2E/DX2                !
 ! A19   A(4,5,6)              113.2009         estimate D2E/DX2                !
 ! A20   A(5,6,13)             109.4784         estimate D2E/DX2                !
 ! A21   A(5,6,14)             109.4593         estimate D2E/DX2                !
 ! A22   A(5,6,15)             109.4731         estimate D2E/DX2                !
 ! A23   A(13,6,14)            109.4825         estimate D2E/DX2                !
 ! A24   A(13,6,15)            109.4867         estimate D2E/DX2                !
 ! A25   A(14,6,15)            109.4475         estimate D2E/DX2                !
 ! A26   L(7,2,16,1,-1)        180.0            estimate D2E/DX2                !
 ! A27   L(7,2,16,1,-2)        180.0            estimate D2E/DX2                !
 ! D1    D(3,1,2,7)             44.8239         estimate D2E/DX2                !
 ! D2    D(3,1,2,8)            -45.1749         estimate D2E/DX2                !
 ! D3    D(3,1,2,16)          -135.1761         estimate D2E/DX2                !
 ! D4    D(2,1,3,4)            179.6264         estimate D2E/DX2                !
 ! D5    D(2,1,3,9)             60.2063         estimate D2E/DX2                !
 ! D6    D(2,1,3,10)           -60.1247         estimate D2E/DX2                !
 ! D7    D(1,3,4,5)            180.0            estimate D2E/DX2                !
 ! D8    D(1,3,4,11)            60.2451         estimate D2E/DX2                !
 ! D9    D(1,3,4,12)           -59.3866         estimate D2E/DX2                !
 ! D10   D(9,3,4,5)            -60.2451         estimate D2E/DX2                !
 ! D11   D(9,3,4,11)           180.0            estimate D2E/DX2                !
 ! D12   D(9,3,4,12)            60.3683         estimate D2E/DX2                !
 ! D13   D(10,3,4,5)            59.3866         estimate D2E/DX2                !
 ! D14   D(10,3,4,11)          -60.3683         estimate D2E/DX2                !
 ! D15   D(10,3,4,12)          180.0            estimate D2E/DX2                !
 ! D16   D(3,4,5,6)           -179.7845         estimate D2E/DX2                !
 ! D17   D(11,4,5,6)           -60.3645         estimate D2E/DX2                !
 ! D18   D(12,4,5,6)            59.9666         estimate D2E/DX2                !
 ! D19   D(4,5,6,13)            59.9998         estimate D2E/DX2                !
 ! D20   D(4,5,6,14)           -60.0111         estimate D2E/DX2                !
 ! D21   D(4,5,6,15)          -179.9758         estimate D2E/DX2                !
 --------------------------------------------------------------------------------
 Trust Radius=3.00D-01 FncErr=1.00D-07 GrdErr=1.00D-06 EigMax=2.50D+02 EigMin=1.00D-04
 Number of steps in this run=      5 maximum allowed number of steps=    100.
 GradGradGradGradGradGradGradGradGradGradGradGradGradGradGradGradGradGrad

 Leave Link  103 at Thu Mar 14 22:23:10 2024, MaxMem=  6442450944 cpu:               0.8 elap:               0.1
 (Enter /gpfs/software/gaussian/g16/l202.exe)
                          Input orientation:                          
 ---------------------------------------------------------------------
 Center     Atomic      Atomic             Coordinates (Angstroms)
 Number     Number       Type             X           Y           Z
 ---------------------------------------------------------------------
      1          8           0       -1.678000   -0.723000    0.319000
      2          6           0       -2.188000   -1.963000    0.789000
      3          6           0       -0.258000   -0.683000    0.309000
      4          6           0        0.152000    0.687000   -0.221000
      5          8           0        1.572000    0.727000   -0.231000
      6          6           0        2.092000    1.957000   -0.701000
      7          1           0       -1.482000   -1.948000    1.593000
      8          1           0       -1.768000   -2.882000    0.437000
      9          1           0        0.142000   -1.473000   -0.351000
     10          1           0        0.142000   -0.833000    1.319000
     11          1           0       -0.248000    1.477000    0.439000
     12          1           0       -0.248000    0.837000   -1.231000
     13          1           0        1.751000    2.752000   -0.072000
     14          1           0        1.757000    2.126000   -1.703000
     15          1           0        3.161000    1.922000   -0.684000
     16          1           0       -2.894000   -1.978000   -0.015000
 ---------------------------------------------------------------------
                    Distance matrix (angstroms):
                    1          2          3          4          5
     1  O    0.000000
     2  C    1.420774   0.000000
     3  C    1.420598   2.365100   0.000000
     4  C    2.372467   3.676710   1.525090   0.000000
     5  O    3.601042   4.734353   2.372467   1.420598   0.000000
     6  C    4.736634   5.992070   3.675894   2.367889   1.415698
     7  H    1.778234   1.070083   2.178774   3.592183   4.450788
     8  H    2.164094   1.069984   2.670596   4.105743   4.962530
     9  H    2.079375   2.639811   1.104400   2.163932   2.626652
    10  H    2.079543   2.643237   1.096631   2.163816   2.623166
    11  H    2.626652   3.964808   2.163932   1.104400   2.079375
    12  H    2.623166   3.960303   2.163816   1.096631   2.079543
    13  H    4.897606   6.203891   3.997558   2.615956   2.039104
    14  H    4.899440   6.204274   3.999856   2.615926   2.039169
    15  H    5.605172   6.773091   4.411534   3.285373   2.039155
    16  H    1.779111   1.070083   2.954741   4.052503   5.225786
                    6          7          8          9         10
     6  C    0.000000
     7  H    5.769310   0.000000
     8  H    6.293692   1.513436   0.000000
     9  H    3.961048   2.577234   2.500865   0.000000
    10  H    3.958156   1.988888   2.936737   1.788435   0.000000
    11  H    2.646809   3.819044   4.616415   3.078750   2.502519
    12  H    2.647810   4.153788   4.350125   2.502519   3.073028
    13  H    1.069555   5.942602   6.662162   4.529608   4.168451
    14  H    1.069949   6.160537   6.487318   4.170004   4.527294
    15  H    1.069708   6.459031   6.973528   4.555357   4.551527
    16  H    6.388663   2.140165   1.513075   3.096000   3.508258
                   11         12         13         14         15
    11  H    0.000000
    12  H    1.788435   0.000000
    13  H    2.425437   3.001084   0.000000
    14  H    3.004894   2.429883   1.747018   0.000000
    15  H    3.616688   3.619077   1.746867   1.746766   0.000000
    16  H    4.375438   4.050210   6.629644   6.428372   7.233297
                   16
    16  H    0.000000
 Stoichiometry    C4H10O2
 Framework group  C1[X(C4H10O2)]
 Deg. of freedom    42
 Full point group                 C1      NOp   1
 Largest Abelian subgroup         C1      NOp   1
 Largest concise Abelian subgroup C1      NOp   1
                         Standard orientation:                         
 ---------------------------------------------------------------------
 Center     Atomic      Atomic             Coordinates (Angstroms)
 Number     Number       Type             X           Y           Z
 ---------------------------------------------------------------------
      1          8           0        1.736976   -0.534187    0.064240
      2          6           0        3.009247    0.097831    0.042327
      3          6           0        0.663054    0.393785    0.003740
      4          6           0       -0.631990   -0.411383    0.025282
      5          8           0       -1.705912    0.516589   -0.035218
      6          6           0       -2.979189   -0.102003   -0.017636
      7          1           0        2.663753    0.816817    0.755607
      8          1           0        3.203813    0.884304   -0.656579
      9          1           0        0.719727    0.983764   -0.928147
     10          1           0        0.695168    1.081346    0.857455
     11          1           0       -0.688663   -1.001361    0.957169
     12          1           0       -0.664104   -1.098943   -0.828433
     13          1           0       -3.089613   -0.665271    0.884851
     14          1           0       -3.069446   -0.755895   -0.859699
     15          1           0       -3.740614    0.647794   -0.065730
     16          1           0        3.354741   -0.621156   -0.670953
 ---------------------------------------------------------------------
 Rotational constants (GHZ):          18.8550093           1.2941038           1.2487910
 Leave Link  202 at Thu Mar 14 22:23:10 2024, MaxMem=  6442450944 cpu:               0.5 elap:               0.1
 (Enter /gpfs/software/gaussian/g16/l301.exe)
 Standard basis: 6-31+G(d) (6D, 7F)
 Ernie: Thresh=  0.10000D-02 Tol=  0.10000D-05 Strict=F.
 There are   134 symmetry adapted cartesian basis functions of A   symmetry.
 There are   134 symmetry adapted basis functions of A   symmetry.
   134 basis functions,   232 primitive gaussians,   134 cartesian basis functions
    25 alpha electrons       25 beta electrons
       nuclear repulsion energy       253.7118708210 Hartrees.
 IExCor=  402 DFT=T Ex+Corr=B3LYP ExCW=0 ScaHFX=  0.200000
 ScaDFX=  0.800000  0.720000  1.000000  0.810000 ScalE2=  1.000000  1.000000
 IRadAn=      5 IRanWt=     -1 IRanGd=            0 ICorTp=0 IEmpDi=  4
 NAtoms=   16 NActive=   16 NUniq=   16 SFac= 1.00D+00 NAtFMM=   60 NAOKFM=F Big=F
 Integral buffers will be    131072 words long.
 Raffenetti 2 integral format.
 Two-electron integral symmetry is turned on.
 Leave Link  301 at Thu Mar 14 22:23:10 2024, MaxMem=  6442450944 cpu:               2.0 elap:               0.1
 (Enter /gpfs/software/gaussian/g16/l302.exe)
 NPDir=0 NMtPBC=     1 NCelOv=     1 NCel=       1 NClECP=     1 NCelD=      1
         NCelK=      1 NCelE2=     1 NClLst=     1 CellRange=     0.0.
 One-electron integrals computed using PRISM.
 One-electron integral symmetry used in STVInt
 NBasis=   134 RedAO= T EigKep=  7.16D-05  NBF=   134
 NBsUse=   134 1.00D-06 EigRej= -1.00D+00 NBFU=   134
 Precomputing XC quadrature grid using
 IXCGrd= 4 IRadAn=           5 IRanWt=          -1 IRanGd=           0 AccXCQ= 0.00D+00.
 Generated NRdTot=       0 NPtTot=           0 NUsed=           0 NTot=          32
 NSgBfM=   134   134   134   134   134 MxSgAt=    16 MxSgA2=    16.
 Leave Link  302 at Thu Mar 14 22:23:11 2024, MaxMem=  6442450944 cpu:               6.2 elap:               0.3
 (Enter /gpfs/software/gaussian/g16/l303.exe)
 DipDrv:  MaxL=1.
 Leave Link  303 at Thu Mar 14 22:23:11 2024, MaxMem=  6442450944 cpu:               0.9 elap:               0.1
 (Enter /gpfs/software/gaussian/g16/l401.exe)
 ExpMin= 4.38D-02 ExpMax= 5.48D+03 ExpMxC= 8.25D+02 IAcc=3 IRadAn=         5 AccDes= 0.00D+00
 Harris functional with IExCor=  402 and IRadAn=       5 diagonalized for initial guess.
 HarFok:  IExCor=  402 AccDes= 0.00D+00 IRadAn=         5 IDoV= 1 UseB2=F ITyADJ=14
 ICtDFT=  3500011 ScaDFX=  1.000000  1.000000  1.000000  1.000000
 FoFCou: FMM=F IPFlag=           0 FMFlag=      100000 FMFlg1=           0
         NFxFlg=           0 DoJE=T BraDBF=F KetDBF=T FulRan=T
         wScrn=  0.000000 ICntrl=       500 IOpCl=  0 I1Cent=   200000004 NGrid=           0
         NMat0=    1 NMatS0=      1 NMatT0=    0 NMatD0=    1 NMtDS0=    0 NMtDT0=    0
 Petite list used in FoFCou.
 Harris En= -308.765756565274    
 JPrj=0 DoOrth=F DoCkMO=F.
 Leave Link  401 at Thu Mar 14 22:23:11 2024, MaxMem=  6442450944 cpu:              11.0 elap:               0.4
 (Enter /gpfs/software/gaussian/g16/l502.exe)
 Integral symmetry usage will be decided dynamically.
 Closed shell SCF:
 Using DIIS extrapolation, IDIIS=  1040.
 NGot=  6442450944 LenX=  6442409262 LenY=  6442390865
 Requested convergence on RMS density matrix=1.00D-08 within 128 cycles.
 Requested convergence on MAX density matrix=1.00D-06.
 Requested convergence on             energy=1.00D-06.
 No special actions if energy rises.
 Fock matrices will be formed incrementally for  20 cycles.

 Cycle   1  Pass 1  IDiag  1:
 FoFJK:  IHMeth= 1 ICntrl=       0 DoSepK=F KAlg= 0 I1Cent=           0 FoldK=F
 IRaf= 950000000 NMat=       1 IRICut=       1 DoRegI=T DoRafI=F ISym2E= 0 IDoP0=0 IntGTp=1.
 FoFCou: FMM=F IPFlag=           0 FMFlag=      100000 FMFlg1=           0
         NFxFlg=           0 DoJE=F BraDBF=F KetDBF=F FulRan=T
         wScrn=  0.000000 ICntrl=         0 IOpCl=  0 I1Cent=           0 NGrid=           0
         NMat0=    1 NMatS0=      1 NMatT0=    0 NMatD0=    1 NMtDS0=    0 NMtDT0=    0
 Symmetry not used in FoFCou.
 E= -308.600916891673    
 DIIS: error= 2.81D-02 at cycle   1 NSaved=   1.
 NSaved= 1 IEnMin= 1 EnMin= -308.600916891673     IErMin= 1 ErrMin= 2.81D-02
 ErrMax= 2.81D-02  0.00D+00 EMaxC= 1.00D-01 BMatC= 1.43D-01 BMatP= 1.43D-01
 IDIUse=3 WtCom= 7.19D-01 WtEn= 2.81D-01
 Coeff-Com:  0.100D+01
 Coeff-En:   0.100D+01
 Coeff:      0.100D+01
 Gap=     0.223 Goal=   None    Shift=    0.000
 GapD=    0.223 DampG=1.000 DampE=0.500 DampFc=0.5000 IDamp=-1.
 Damping current iteration by 5.00D-01
 RMSDP=7.30D-03 MaxDP=1.39D-01              OVMax= 1.73D-01

 Cycle   2  Pass 1  IDiag  1:
 RMSU=  3.59D-03    CP:  9.76D-01
 E= -308.664320139365     Delta-E=       -0.063403247692 Rises=F Damp=T
 DIIS: error= 5.87D-03 at cycle   2 NSaved=   2.
 NSaved= 2 IEnMin= 2 EnMin= -308.664320139365     IErMin= 2 ErrMin= 5.87D-03
 ErrMax= 5.87D-03  0.00D+00 EMaxC= 1.00D-01 BMatC= 1.03D-02 BMatP= 1.43D-01
 IDIUse=3 WtCom= 9.41D-01 WtEn= 5.87D-02
 Coeff-Com:  0.822D-01 0.918D+00
 Coeff-En:   0.129D+00 0.871D+00
 Coeff:      0.849D-01 0.915D+00
 Gap=     0.272 Goal=   None    Shift=    0.000
 RMSDP=1.96D-03 MaxDP=5.52D-02 DE=-6.34D-02 OVMax= 1.23D-01

 Cycle   3  Pass 1  IDiag  1:
 RMSU=  1.82D-03    CP:  9.71D-01  7.97D-01
 E= -308.743670670531     Delta-E=       -0.079350531167 Rises=F Damp=F
 DIIS: error= 4.95D-03 at cycle   3 NSaved=   3.
 NSaved= 3 IEnMin= 3 EnMin= -308.743670670531     IErMin= 3 ErrMin= 4.95D-03
 ErrMax= 4.95D-03  0.00D+00 EMaxC= 1.00D-01 BMatC= 7.06D-03 BMatP= 1.03D-02
 IDIUse=3 WtCom= 9.50D-01 WtEn= 4.95D-02
 Coeff-Com: -0.113D-01 0.443D+00 0.568D+00
 Coeff-En:   0.000D+00 0.000D+00 0.100D+01
 Coeff:     -0.107D-01 0.421D+00 0.590D+00
 Gap=     0.242 Goal=   None    Shift=    0.000
 RMSDP=7.84D-04 MaxDP=1.80D-02 DE=-7.94D-02 OVMax= 2.01D-02

 Cycle   4  Pass 1  IDiag  1:
 RMSU=  5.52D-04    CP:  9.72D-01  8.67D-01  7.27D-01
 E= -308.747718506781     Delta-E=       -0.004047836250 Rises=F Damp=F
 DIIS: error= 2.19D-03 at cycle   4 NSaved=   4.
 NSaved= 4 IEnMin= 4 EnMin= -308.747718506781     IErMin= 4 ErrMin= 2.19D-03
 ErrMax= 2.19D-03  0.00D+00 EMaxC= 1.00D-01 BMatC= 1.66D-03 BMatP= 7.06D-03
 IDIUse=3 WtCom= 9.78D-01 WtEn= 2.19D-02
 Coeff-Com: -0.166D-01 0.101D+00 0.344D+00 0.572D+00
 Coeff-En:   0.000D+00 0.000D+00 0.201D+00 0.799D+00
 Coeff:     -0.163D-01 0.983D-01 0.341D+00 0.577D+00
 Gap=     0.245 Goal=   None    Shift=    0.000
 RMSDP=2.68D-04 MaxDP=6.59D-03 DE=-4.05D-03 OVMax= 7.49D-03

 Cycle   5  Pass 1  IDiag  1:
 RMSU=  1.36D-04    CP:  9.71D-01  8.75D-01  7.67D-01  6.06D-01
 E= -308.748960335503     Delta-E=       -0.001241828722 Rises=F Damp=F
 DIIS: error= 2.96D-04 at cycle   5 NSaved=   5.
 NSaved= 5 IEnMin= 5 EnMin= -308.748960335503     IErMin= 5 ErrMin= 2.96D-04
 ErrMax= 2.96D-04  0.00D+00 EMaxC= 1.00D-01 BMatC= 2.83D-05 BMatP= 1.66D-03
 IDIUse=3 WtCom= 9.97D-01 WtEn= 2.96D-03
 Coeff-Com: -0.480D-02 0.174D-01 0.101D+00 0.218D+00 0.668D+00
 Coeff-En:   0.000D+00 0.000D+00 0.000D+00 0.000D+00 0.100D+01
 Coeff:     -0.478D-02 0.174D-01 0.101D+00 0.218D+00 0.669D+00
 Gap=     0.244 Goal=   None    Shift=    0.000
 RMSDP=5.29D-05 MaxDP=1.09D-03 DE=-1.24D-03 OVMax= 1.50D-03

 Cycle   6  Pass 1  IDiag  1:
 RMSU=  3.44D-05    CP:  9.71D-01  8.72D-01  7.75D-01  6.44D-01  7.80D-01
 E= -308.748975921506     Delta-E=       -0.000015586003 Rises=F Damp=F
 DIIS: error= 2.20D-04 at cycle   6 NSaved=   6.
 NSaved= 6 IEnMin= 6 EnMin= -308.748975921506     IErMin= 6 ErrMin= 2.20D-04
 ErrMax= 2.20D-04  0.00D+00 EMaxC= 1.00D-01 BMatC= 9.25D-06 BMatP= 2.83D-05
 IDIUse=3 WtCom= 9.98D-01 WtEn= 2.20D-03
 Coeff-Com: -0.156D-02 0.218D-02 0.352D-01 0.903D-01 0.419D+00 0.455D+00
 Coeff-En:   0.000D+00 0.000D+00 0.000D+00 0.000D+00 0.214D+00 0.786D+00
 Coeff:     -0.156D-02 0.217D-02 0.351D-01 0.901D-01 0.418D+00 0.456D+00
 Gap=     0.244 Goal=   None    Shift=    0.000
 RMSDP=2.16D-05 MaxDP=4.78D-04 DE=-1.56D-05 OVMax= 5.21D-04

 Cycle   7  Pass 1  IDiag  1:
 RMSU=  1.15D-05    CP:  9.71D-01  8.71D-01  7.78D-01  6.36D-01  7.94D-01
                    CP:  5.35D-01
 E= -308.748982684220     Delta-E=       -0.000006762714 Rises=F Damp=F
 DIIS: error= 1.97D-05 at cycle   7 NSaved=   7.
 NSaved= 7 IEnMin= 7 EnMin= -308.748982684220     IErMin= 7 ErrMin= 1.97D-05
 ErrMax= 1.97D-05  0.00D+00 EMaxC= 1.00D-01 BMatC= 1.47D-07 BMatP= 9.25D-06
 IDIUse=1 WtCom= 1.00D+00 WtEn= 0.00D+00
 Coeff-Com: -0.430D-03 0.166D-03 0.109D-01 0.301D-01 0.152D+00 0.202D+00
 Coeff-Com:  0.605D+00
 Coeff:     -0.430D-03 0.166D-03 0.109D-01 0.301D-01 0.152D+00 0.202D+00
 Coeff:      0.605D+00
 Gap=     0.244 Goal=   None    Shift=    0.000
 RMSDP=4.59D-06 MaxDP=8.76D-05 DE=-6.76D-06 OVMax= 9.21D-05

 Cycle   8  Pass 1  IDiag  1:
 RMSU=  2.95D-06    CP:  9.71D-01  8.71D-01  7.78D-01  6.38D-01  8.00D-01
                    CP:  5.51D-01  7.37D-01
 E= -308.748982797127     Delta-E=       -0.000000112907 Rises=F Damp=F
 DIIS: error= 7.60D-06 at cycle   8 NSaved=   8.
 NSaved= 8 IEnMin= 8 EnMin= -308.748982797127     IErMin= 8 ErrMin= 7.60D-06
 ErrMax= 7.60D-06  0.00D+00 EMaxC= 1.00D-01 BMatC= 1.68D-08 BMatP= 1.47D-07
 IDIUse=1 WtCom= 1.00D+00 WtEn= 0.00D+00
 Coeff-Com: -0.240D-04-0.169D-03 0.142D-02 0.494D-02 0.279D-01 0.490D-01
 Coeff-Com:  0.298D+00 0.619D+00
 Coeff:     -0.240D-04-0.169D-03 0.142D-02 0.494D-02 0.279D-01 0.490D-01
 Coeff:      0.298D+00 0.619D+00
 Gap=     0.244 Goal=   None    Shift=    0.000
 RMSDP=1.56D-06 MaxDP=3.13D-05 DE=-1.13D-07 OVMax= 3.36D-05

 Cycle   9  Pass 1  IDiag  1:
 RMSU=  1.23D-06    CP:  9.71D-01  8.71D-01  7.78D-01  6.38D-01  8.01D-01
                    CP:  5.58D-01  7.47D-01  7.31D-01
 E= -308.748982813001     Delta-E=       -0.000000015874 Rises=F Damp=F
 DIIS: error= 1.76D-06 at cycle   9 NSaved=   9.
 NSaved= 9 IEnMin= 9 EnMin= -308.748982813001     IErMin= 9 ErrMin= 1.76D-06
 ErrMax= 1.76D-06  0.00D+00 EMaxC= 1.00D-01 BMatC= 4.80D-10 BMatP= 1.68D-08
 IDIUse=1 WtCom= 1.00D+00 WtEn= 0.00D+00
 Coeff-Com:  0.225D-04-0.668D-04-0.316D-03-0.444D-03-0.173D-02 0.110D-02
 Coeff-Com:  0.563D-01 0.203D+00 0.742D+00
 Coeff:      0.225D-04-0.668D-04-0.316D-03-0.444D-03-0.173D-02 0.110D-02
 Coeff:      0.563D-01 0.203D+00 0.742D+00
 Gap=     0.244 Goal=   None    Shift=    0.000
 RMSDP=4.15D-07 MaxDP=8.49D-06 DE=-1.59D-08 OVMax= 5.53D-06

 Cycle  10  Pass 1  IDiag  1:
 RMSU=  1.64D-07    CP:  9.71D-01  8.71D-01  7.78D-01  6.38D-01  8.00D-01
                    CP:  5.57D-01  7.65D-01  7.56D-01  7.72D-01
 E= -308.748982813443     Delta-E=       -0.000000000442 Rises=F Damp=F
 DIIS: error= 5.49D-07 at cycle  10 NSaved=  10.
 NSaved=10 IEnMin=10 EnMin= -308.748982813443     IErMin=10 ErrMin= 5.49D-07
 ErrMax= 5.49D-07  0.00D+00 EMaxC= 1.00D-01 BMatC= 5.37D-11 BMatP= 4.80D-10
 IDIUse=1 WtCom= 1.00D+00 WtEn= 0.00D+00
 Coeff-Com:  0.116D-04-0.259D-04-0.210D-03-0.388D-03-0.186D-02-0.120D-02
 Coeff-Com:  0.166D-01 0.769D-01 0.357D+00 0.553D+00
 Coeff:      0.116D-04-0.259D-04-0.210D-03-0.388D-03-0.186D-02-0.120D-02
 Coeff:      0.166D-01 0.769D-01 0.357D+00 0.553D+00
 Gap=     0.244 Goal=   None    Shift=    0.000
 RMSDP=7.14D-08 MaxDP=1.29D-06 DE=-4.42D-10 OVMax= 1.44D-06

 Cycle  11  Pass 1  IDiag  1:
 RMSU=  4.87D-08    CP:  9.71D-01  8.71D-01  7.78D-01  6.38D-01  8.00D-01
                    CP:  5.57D-01  7.65D-01  7.57D-01  7.90D-01  7.36D-01
 E= -308.748982813491     Delta-E=       -0.000000000048 Rises=F Damp=F
 DIIS: error= 9.31D-08 at cycle  11 NSaved=  11.
 NSaved=11 IEnMin=11 EnMin= -308.748982813491     IErMin=11 ErrMin= 9.31D-08
 ErrMax= 9.31D-08  0.00D+00 EMaxC= 1.00D-01 BMatC= 2.34D-12 BMatP= 5.37D-11
 IDIUse=1 WtCom= 1.00D+00 WtEn= 0.00D+00
 Coeff-Com:  0.168D-05-0.221D-05-0.479D-04-0.946D-04-0.505D-03-0.510D-03
 Coeff-Com:  0.382D-03 0.810D-02 0.558D-01 0.196D+00 0.740D+00
 Coeff:      0.168D-05-0.221D-05-0.479D-04-0.946D-04-0.505D-03-0.510D-03
 Coeff:      0.382D-03 0.810D-02 0.558D-01 0.196D+00 0.740D+00
 Gap=     0.244 Goal=   None    Shift=    0.000
 RMSDP=1.87D-08 MaxDP=3.00D-07 DE=-4.79D-11 OVMax= 3.02D-07

 Cycle  12  Pass 1  IDiag  1:
 RMSU=  1.36D-08    CP:  9.71D-01  8.71D-01  7.78D-01  6.38D-01  8.00D-01
                    CP:  5.57D-01  7.65D-01  7.60D-01  7.95D-01  7.59D-01
                    CP:  9.05D-01
 E= -308.748982813493     Delta-E=       -0.000000000002 Rises=F Damp=F
 DIIS: error= 1.93D-08 at cycle  12 NSaved=  12.
 NSaved=12 IEnMin=12 EnMin= -308.748982813493     IErMin=12 ErrMin= 1.93D-08
 ErrMax= 1.93D-08  0.00D+00 EMaxC= 1.00D-01 BMatC= 7.38D-14 BMatP= 2.34D-12
 IDIUse=1 WtCom= 1.00D+00 WtEn= 0.00D+00
 Coeff-Com: -0.103D-06 0.636D-06-0.528D-05-0.104D-04-0.660D-04-0.831D-04
 Coeff-Com: -0.570D-03-0.915D-03 0.114D-02 0.306D-01 0.216D+00 0.754D+00
 Coeff:     -0.103D-06 0.636D-06-0.528D-05-0.104D-04-0.660D-04-0.831D-04
 Coeff:     -0.570D-03-0.915D-03 0.114D-02 0.306D-01 0.216D+00 0.754D+00
 Gap=     0.244 Goal=   None    Shift=    0.000
 RMSDP=4.79D-09 MaxDP=7.52D-08 DE=-2.16D-12 OVMax= 6.01D-08

 SCF Done:  E(RB3LYP) =  -308.748982813     A.U. after   12 cycles
            NFock= 12  Conv=0.48D-08     -V/T= 2.0079
 KE= 3.063285857620D+02 PE=-1.227869946085D+03 EE= 3.590805066886D+02
 Leave Link  502 at Thu Mar 14 22:23:15 2024, MaxMem=  6442450944 cpu:             105.4 elap:               3.8
 (Enter /gpfs/software/gaussian/g16/l601.exe)
 Copying SCF densities to generalized density rwf, IOpCl= 0 IROHF=0.

 **********************************************************************

            Population analysis using the SCF Density.

 **********************************************************************

 Orbital symmetries:
       Occupied  (A) (A) (A) (A) (A) (A) (A) (A) (A) (A) (A) (A)
                 (A) (A) (A) (A) (A) (A) (A) (A) (A) (A) (A) (A)
                 (A)
       Virtual   (A) (A) (A) (A) (A) (A) (A) (A) (A) (A) (A) (A)
                 (A) (A) (A) (A) (A) (A) (A) (A) (A) (A) (A) (A)
                 (A) (A) (A) (A) (A) (A) (A) (A) (A) (A) (A) (A)
                 (A) (A) (A) (A) (A) (A) (A) (A) (A) (A) (A) (A)
                 (A) (A) (A) (A) (A) (A) (A) (A) (A) (A) (A) (A)
                 (A) (A) (A) (A) (A) (A) (A) (A) (A) (A) (A) (A)
                 (A) (A) (A) (A) (A) (A) (A) (A) (A) (A) (A) (A)
                 (A) (A) (A) (A) (A) (A) (A) (A) (A) (A) (A) (A)
                 (A) (A) (A) (A) (A) (A) (A) (A) (A) (A) (A) (A)
                 (A)
 The electronic state is 1-A.
 Alpha  occ. eigenvalues --  -19.16122 -19.16006 -10.23805 -10.23778 -10.22606
 Alpha  occ. eigenvalues --  -10.22557  -1.05118  -1.03841  -0.77650  -0.71193
 Alpha  occ. eigenvalues --   -0.66222  -0.61867  -0.53183  -0.51115  -0.49515
 Alpha  occ. eigenvalues --   -0.46942  -0.46203  -0.44526  -0.40143  -0.37945
 Alpha  occ. eigenvalues --   -0.34040  -0.32641  -0.31116  -0.26689  -0.25175
 Alpha virt. eigenvalues --   -0.00742   0.01418   0.01658   0.03155   0.03532
 Alpha virt. eigenvalues --    0.03822   0.05213   0.06340   0.07097   0.07869
 Alpha virt. eigenvalues --    0.08469   0.09534   0.10010   0.11669   0.12538
 Alpha virt. eigenvalues --    0.14584   0.14882   0.19356   0.20224   0.20871
 Alpha virt. eigenvalues --    0.21876   0.22144   0.22836   0.23909   0.24424
 Alpha virt. eigenvalues --    0.25797   0.26614   0.27688   0.28052   0.29162
 Alpha virt. eigenvalues --    0.29459   0.31497   0.31944   0.32497   0.34034
 Alpha virt. eigenvalues --    0.37736   0.38775   0.40600   0.41614   0.60779
 Alpha virt. eigenvalues --    0.63880   0.65129   0.66506   0.66958   0.69338
 Alpha virt. eigenvalues --    0.71909   0.76040   0.80768   0.82853   0.84046
 Alpha virt. eigenvalues --    0.85824   0.88285   0.90372   0.95036   0.98883
 Alpha virt. eigenvalues --    0.99463   1.03253   1.04276   1.09188   1.10844
 Alpha virt. eigenvalues --    1.14325   1.18230   1.18757   1.23938   1.24999
 Alpha virt. eigenvalues --    1.27223   1.27700   1.33172   1.38939   1.41615
 Alpha virt. eigenvalues --    1.47041   1.49193   1.50763   1.52410   1.56555
 Alpha virt. eigenvalues --    1.63046   1.70011   1.73825   1.84565   1.85083
 Alpha virt. eigenvalues --    1.91492   1.92436   2.01657   2.04171   2.05806
 Alpha virt. eigenvalues --    2.08720   2.11509   2.18024   2.19310   2.22091
 Alpha virt. eigenvalues --    2.24760   2.31195   2.32406   2.38879   2.49058
 Alpha virt. eigenvalues --    2.51441   2.61227   2.65446   2.71286   2.77534
 Alpha virt. eigenvalues --    2.84396   3.00083   3.01126   4.16274   4.23876
 Alpha virt. eigenvalues --    4.31343   4.32435   4.35585   4.53839
          Condensed to atoms (all electrons):
               1          2          3          4          5          6
     1  O    8.566676   0.005308   0.115818  -0.020795   0.003073   0.003643
     2  C    0.005308   5.350048  -0.132037   0.010214   0.003875   0.000109
     3  C    0.115818  -0.132037   5.690540  -0.099772  -0.020787   0.000011
     4  C   -0.020795   0.010214  -0.099772   5.619597   0.131038  -0.138682
     5  O    0.003073   0.003875  -0.020787   0.131038   8.397056   0.122646
     6  C    0.003643   0.000109   0.000011  -0.138682   0.122646   5.173656
     7  H   -0.135164   0.397981   0.054385  -0.015967   0.000063  -0.000464
     8  H   -0.009291   0.325424  -0.021902   0.017952   0.000097   0.000344
     9  H   -0.049386  -0.015674   0.423580  -0.056589   0.002280  -0.000742
    10  H   -0.066730  -0.010424   0.397872  -0.041381   0.002949   0.000230
    11  H    0.002121   0.000269  -0.060944   0.419570  -0.057147  -0.007408
    12  H    0.001850  -0.001361  -0.043130   0.403030  -0.056570  -0.006761
    13  H    0.000005   0.000113   0.005215  -0.016364  -0.051903   0.398501
    14  H    0.000010   0.000095   0.005278  -0.016959  -0.052085   0.399118
    15  H    0.000005  -0.000107  -0.006565   0.016536  -0.049798   0.396195
    16  H   -0.094342   0.430704   0.018164  -0.024626  -0.000056  -0.000272
               7          8          9         10         11         12
     1  O   -0.135164  -0.009291  -0.049386  -0.066730   0.002121   0.001850
     2  C    0.397981   0.325424  -0.015674  -0.010424   0.000269  -0.001361
     3  C    0.054385  -0.021902   0.423580   0.397872  -0.060944  -0.043130
     4  C   -0.015967   0.017952  -0.056589  -0.041381   0.419570   0.403030
     5  O    0.000063   0.000097   0.002280   0.002949  -0.057147  -0.056570
     6  C   -0.000464   0.000344  -0.000742   0.000230  -0.007408  -0.006761
     7  H    0.593021  -0.102640  -0.006986   0.023927  -0.000060   0.000032
     8  H   -0.102640   0.686570   0.008816  -0.002621  -0.000011   0.000023
     9  H   -0.006986   0.008816   0.555680  -0.052140   0.004289  -0.006907
    10  H    0.023927  -0.002621  -0.052140   0.567510  -0.006920   0.004237
    11  H   -0.000060  -0.000011   0.004289  -0.006920   0.565992  -0.051677
    12  H    0.000032   0.000023  -0.006907   0.004237  -0.051677   0.563441
    13  H    0.000000  -0.000000   0.000000  -0.000019   0.009838  -0.002496
    14  H   -0.000000   0.000000  -0.000018  -0.000001  -0.002463   0.009750
    15  H    0.000000  -0.000000   0.000005   0.000007  -0.000170  -0.000185
    16  H    0.010183  -0.079156  -0.000320  -0.000037   0.000007  -0.000013
              13         14         15         16
     1  O    0.000005   0.000010   0.000005  -0.094342
     2  C    0.000113   0.000095  -0.000107   0.430704
     3  C    0.005215   0.005278  -0.006565   0.018164
     4  C   -0.016364  -0.016959   0.016536  -0.024626
     5  O   -0.051903  -0.052085  -0.049798  -0.000056
     6  C    0.398501   0.399118   0.396195  -0.000272
     7  H    0.000000  -0.000000   0.000000   0.010183
     8  H   -0.000000   0.000000  -0.000000  -0.079156
     9  H    0.000000  -0.000018   0.000005  -0.000320
    10  H   -0.000019  -0.000001   0.000007  -0.000037
    11  H    0.009838  -0.002463  -0.000170   0.000007
    12  H   -0.002496   0.009750  -0.000185  -0.000013
    13  H    0.554404  -0.049557  -0.030993   0.000000
    14  H   -0.049557   0.555239  -0.031058  -0.000000
    15  H   -0.030993  -0.031058   0.505791   0.000000
    16  H    0.000000  -0.000000   0.000000   0.498470
 Mulliken charges:
               1
     1  O   -0.322802
     2  C   -0.364539
     3  C   -0.325727
     4  C   -0.186800
     5  O   -0.374731
     6  C   -0.340123
     7  H    0.181688
     8  H    0.176393
     9  H    0.194112
    10  H    0.183541
    11  H    0.184713
    12  H    0.186738
    13  H    0.183255
    14  H    0.182651
    15  H    0.200336
    16  H    0.241295
 Sum of Mulliken charges =  -0.00000
 Mulliken charges with hydrogens summed into heavy atoms:
               1
     1  O   -0.322802
     2  C    0.234837
     3  C    0.051926
     4  C    0.184651
     5  O   -0.374731
     6  C    0.226120
 Electronic spatial extent (au):  <R**2>=            955.9922
 Charge=             -0.0000 electrons
 Dipole moment (field-independent basis, Debye):
    X=             -0.5821    Y=              0.1976    Z=             -0.6454  Tot=              0.8913
 Quadrupole moment (field-independent basis, Debye-Ang):
   XX=            -34.7588   YY=            -40.8661   ZZ=            -38.8795
   XY=              5.0539   XZ=             -2.9638   YZ=              0.9855
 Traceless Quadrupole moment (field-independent basis, Debye-Ang):
   XX=              3.4094   YY=             -2.6980   ZZ=             -0.7114
   XY=              5.0539   XZ=             -2.9638   YZ=              0.9855
 Octapole moment (field-independent basis, Debye-Ang**2):
  XXX=            -20.1712  YYY=              0.4799  ZZZ=             -1.1974  XYY=             -0.2720
  XXY=              3.5775  XXZ=            -11.1444  XZZ=             -1.0889  YZZ=             -0.8896
  YYZ=             -0.1956  XYZ=              2.4473
 Hexadecapole moment (field-independent basis, Debye-Ang**3):
 XXXX=          -1051.9101 YYYY=           -111.9043 ZZZZ=            -69.9814 XXXY=             -1.3738
 XXXZ=            -40.5744 YYYX=             -4.1687 YYYZ=              1.2725 ZZZX=             -5.0071
 ZZZY=              0.8909 XXYY=           -204.8283 XXZZ=           -199.4483 YYZZ=            -29.1834
 XXYZ=              7.1455 YYXZ=             -0.6531 ZZXY=             -1.0190
 N-N= 2.537118708210D+02 E-N=-1.227869944202D+03  KE= 3.063285857620D+02
 No NMR shielding tensors so no spin-rotation constants.
 Leave Link  601 at Thu Mar 14 22:23:16 2024, MaxMem=  6442450944 cpu:               4.3 elap:               0.2
 (Enter /gpfs/software/gaussian/g16/l701.exe)
 ... and contract with generalized density number  0.
 Compute integral first derivatives.
 Leave Link  701 at Thu Mar 14 22:23:16 2024, MaxMem=  6442450944 cpu:               4.3 elap:               0.2
 (Enter /gpfs/software/gaussian/g16/l702.exe)
 L702 exits ... SP integral derivatives will be done elsewhere.
 Leave Link  702 at Thu Mar 14 22:23:16 2024, MaxMem=  6442450944 cpu:               1.0 elap:               0.1
 (Enter /gpfs/software/gaussian/g16/l703.exe)
 Integral derivatives from FoFJK, PRISM(SPDF).
 Compute integral first derivatives, UseDBF=F ICtDFT=           0.
 Calling FoFJK, ICntrl=      2127 FMM=F ISym2X=0 I1Cent= 0 IOpClX= 0 NMat=1 NMatS=1 NMatT=0.
 FoFJK:  IHMeth= 1 ICntrl=    2127 DoSepK=F KAlg= 0 I1Cent=           0 FoldK=F
 IRaf=         0 NMat=       1 IRICut=       1 DoRegI=T DoRafI=F ISym2E= 0 IDoP0=0 IntGTp=1.
 FoFCou: FMM=F IPFlag=           0 FMFlag=      100000 FMFlg1=         800
         NFxFlg=           0 DoJE=F BraDBF=F KetDBF=F FulRan=T
         wScrn=  0.000000 ICntrl=      2127 IOpCl=  0 I1Cent=           0 NGrid=           0
         NMat0=    1 NMatS0=      1 NMatT0=    0 NMatD0=    1 NMtDS0=    0 NMtDT0=    0
 Symmetry not used in FoFCou.
 Leave Link  703 at Thu Mar 14 22:23:17 2024, MaxMem=  6442450944 cpu:              21.1 elap:               0.8
 (Enter /gpfs/software/gaussian/g16/l716.exe)
 Dipole        =-2.29024668D-01 7.77498172D-02-2.53931984D-01
 ***** Axes restored to original set *****
 -------------------------------------------------------------------
 Center     Atomic                   Forces (Hartrees/Bohr)
 Number     Number              X              Y              Z
 -------------------------------------------------------------------
      1        8           0.034336498    0.022941479   -0.039264121
      2        6           0.040250142    0.013654956   -0.029187282
      3        6          -0.003192753    0.010329330   -0.013218942
      4        6           0.006925888   -0.000813478    0.007175980
      5        8           0.002851329   -0.005663186    0.001730599
      6        6          -0.010470216   -0.014848340    0.005339160
      7        1          -0.043132000   -0.017680699    0.074491590
      8        1           0.038027582   -0.021177779   -0.036405868
      9        1          -0.000027050    0.001678983    0.002599594
     10        1           0.001943156   -0.001397562    0.005362677
     11        1          -0.000560908   -0.000803452   -0.001770447
     12        1          -0.001525357    0.000294192   -0.002301687
     13        1          -0.005165858    0.018538024    0.011161263
     14        1          -0.004966918    0.006306381   -0.020475801
     15        1           0.015971657   -0.004422489    0.001775513
     16        1          -0.071265192   -0.006936360    0.032987771
 -------------------------------------------------------------------
 Cartesian Forces:  Max     0.074491590 RMS     0.022898437
 Leave Link  716 at Thu Mar 14 22:23:17 2024, MaxMem=  6442450944 cpu:               0.8 elap:               0.1
 (Enter /gpfs/software/gaussian/g16/l103.exe)

 GradGradGradGradGradGradGradGradGradGradGradGradGradGradGradGradGradGrad
 Berny optimization.
 FormGI is forming the generalized inverse of G from B-inverse, IUseBI=4.
 Internal  Forces:  Max     0.075548945 RMS     0.021787086
 Search for a local minimum.
 Step number   1 out of a maximum of    5
 All quantities printed in internal units (Hartrees-Bohrs-Radians)
 RMS Force = .21787D-01 SwitMx=.10000D-02 MixMth= 1
 Mixed Optimization -- RFO/linear search
 Second derivative matrix not updated -- first step.
 ITU=  0
     Eigenvalues ---    0.00434   0.01417   0.01419   0.01419   0.01484
     Eigenvalues ---    0.03084   0.05455   0.05455   0.05946   0.05946
     Eigenvalues ---    0.06881   0.10415   0.10419   0.10793   0.11044
     Eigenvalues ---    0.11044   0.13571   0.13571   0.16000   0.16000
     Eigenvalues ---    0.16000   0.16000   0.16000   0.21994   0.21994
     Eigenvalues ---    0.25000   0.25000   0.29882   0.33200   0.33200
     Eigenvalues ---    0.34057   0.34057   0.37220   0.37220   0.37232
     Eigenvalues ---    0.37237   0.37267   0.37286   0.42344   0.42370
     Eigenvalues ---    0.42370   0.43115
 RFO step:  Lambda=-1.33216776D-01 EMin= 4.34052793D-03
 Linear search not attempted -- first point.
 Maximum step size (   0.300) exceeded in Quadratic search.
    -- Step size scaled by   0.394
 Iteration  1 RMS(Cart)=  0.05424481 RMS(Int)=  0.00340484
 Iteration  2 RMS(Cart)=  0.00305387 RMS(Int)=  0.00156817
 Iteration  3 RMS(Cart)=  0.00001149 RMS(Int)=  0.00156816
 Iteration  4 RMS(Cart)=  0.00000007 RMS(Int)=  0.00156816
 ITry= 1 IFail=0 DXMaxC= 2.19D-01 DCOld= 1.00D+10 DXMaxT= 3.00D-01 DXLimC= 3.00D+00 Rises=F
 Variable       Old X    -DE/DX   Delta X   Delta X   Delta X     New X
                                 (Linear)    (Quad)   (Total)
    R1        2.68487   0.05487   0.00000   0.03885   0.03885   2.72373
    R2        2.68454   0.00206   0.00000   0.00146   0.00146   2.68600
    R3        2.02216   0.02726   0.00000   0.02126   0.02126   2.04343
    R4        2.02198   0.04509   0.00000   0.03516   0.03516   2.05713
    R5        2.02216   0.02233   0.00000   0.01742   0.01742   2.03958
    R6        2.88200  -0.00136   0.00000  -0.00124  -0.00124   2.88076
    R7        2.08701  -0.00276   0.00000  -0.00234  -0.00234   2.08467
    R8        2.07233   0.00584   0.00000   0.00486   0.00486   2.07719
    R9        2.68454  -0.00178   0.00000  -0.00126  -0.00126   2.68328
   R10        2.08701  -0.00143   0.00000  -0.00121  -0.00121   2.08580
   R11        2.07233   0.00272   0.00000   0.00226   0.00226   2.07459
   R12        2.67528   0.00387   0.00000   0.00270   0.00270   2.67798
   R13        2.02117   0.02199   0.00000   0.01713   0.01713   2.03829
   R14        2.02191   0.02173   0.00000   0.01694   0.01694   2.03885
   R15        2.02145   0.01613   0.00000   0.01257   0.01257   2.03403
    A1        1.96677   0.01854   0.00000   0.01907   0.01907   1.98584
    A2        1.57028   0.04833   0.00000   0.09699   0.09827   1.66855
    A3        2.09426  -0.06946   0.00000  -0.09337  -0.09169   2.00257
    A4        1.57131   0.02278   0.00000   0.06135   0.06219   1.63350
    A5        1.57103   0.01413   0.00000   0.04112   0.04912   1.62016
    A6        1.57056   0.01576   0.00000   0.04070   0.04773   1.61828
    A7        1.87178   0.00476   0.00000   0.00559   0.00559   1.87737
    A8        1.92421  -0.00076   0.00000   0.00006   0.00005   1.92426
    A9        1.93292  -0.00215   0.00000  -0.00292  -0.00292   1.93001
   A10        1.91508  -0.00020   0.00000   0.00046   0.00045   1.91554
   A11        1.92291  -0.00141   0.00000  -0.00191  -0.00191   1.92100
   A12        1.89700  -0.00022   0.00000  -0.00121  -0.00121   1.89579
   A13        1.87178   0.00187   0.00000   0.00229   0.00229   1.87407
   A14        1.91508  -0.00014   0.00000   0.00002   0.00002   1.91510
   A15        1.92291  -0.00104   0.00000  -0.00155  -0.00155   1.92136
   A16        1.92421  -0.00002   0.00000   0.00058   0.00058   1.92479
   A17        1.93292  -0.00037   0.00000  -0.00035  -0.00035   1.93258
   A18        1.89700  -0.00029   0.00000  -0.00096  -0.00096   1.89604
   A19        1.97573  -0.00190   0.00000  -0.00196  -0.00196   1.97377
   A20        1.91076   0.00557   0.00000   0.00769   0.00768   1.91844
   A21        1.91042   0.00568   0.00000   0.00785   0.00783   1.91826
   A22        1.91067  -0.00863   0.00000  -0.01202  -0.01201   1.89865
   A23        1.91083  -0.00227   0.00000  -0.00221  -0.00224   1.90859
   A24        1.91090  -0.00018   0.00000  -0.00068  -0.00067   1.91023
   A25        1.91022  -0.00016   0.00000  -0.00063  -0.00062   1.90960
   A26        3.14159   0.07111   0.00000   0.15833   0.16046   3.30205
   A27        3.14159   0.07555   0.00000   0.18585   0.18133   3.32292
    D1        0.78233   0.03834   0.00000   0.09221   0.08952   0.87185
    D2       -0.78845  -0.00590   0.00000  -0.01129  -0.01044  -0.79889
    D3       -2.35927  -0.03720   0.00000  -0.09364  -0.09181  -2.45108
    D4        3.13507   0.00168   0.00000   0.00404   0.00404   3.13911
    D5        1.05080  -0.00050   0.00000   0.00010   0.00010   1.05090
    D6       -1.04937   0.00167   0.00000   0.00348   0.00347  -1.04590
    D7        3.14159  -0.00053   0.00000  -0.00116  -0.00116   3.14043
    D8        1.05148  -0.00154   0.00000  -0.00322  -0.00322   1.04826
    D9       -1.03649  -0.00044   0.00000  -0.00108  -0.00108  -1.03757
   D10       -1.05148   0.00126   0.00000   0.00247   0.00247  -1.04900
   D11        3.14159   0.00025   0.00000   0.00041   0.00041  -3.14118
   D12        1.05363   0.00135   0.00000   0.00255   0.00255   1.05618
   D13        1.03649  -0.00002   0.00000   0.00007   0.00008   1.03657
   D14       -1.05363  -0.00102   0.00000  -0.00198  -0.00198  -1.05561
   D15        3.14159   0.00007   0.00000   0.00015   0.00015  -3.14144
   D16       -3.13783  -0.00042   0.00000  -0.00079  -0.00079  -3.13863
   D17       -1.05356   0.00052   0.00000   0.00092   0.00093  -1.05263
   D18        1.04661  -0.00010   0.00000  -0.00012  -0.00012   1.04649
   D19        1.04719   0.00207   0.00000   0.00345   0.00349   1.05068
   D20       -1.04739  -0.00203   0.00000  -0.00337  -0.00341  -1.05080
   D21       -3.14117  -0.00003   0.00000  -0.00004  -0.00004  -3.14121
         Item               Value     Threshold  Converged?
 Maximum Force            0.075549     0.000450     NO 
 RMS     Force            0.021787     0.000300     NO 
 Maximum Displacement     0.219043     0.001800     NO 
 RMS     Displacement     0.054457     0.001200     NO 
 Predicted change in Energy=-4.902722D-02
 Lowest energy point so far.  Saving SCF results.
 GradGradGradGradGradGradGradGradGradGradGradGradGradGradGradGradGradGrad

 Leave Link  103 at Thu Mar 14 22:23:17 2024, MaxMem=  6442450944 cpu:               1.2 elap:               0.1
 (Enter /gpfs/software/gaussian/g16/l202.exe)
                          Input orientation:                          
 ---------------------------------------------------------------------
 Center     Atomic      Atomic             Coordinates (Angstroms)
 Number     Number       Type             X           Y           Z
 ---------------------------------------------------------------------
      1          8           0       -1.661646   -0.730351    0.307190
      2          6           0       -2.195766   -1.980982    0.784773
      3          6           0       -0.241206   -0.679588    0.298981
      4          6           0        0.167132    0.690731   -0.229582
      5          8           0        1.586281    0.737647   -0.234623
      6          6           0        2.099855    1.971785   -0.705154
      7          1           0       -1.597913   -2.014098    1.685195
      8          1           0       -1.718810   -2.867721    0.370970
      9          1           0        0.165296   -1.468301   -0.356496
     10          1           0        0.156567   -0.826482    1.313103
     11          1           0       -0.239437    1.479520    0.426771
     12          1           0       -0.230109    0.837867   -1.242388
     13          1           0        1.755784    2.777027   -0.075380
     14          1           0        1.770770    2.144407   -1.718049
     15          1           0        3.175184    1.931770   -0.680291
     16          1           0       -2.986980   -2.001231    0.050978
 ---------------------------------------------------------------------
                    Distance matrix (angstroms):
                    1          2          3          4          5
     1  O    0.000000
     2  C    1.441335   0.000000
     3  C    1.421370   2.397900   0.000000
     4  C    2.377400   3.708134   1.524432   0.000000
     5  O    3.605220   4.768017   2.373394   1.419933   0.000000
     6  C    4.740809   6.024667   3.676769   2.366999   1.417128
     7  H    1.884400   1.081334   2.354391   3.754711   4.625677
     8  H    2.139085   1.088589   2.641292   4.071857   4.928392
     9  H    2.079127   2.672069   1.103161   2.162760   2.626835
    10  H    2.080144   2.673101   1.099202   2.163776   2.624126
    11  H    2.630685   3.991298   2.162886   1.103759   2.078716
    12  H    2.628650   3.989875   2.163010   1.097827   2.079641
    13  H    4.911913   6.244458   4.009526   2.626827   2.052598
    14  H    4.913991   6.246307   4.011409   2.626853   2.052696
    15  H    5.608648   6.804641   4.410203   3.285071   2.036949
    16  H    1.853993   1.079298   3.057371   4.156176   5.338327
                    6          7          8          9         10
     6  C    0.000000
     7  H    5.939235   0.000000
     8  H    6.257880   1.571774   0.000000
     9  H    3.962104   2.752326   2.457120   0.000000
    10  H    3.959802   2.151065   2.927679   1.788734   0.000000
    11  H    2.644970   3.954042   4.592402   3.076843   2.502009
    12  H    2.646341   4.309911   4.307034   2.501912   3.074103
    13  H    1.078618   6.107518   6.643433   4.542190   4.179792
    14  H    1.078912   6.342180   6.454657   4.181272   4.540894
    15  H    1.076360   6.629317   6.934799   4.552445   4.549025
    16  H    6.498652   2.144840   1.568902   3.222871   3.585370
                   11         12         13         14         15
    11  H    0.000000
    12  H    1.788266   0.000000
    13  H    2.432403   3.010983   0.000000
    14  H    3.013844   2.436558   1.760339   0.000000
    15  H    3.617976   3.620580   1.759282   1.759129   0.000000
    16  H    4.450375   4.163366   6.733612   6.553774   7.346803
                   16
    16  H    0.000000
 Stoichiometry    C4H10O2
 Framework group  C1[X(C4H10O2)]
 Deg. of freedom    42
 Full point group                 C1      NOp   1
 RotChk:  IX=0 Diff= 7.18D-03
 Largest Abelian subgroup         C1      NOp   1
 Largest concise Abelian subgroup C1      NOp   1
                         Standard orientation:                         
 ---------------------------------------------------------------------
 Center     Atomic      Atomic             Coordinates (Angstroms)
 Number     Number       Type             X           Y           Z
 ---------------------------------------------------------------------
      1          8           0        1.733233   -0.527297    0.057884
      2          6           0        3.032743    0.095855    0.037818
      3          6           0        0.653999    0.395724   -0.001948
      4          6           0       -0.640944   -0.408226    0.024156
      5          8           0       -1.716049    0.517491   -0.034192
      6          6           0       -2.988316   -0.106322   -0.013013
      7          1           0        2.820211    0.808453    0.822877
      8          1           0        3.152339    0.875994   -0.711920
      9          1           0        0.707600    0.986110   -0.932290
     10          1           0        0.687227    1.085070    0.853588
     11          1           0       -0.694343   -0.998428    0.955336
     12          1           0       -0.674415   -1.096954   -0.830102
     13          1           0       -3.104268   -0.673720    0.896949
     14          1           0       -3.088195   -0.765995   -0.860896
     15          1           0       -3.748218    0.654513   -0.060234
     16          1           0        3.459700   -0.658782   -0.604923
 ---------------------------------------------------------------------
 Rotational constants (GHZ):          18.8112127           1.2799769           1.2360849
 Leave Link  202 at Thu Mar 14 22:23:17 2024, MaxMem=  6442450944 cpu:               0.9 elap:               0.1
 (Enter /gpfs/software/gaussian/g16/l301.exe)
 Standard basis: 6-31+G(d) (6D, 7F)
 Ernie: Thresh=  0.10000D-02 Tol=  0.10000D-05 Strict=F.
 There are   134 symmetry adapted cartesian basis functions of A   symmetry.
 There are   134 symmetry adapted basis functions of A   symmetry.
   134 basis functions,   232 primitive gaussians,   134 cartesian basis functions
    25 alpha electrons       25 beta electrons
       nuclear repulsion energy       252.3605128249 Hartrees.
 IExCor=  402 DFT=T Ex+Corr=B3LYP ExCW=0 ScaHFX=  0.200000
 ScaDFX=  0.800000  0.720000  1.000000  0.810000 ScalE2=  1.000000  1.000000
 IRadAn=      5 IRanWt=     -1 IRanGd=            0 ICorTp=0 IEmpDi=  4
 NAtoms=   16 NActive=   16 NUniq=   16 SFac= 1.00D+00 NAtFMM=   60 NAOKFM=F Big=F
 Integral buffers will be    131072 words long.
 Raffenetti 2 integral format.
 Two-electron integral symmetry is turned on.
 Leave Link  301 at Thu Mar 14 22:23:17 2024, MaxMem=  6442450944 cpu:               1.8 elap:               0.1
 (Enter /gpfs/software/gaussian/g16/l302.exe)
 NPDir=0 NMtPBC=     1 NCelOv=     1 NCel=       1 NClECP=     1 NCelD=      1
         NCelK=      1 NCelE2=     1 NClLst=     1 CellRange=     0.0.
 One-electron integrals computed using PRISM.
 One-electron integral symmetry used in STVInt
 NBasis=   134 RedAO= T EigKep=  7.16D-05  NBF=   134
 NBsUse=   134 1.00D-06 EigRej= -1.00D+00 NBFU=   134
 Precomputing XC quadrature grid using
 IXCGrd= 4 IRadAn=           5 IRanWt=          -1 IRanGd=           0 AccXCQ= 0.00D+00.
 Generated NRdTot=       0 NPtTot=           0 NUsed=           0 NTot=          32
 NSgBfM=   134   134   134   134   134 MxSgAt=    16 MxSgA2=    16.
 Leave Link  302 at Thu Mar 14 22:23:17 2024, MaxMem=  6442450944 cpu:               5.6 elap:               0.2
 (Enter /gpfs/software/gaussian/g16/l303.exe)
 DipDrv:  MaxL=1.
 Leave Link  303 at Thu Mar 14 22:23:17 2024, MaxMem=  6442450944 cpu:               1.8 elap:               0.1
 (Enter /gpfs/software/gaussian/g16/l401.exe)
 Initial guess from the checkpoint file:  "Optimization.chk"
 B after Tr=    -0.000000    0.000000    0.000000
         Rot=    0.999999    0.001447   -0.000471    0.000101 Ang=   0.17 deg.
 Guess basis will be translated and rotated to current coordinates.
 JPrj=2 DoOrth=T DoCkMO=T.
 Generating alternative initial guess.
 ExpMin= 4.38D-02 ExpMax= 5.48D+03 ExpMxC= 8.25D+02 IAcc=3 IRadAn=         5 AccDes= 0.00D+00
 Harris functional with IExCor=  402 and IRadAn=       5 diagonalized for initial guess.
 HarFok:  IExCor=  402 AccDes= 0.00D+00 IRadAn=         5 IDoV= 1 UseB2=F ITyADJ=14
 ICtDFT=  3500011 ScaDFX=  1.000000  1.000000  1.000000  1.000000
 FoFCou: FMM=F IPFlag=           0 FMFlag=      100000 FMFlg1=           0
         NFxFlg=           0 DoJE=T BraDBF=F KetDBF=T FulRan=T
         wScrn=  0.000000 ICntrl=       500 IOpCl=  0 I1Cent=   200000004 NGrid=           0
         NMat0=    1 NMatS0=      1 NMatT0=    0 NMatD0=    1 NMtDS0=    0 NMtDT0=    0
 Petite list used in FoFCou.
 Harris En= -308.807802494401    
 Leave Link  401 at Thu Mar 14 22:23:18 2024, MaxMem=  6442450944 cpu:              12.8 elap:               0.5
 (Enter /gpfs/software/gaussian/g16/l502.exe)
 Integral symmetry usage will be decided dynamically.
 Closed shell SCF:
 Using DIIS extrapolation, IDIIS=  1040.
 NGot=  6442450944 LenX=  6442409262 LenY=  6442390865
 Requested convergence on RMS density matrix=1.00D-08 within 128 cycles.
 Requested convergence on MAX density matrix=1.00D-06.
 Requested convergence on             energy=1.00D-06.
 No special actions if energy rises.
 Fock matrices will be formed incrementally for  20 cycles.

 Cycle   1  Pass 1  IDiag  1:
 FoFJK:  IHMeth= 1 ICntrl=       0 DoSepK=F KAlg= 0 I1Cent=           0 FoldK=F
 IRaf= 950000000 NMat=       1 IRICut=       1 DoRegI=T DoRafI=F ISym2E= 0 IDoP0=0 IntGTp=1.
 FoFCou: FMM=F IPFlag=           0 FMFlag=      100000 FMFlg1=           0
         NFxFlg=           0 DoJE=F BraDBF=F KetDBF=F FulRan=T
         wScrn=  0.000000 ICntrl=         0 IOpCl=  0 I1Cent=           0 NGrid=           0
         NMat0=    1 NMatS0=      1 NMatT0=    0 NMatD0=    1 NMtDS0=    0 NMtDT0=    0
 Symmetry not used in FoFCou.
 E= -308.791830457354    
 DIIS: error= 2.50D-03 at cycle   1 NSaved=   1.
 NSaved= 1 IEnMin= 1 EnMin= -308.791830457354     IErMin= 1 ErrMin= 2.50D-03
 ErrMax= 2.50D-03  0.00D+00 EMaxC= 1.00D-01 BMatC= 1.83D-03 BMatP= 1.83D-03
 IDIUse=3 WtCom= 9.75D-01 WtEn= 2.50D-02
 Coeff-Com:  0.100D+01
 Coeff-En:   0.100D+01
 Coeff:      0.100D+01
 Gap=     0.661 Goal=   None    Shift=    0.000
 GapD=    0.661 DampG=2.000 DampE=1.000 DampFc=2.0000 IDamp=-1.
 RMSDP=1.40D-03 MaxDP=3.60D-02              OVMax= 1.86D-02

 Cycle   2  Pass 1  IDiag  1:
 RMSU=  1.39D-03    CP:  9.93D-01
 E= -308.794839350180     Delta-E=       -0.003008892826 Rises=F Damp=F
 DIIS: error= 5.48D-04 at cycle   2 NSaved=   2.
 NSaved= 2 IEnMin= 2 EnMin= -308.794839350180     IErMin= 2 ErrMin= 5.48D-04
 ErrMax= 5.48D-04  0.00D+00 EMaxC= 1.00D-01 BMatC= 9.19D-05 BMatP= 1.83D-03
 IDIUse=3 WtCom= 9.95D-01 WtEn= 5.48D-03
 Coeff-Com:  0.521D-01 0.948D+00
 Coeff-En:   0.000D+00 0.100D+01
 Coeff:      0.519D-01 0.948D+00
 Gap=     0.261 Goal=   None    Shift=    0.000
 RMSDP=2.14D-04 MaxDP=4.63D-03 DE=-3.01D-03 OVMax= 3.85D-03

 Cycle   3  Pass 1  IDiag  1:
 RMSU=  1.87D-04    CP:  9.94D-01  9.28D-01
 E= -308.794859498432     Delta-E=       -0.000020148252 Rises=F Damp=F
 DIIS: error= 5.84D-04 at cycle   3 NSaved=   3.
 NSaved= 3 IEnMin= 3 EnMin= -308.794859498432     IErMin= 2 ErrMin= 5.48D-04
 ErrMax= 5.84D-04  0.00D+00 EMaxC= 1.00D-01 BMatC= 9.13D-05 BMatP= 9.19D-05
 IDIUse=3 WtCom= 9.94D-01 WtEn= 5.84D-03
 Coeff-Com: -0.188D-01 0.503D+00 0.516D+00
 Coeff-En:   0.000D+00 0.440D+00 0.560D+00
 Coeff:     -0.187D-01 0.503D+00 0.516D+00
 Gap=     0.262 Goal=   None    Shift=    0.000
 RMSDP=9.84D-05 MaxDP=1.75D-03 DE=-2.01D-05 OVMax= 2.24D-03

 Cycle   4  Pass 1  IDiag  1:
 RMSU=  3.99D-05    CP:  9.93D-01  9.72D-01  6.51D-01
 E= -308.794941313197     Delta-E=       -0.000081814766 Rises=F Damp=F
 DIIS: error= 1.31D-04 at cycle   4 NSaved=   4.
 NSaved= 4 IEnMin= 4 EnMin= -308.794941313197     IErMin= 4 ErrMin= 1.31D-04
 ErrMax= 1.31D-04  0.00D+00 EMaxC= 1.00D-01 BMatC= 3.93D-06 BMatP= 9.13D-05
 IDIUse=3 WtCom= 9.99D-01 WtEn= 1.31D-03
 Coeff-Com: -0.135D-01 0.175D+00 0.241D+00 0.597D+00
 Coeff-En:   0.000D+00 0.000D+00 0.000D+00 0.100D+01
 Coeff:     -0.135D-01 0.175D+00 0.240D+00 0.598D+00
 Gap=     0.262 Goal=   None    Shift=    0.000
 RMSDP=2.21D-05 MaxDP=4.61D-04 DE=-8.18D-05 OVMax= 4.82D-04

 Cycle   5  Pass 1  IDiag  1:
 RMSU=  1.48D-05    CP:  9.93D-01  9.80D-01  6.44D-01  7.05D-01
 E= -308.794943874537     Delta-E=       -0.000002561340 Rises=F Damp=F
 DIIS: error= 4.46D-05 at cycle   5 NSaved=   5.
 NSaved= 5 IEnMin= 5 EnMin= -308.794943874537     IErMin= 5 ErrMin= 4.46D-05
 ErrMax= 4.46D-05  0.00D+00 EMaxC= 1.00D-01 BMatC= 6.61D-07 BMatP= 3.93D-06
 IDIUse=1 WtCom= 1.00D+00 WtEn= 0.00D+00
 Coeff-Com: -0.568D-02 0.567D-01 0.919D-01 0.342D+00 0.515D+00
 Coeff:     -0.568D-02 0.567D-01 0.919D-01 0.342D+00 0.515D+00
 Gap=     0.262 Goal=   None    Shift=    0.000
 RMSDP=5.76D-06 MaxDP=1.64D-04 DE=-2.56D-06 OVMax= 1.68D-04

 Cycle   6  Pass 1  IDiag  1:
 RMSU=  4.42D-06    CP:  9.93D-01  9.80D-01  6.46D-01  7.50D-01  7.83D-01
 E= -308.794944362258     Delta-E=       -0.000000487721 Rises=F Damp=F
 DIIS: error= 1.06D-05 at cycle   6 NSaved=   6.
 NSaved= 6 IEnMin= 6 EnMin= -308.794944362258     IErMin= 6 ErrMin= 1.06D-05
 ErrMax= 1.06D-05  0.00D+00 EMaxC= 1.00D-01 BMatC= 2.73D-08 BMatP= 6.61D-07
 IDIUse=1 WtCom= 1.00D+00 WtEn= 0.00D+00
 Coeff-Com: -0.274D-03-0.347D-02 0.188D-02 0.527D-01 0.202D+00 0.747D+00
 Coeff:     -0.274D-03-0.347D-02 0.188D-02 0.527D-01 0.202D+00 0.747D+00
 Gap=     0.262 Goal=   None    Shift=    0.000
 RMSDP=1.94D-06 MaxDP=3.89D-05 DE=-4.88D-07 OVMax= 4.61D-05

 Cycle   7  Pass 1  IDiag  1:
 RMSU=  1.06D-06    CP:  9.93D-01  9.79D-01  6.50D-01  7.63D-01  8.22D-01
                    CP:  7.83D-01
 E= -308.794944384279     Delta-E=       -0.000000022021 Rises=F Damp=F
 DIIS: error= 2.99D-06 at cycle   7 NSaved=   7.
 NSaved= 7 IEnMin= 7 EnMin= -308.794944384279     IErMin= 7 ErrMin= 2.99D-06
 ErrMax= 2.99D-06  0.00D+00 EMaxC= 1.00D-01 BMatC= 2.76D-09 BMatP= 2.73D-08
 IDIUse=1 WtCom= 1.00D+00 WtEn= 0.00D+00
 Coeff-Com:  0.982D-04-0.391D-02-0.250D-02 0.131D-01 0.803D-01 0.382D+00
 Coeff-Com:  0.531D+00
 Coeff:      0.982D-04-0.391D-02-0.250D-02 0.131D-01 0.803D-01 0.382D+00
 Coeff:      0.531D+00
 Gap=     0.262 Goal=   None    Shift=    0.000
 RMSDP=4.91D-07 MaxDP=1.07D-05 DE=-2.20D-08 OVMax= 1.17D-05

 Cycle   8  Pass 1  IDiag  1:
 RMSU=  3.74D-07    CP:  9.93D-01  9.79D-01  6.50D-01  7.65D-01  8.20D-01
                    CP:  8.05D-01  7.41D-01
 E= -308.794944386491     Delta-E=       -0.000000002211 Rises=F Damp=F
 DIIS: error= 1.05D-06 at cycle   8 NSaved=   8.
 NSaved= 8 IEnMin= 8 EnMin= -308.794944386491     IErMin= 8 ErrMin= 1.05D-06
 ErrMax= 1.05D-06  0.00D+00 EMaxC= 1.00D-01 BMatC= 2.98D-10 BMatP= 2.76D-09
 IDIUse=1 WtCom= 1.00D+00 WtEn= 0.00D+00
 Coeff-Com:  0.905D-04-0.145D-02-0.153D-02-0.195D-02 0.830D-02 0.757D-01
 Coeff-Com:  0.270D+00 0.651D+00
 Coeff:      0.905D-04-0.145D-02-0.153D-02-0.195D-02 0.830D-02 0.757D-01
 Coeff:      0.270D+00 0.651D+00
 Gap=     0.262 Goal=   None    Shift=    0.000
 RMSDP=1.32D-07 MaxDP=3.90D-06 DE=-2.21D-09 OVMax= 4.03D-06

 Cycle   9  Pass 1  IDiag  1:
 RMSU=  1.03D-07    CP:  9.93D-01  9.79D-01  6.50D-01  7.65D-01  8.20D-01
                    CP:  8.15D-01  7.84D-01  8.88D-01
 E= -308.794944386707     Delta-E=       -0.000000000216 Rises=F Damp=F
 DIIS: error= 3.02D-07 at cycle   9 NSaved=   9.
 NSaved= 9 IEnMin= 9 EnMin= -308.794944386707     IErMin= 9 ErrMin= 3.02D-07
 ErrMax= 3.02D-07  0.00D+00 EMaxC= 1.00D-01 BMatC= 2.87D-11 BMatP= 2.98D-10
 IDIUse=1 WtCom= 1.00D+00 WtEn= 0.00D+00
 Coeff-Com:  0.392D-04-0.498D-03-0.614D-03-0.200D-02-0.108D-02 0.123D-01
 Coeff-Com:  0.106D+00 0.335D+00 0.551D+00
 Coeff:      0.392D-04-0.498D-03-0.614D-03-0.200D-02-0.108D-02 0.123D-01
 Coeff:      0.106D+00 0.335D+00 0.551D+00
 Gap=     0.262 Goal=   None    Shift=    0.000
 RMSDP=4.18D-08 MaxDP=9.29D-07 DE=-2.16D-10 OVMax= 1.04D-06

 Cycle  10  Pass 1  IDiag  1:
 RMSU=  3.16D-08    CP:  9.93D-01  9.79D-01  6.50D-01  7.65D-01  8.21D-01
                    CP:  8.15D-01  7.98D-01  9.06D-01  8.34D-01
 E= -308.794944386730     Delta-E=       -0.000000000023 Rises=F Damp=F
 DIIS: error= 6.87D-08 at cycle  10 NSaved=  10.
 NSaved=10 IEnMin=10 EnMin= -308.794944386730     IErMin=10 ErrMin= 6.87D-08
 ErrMax= 6.87D-08  0.00D+00 EMaxC= 1.00D-01 BMatC= 1.70D-12 BMatP= 2.87D-11
 IDIUse=1 WtCom= 1.00D+00 WtEn= 0.00D+00
 Coeff-Com:  0.447D-05-0.238D-04-0.532D-04-0.605D-03-0.131D-02-0.456D-02
 Coeff-Com:  0.114D-01 0.556D-01 0.229D+00 0.710D+00
 Coeff:      0.447D-05-0.238D-04-0.532D-04-0.605D-03-0.131D-02-0.456D-02
 Coeff:      0.114D-01 0.556D-01 0.229D+00 0.710D+00
 Gap=     0.262 Goal=   None    Shift=    0.000
 RMSDP=1.63D-08 MaxDP=2.55D-07 DE=-2.32D-11 OVMax= 3.65D-07

 Cycle  11  Pass 1  IDiag  1:
 RMSU=  1.04D-08    CP:  9.93D-01  9.79D-01  6.50D-01  7.65D-01  8.21D-01
                    CP:  8.15D-01  8.03D-01  9.15D-01  8.67D-01  8.27D-01
 E= -308.794944386732     Delta-E=       -0.000000000002 Rises=F Damp=F
 DIIS: error= 2.39D-08 at cycle  11 NSaved=  11.
 NSaved=11 IEnMin=11 EnMin= -308.794944386732     IErMin=11 ErrMin= 2.39D-08
 ErrMax= 2.39D-08  0.00D+00 EMaxC= 1.00D-01 BMatC= 5.26D-14 BMatP= 1.70D-12
 IDIUse=1 WtCom= 1.00D+00 WtEn= 0.00D+00
 Coeff-Com: -0.363D-06 0.171D-04 0.137D-04-0.104D-03-0.393D-03-0.222D-02
 Coeff-Com: -0.147D-02 0.356D-02 0.533D-01 0.246D+00 0.701D+00
 Coeff:     -0.363D-06 0.171D-04 0.137D-04-0.104D-03-0.393D-03-0.222D-02
 Coeff:     -0.147D-02 0.356D-02 0.533D-01 0.246D+00 0.701D+00
 Gap=     0.262 Goal=   None    Shift=    0.000
 RMSDP=3.11D-09 MaxDP=6.52D-08 DE=-2.05D-12 OVMax= 6.88D-08

 SCF Done:  E(RB3LYP) =  -308.794944387     A.U. after   11 cycles
            NFock= 11  Conv=0.31D-08     -V/T= 2.0086
 KE= 3.061519046941D+02 PE=-1.225212953901D+03 EE= 3.579055919950D+02
 Leave Link  502 at Thu Mar 14 22:23:21 2024, MaxMem=  6442450944 cpu:              94.9 elap:               3.4
 (Enter /gpfs/software/gaussian/g16/l701.exe)
 ... and contract with generalized density number  0.
 Compute integral first derivatives.
 Leave Link  701 at Thu Mar 14 22:23:22 2024, MaxMem=  6442450944 cpu:               5.4 elap:               0.2
 (Enter /gpfs/software/gaussian/g16/l702.exe)
 L702 exits ... SP integral derivatives will be done elsewhere.
 Leave Link  702 at Thu Mar 14 22:23:22 2024, MaxMem=  6442450944 cpu:               1.1 elap:               0.1
 (Enter /gpfs/software/gaussian/g16/l703.exe)
 Integral derivatives from FoFJK, PRISM(SPDF).
 Compute integral first derivatives, UseDBF=F ICtDFT=           0.
 Calling FoFJK, ICntrl=      2127 FMM=F ISym2X=0 I1Cent= 0 IOpClX= 0 NMat=1 NMatS=1 NMatT=0.
 FoFJK:  IHMeth= 1 ICntrl=    2127 DoSepK=F KAlg= 0 I1Cent=           0 FoldK=F
 IRaf=         0 NMat=       1 IRICut=       1 DoRegI=T DoRafI=F ISym2E= 0 IDoP0=0 IntGTp=1.
 FoFCou: FMM=F IPFlag=           0 FMFlag=      100000 FMFlg1=         800
         NFxFlg=           0 DoJE=F BraDBF=F KetDBF=F FulRan=T
         wScrn=  0.000000 ICntrl=      2127 IOpCl=  0 I1Cent=           0 NGrid=           0
         NMat0=    1 NMatS0=      1 NMatT0=    0 NMatD0=    1 NMtDS0=    0 NMtDT0=    0
 Symmetry not used in FoFCou.
 Leave Link  703 at Thu Mar 14 22:23:23 2024, MaxMem=  6442450944 cpu:              23.7 elap:               0.9
 (Enter /gpfs/software/gaussian/g16/l716.exe)
 Dipole        =-9.12205316D-02 6.50204486D-02-1.75713536D-01
 ***** Axes restored to original set *****
 -------------------------------------------------------------------
 Center     Atomic                   Forces (Hartrees/Bohr)
 Number     Number              X              Y              Z
 -------------------------------------------------------------------
      1        8           0.018679130    0.007334874   -0.021486212
      2        6           0.058700675    0.013282222   -0.044221626
      3        6          -0.005679487    0.003931607   -0.006469554
      4        6           0.004463737   -0.000570321    0.005753482
      5        8           0.002541898   -0.003355691    0.000852448
      6        6          -0.008126280   -0.011357254    0.004050303
      7        1          -0.047119221   -0.010658307    0.048523686
      8        1           0.023648096   -0.008242955   -0.022547798
      9        1           0.000351579    0.000837044    0.001801629
     10        1           0.001826361   -0.000830445    0.002994910
     11        1          -0.000550515   -0.000532523   -0.001542310
     12        1          -0.001249483    0.000344651   -0.001719879
     13        1          -0.003527508    0.013074996    0.007588315
     14        1          -0.003271523    0.004594772   -0.014265448
     15        1           0.011113835   -0.003220067    0.001362893
     16        1          -0.051801297   -0.004632603    0.039325162
 -------------------------------------------------------------------
 Cartesian Forces:  Max     0.058700675 RMS     0.019108719
 Leave Link  716 at Thu Mar 14 22:23:23 2024, MaxMem=  6442450944 cpu:               0.9 elap:               0.1
 (Enter /gpfs/software/gaussian/g16/l103.exe)

 GradGradGradGradGradGradGradGradGradGradGradGradGradGradGradGradGradGrad
 Berny optimization.
 Using GEDIIS/GDIIS optimizer.
 FormGI is forming the generalized inverse of G from B-inverse, IUseBI=4.
 Internal  Forces:  Max     0.060154121 RMS     0.015521667
 Search for a local minimum.
 Step number   2 out of a maximum of    5
 All quantities printed in internal units (Hartrees-Bohrs-Radians)
 RMS Force = .15522D-01 SwitMx=.10000D-02 MixMth= 1
 Mixed Optimization -- RFO/linear search
 Update second derivatives using D2CorX and points    1    2
 DE= -4.60D-02 DEPred=-4.90D-02 R= 9.37D-01
 TightC=F SS=  1.41D+00  RLast= 3.27D-01 DXNew= 5.0454D-01 9.8070D-01
 Trust test= 9.37D-01 RLast= 3.27D-01 DXMaxT set to 5.05D-01
 ITU=  1  0
 Use linear search instead of GDIIS.
 Linear search step of   0.601 exceeds DXMaxT=   0.505 but not scaled.
 Quartic linear search produced a step of  2.00000.
 Iteration  1 RMS(Cart)=  0.08769409 RMS(Int)=  0.02398641
 Iteration  2 RMS(Cart)=  0.02460681 RMS(Int)=  0.00731635
 Iteration  3 RMS(Cart)=  0.00125890 RMS(Int)=  0.00724379
 Iteration  4 RMS(Cart)=  0.00001316 RMS(Int)=  0.00724378
 Iteration  5 RMS(Cart)=  0.00000057 RMS(Int)=  0.00724378
 ITry= 1 IFail=0 DXMaxC= 4.93D-01 DCOld= 1.00D+10 DXMaxT= 5.05D-01 DXLimC= 3.00D+00 Rises=F
 Variable       Old X    -DE/DX   Delta X   Delta X   Delta X     New X
                                 (Linear)    (Quad)   (Total)
    R1        2.72373   0.02202   0.07771   0.00000   0.07771   2.80144
    R2        2.68600  -0.00200   0.00292   0.00000   0.00292   2.68892
    R3        2.04343   0.01468   0.04253   0.00000   0.04253   2.08595
    R4        2.05713   0.02565   0.07032   0.00000   0.07032   2.12745
    R5        2.03958   0.01133   0.03483   0.00000   0.03483   2.07441
    R6        2.88076  -0.00127  -0.00249   0.00000  -0.00249   2.87827
    R7        2.08467  -0.00154  -0.00468   0.00000  -0.00468   2.07999
    R8        2.07719   0.00353   0.00972   0.00000   0.00972   2.08691
    R9        2.68328  -0.00128  -0.00252   0.00000  -0.00252   2.68077
   R10        2.08580  -0.00109  -0.00242   0.00000  -0.00242   2.08338
   R11        2.07459   0.00208   0.00452   0.00000   0.00452   2.07911
   R12        2.67798   0.00173   0.00541   0.00000   0.00541   2.68339
   R13        2.03829   0.01532   0.03425   0.00000   0.03425   2.07255
   R14        2.03885   0.01513   0.03388   0.00000   0.03388   2.07273
   R15        2.03403   0.01125   0.02514   0.00000   0.02514   2.05917
    A1        1.98584   0.00485   0.03814   0.00000   0.03814   2.02398
    A2        1.66855   0.03510   0.19654   0.00000   0.20129   1.86984
    A3        2.00257  -0.04061  -0.18337   0.00000  -0.16304   1.83953
    A4        1.63350   0.02288   0.12438   0.00000   0.12679   1.76029
    A5        1.62016   0.01918   0.09825   0.00000   0.13332   1.75348
    A6        1.61828   0.01947   0.09545   0.00000   0.12647   1.74476
    A7        1.87737   0.00172   0.01117   0.00000   0.01116   1.88853
    A8        1.92426  -0.00003   0.00010   0.00000   0.00004   1.92430
    A9        1.93001  -0.00048  -0.00583   0.00000  -0.00582   1.92419
   A10        1.91554   0.00028   0.00091   0.00000   0.00087   1.91641
   A11        1.92100  -0.00101  -0.00382   0.00000  -0.00381   1.91719
   A12        1.89579  -0.00047  -0.00243   0.00000  -0.00243   1.89335
   A13        1.87407   0.00103   0.00457   0.00000   0.00457   1.87864
   A14        1.91510   0.00008   0.00003   0.00000   0.00002   1.91512
   A15        1.92136  -0.00068  -0.00310   0.00000  -0.00310   1.91826
   A16        1.92479   0.00017   0.00116   0.00000   0.00115   1.92594
   A17        1.93258  -0.00018  -0.00069   0.00000  -0.00069   1.93189
   A18        1.89604  -0.00041  -0.00192   0.00000  -0.00193   1.89411
   A19        1.97377  -0.00136  -0.00391   0.00000  -0.00391   1.96986
   A20        1.91844   0.00414   0.01536   0.00000   0.01527   1.93370
   A21        1.91826   0.00422   0.01567   0.00000   0.01558   1.93383
   A22        1.89865  -0.00628  -0.02403   0.00000  -0.02396   1.87469
   A23        1.90859  -0.00180  -0.00449   0.00000  -0.00472   1.90387
   A24        1.91023  -0.00017  -0.00134   0.00000  -0.00128   1.90895
   A25        1.90960  -0.00014  -0.00124   0.00000  -0.00118   1.90842
   A26        3.30205   0.05798   0.32092   0.00000   0.32807   3.63013
   A27        3.32292   0.06015   0.36266   0.00000   0.34249   3.66541
    D1        0.87185   0.02915   0.17904   0.00000   0.16769   1.03953
    D2       -0.79889  -0.00287  -0.02088   0.00000  -0.01834  -0.81723
    D3       -2.45108  -0.03101  -0.18362   0.00000  -0.17481  -2.62588
    D4        3.13911   0.00123   0.00808   0.00000   0.00810  -3.13597
    D5        1.05090  -0.00013   0.00021   0.00000   0.00020   1.05110
    D6       -1.04590   0.00078   0.00695   0.00000   0.00693  -1.03897
    D7        3.14043  -0.00018  -0.00232   0.00000  -0.00233   3.13810
    D8        1.04826  -0.00105  -0.00644   0.00000  -0.00645   1.04180
    D9       -1.03757  -0.00016  -0.00216   0.00000  -0.00218  -1.03976
   D10       -1.04900   0.00097   0.00494   0.00000   0.00496  -1.04404
   D11       -3.14118   0.00011   0.00083   0.00000   0.00084  -3.14034
   D12        1.05618   0.00099   0.00510   0.00000   0.00511   1.06128
   D13        1.03657  -0.00005   0.00015   0.00000   0.00016   1.03673
   D14       -1.05561  -0.00092  -0.00397   0.00000  -0.00396  -1.05957
   D15       -3.14144  -0.00004   0.00031   0.00000   0.00031  -3.14113
   D16       -3.13863  -0.00037  -0.00159   0.00000  -0.00159  -3.14022
   D17       -1.05263   0.00044   0.00185   0.00000   0.00186  -1.05078
   D18        1.04649  -0.00008  -0.00025   0.00000  -0.00025   1.04624
   D19        1.05068   0.00155   0.00697   0.00000   0.00720   1.05788
   D20       -1.05080  -0.00151  -0.00681   0.00000  -0.00705  -1.05784
   D21       -3.14121  -0.00003  -0.00008   0.00000  -0.00008  -3.14129
         Item               Value     Threshold  Converged?
 Maximum Force            0.060154     0.000450     NO 
 RMS     Force            0.015522     0.000300     NO 
 Maximum Displacement     0.493171     0.001800     NO 
 RMS     Displacement     0.106629     0.001200     NO 
 Predicted change in Energy=-5.437126D-02
 Lowest energy point so far.  Saving SCF results.
 GradGradGradGradGradGradGradGradGradGradGradGradGradGradGradGradGradGrad

 Leave Link  103 at Thu Mar 14 22:23:23 2024, MaxMem=  6442450944 cpu:               1.1 elap:               0.1
 (Enter /gpfs/software/gaussian/g16/l202.exe)
                          Input orientation:                          
 ---------------------------------------------------------------------
 Center     Atomic      Atomic             Coordinates (Angstroms)
 Number     Number       Type             X           Y           Z
[...]
 ! R14   R(6,14)                 1.1016         -DE/DX =    0.0001              !
 ! R15   R(6,15)                 1.093          -DE/DX =    0.0                 !
 ! A1    A(2,1,3)              113.1224         -DE/DX =    0.0015              !
 ! A2    A(1,2,7)              111.0796         -DE/DX =   -0.0003              !
 ! A3    A(1,2,8)              111.3781         -DE/DX =    0.0015              !
 ! A4    A(1,2,16)             106.798          -DE/DX =   -0.0007              !
 ! A5    A(7,2,8)              108.9224         -DE/DX =   -0.0011              !
 ! A6    A(8,2,16)             109.232          -DE/DX =   -0.0006              !
 ! A7    A(1,3,4)              107.709          -DE/DX =    0.0002              !
 ! A8    A(1,3,9)              110.5842         -DE/DX =   -0.0002              !
 ! A9    A(1,3,10)             110.7825         -DE/DX =   -0.0004              !
 ! A10   A(4,3,9)              109.9397         -DE/DX =    0.0001              !
 ! A11   A(4,3,10)             109.8443         -DE/DX =    0.0004              !
 ! A12   A(9,3,10)             107.9856         -DE/DX =    0.0                 !
 ! A13   A(3,4,5)              107.6592         -DE/DX =   -0.0006              !
 ! A14   A(3,4,11)             109.8891         -DE/DX =    0.0001              !
 ! A15   A(3,4,12)             109.8835         -DE/DX =    0.0001              !
 ! A16   A(5,4,11)             110.7077         -DE/DX =    0.0002              !
 ! A17   A(5,4,12)             110.7195         -DE/DX =    0.0002              !
 ! A18   A(11,4,12)            107.9864         -DE/DX =   -0.0001              !
 ! A19   A(4,5,6)              112.9979         -DE/DX =   -0.0001              !
 ! A20   A(5,6,13)             111.3055         -DE/DX =   -0.0001              !
 ! A21   A(5,6,14)             111.3036         -DE/DX =   -0.0001              !
 ! A22   A(5,6,15)             107.0435         -DE/DX =    0.0003              !
 ! A23   A(13,6,14)            108.7477         -DE/DX =    0.0                 !
 ! A24   A(13,6,15)            109.196          -DE/DX =    0.0                 !
 ! A25   A(14,6,15)            109.1972         -DE/DX =    0.0                 !
 ! A26   L(7,2,16,1,-1)        217.8776         -DE/DX =   -0.001               !
 ! A27   L(7,2,16,1,-2)        240.7962         -DE/DX =   -0.0008              !
 ! D1    D(3,1,2,7)             65.638          -DE/DX =   -0.0013              !
 ! D2    D(3,1,2,8)            -55.9705         -DE/DX =   -0.0008              !
 ! D3    D(3,1,2,16)          -175.1581         -DE/DX =   -0.0005              !
 ! D4    D(2,1,3,4)           -179.829          -DE/DX =   -0.0001              !
 ! D5    D(2,1,3,9)             60.0167         -DE/DX =   -0.0002              !
 ! D6    D(2,1,3,10)           -59.6743         -DE/DX =    0.0002              !
 ! D7    D(1,3,4,5)           -179.8337         -DE/DX =    0.0                 !
 ! D8    D(1,3,4,11)            59.5158         -DE/DX =    0.0                 !
 ! D9    D(1,3,4,12)           -59.1722         -DE/DX =    0.0                 !
 ! D10   D(9,3,4,5)            -59.2732         -DE/DX =   -0.0001              !
 ! D11   D(9,3,4,11)          -179.9236         -DE/DX =   -0.0001              !
 ! D12   D(9,3,4,12)            61.3883         -DE/DX =   -0.0002              !
 ! D13   D(10,3,4,5)            59.4208         -DE/DX =    0.0001              !
 ! D14   D(10,3,4,11)          -61.2297         -DE/DX =    0.0002              !
 ! D15   D(10,3,4,12)         -179.9177         -DE/DX =    0.0001              !
 ! D16   D(3,4,5,6)            179.9675         -DE/DX =    0.0                 !
 ! D17   D(11,4,5,6)           -59.8982         -DE/DX =   -0.0001              !
 ! D18   D(12,4,5,6)            59.8332         -DE/DX =    0.0001              !
 ! D19   D(4,5,6,13)            60.744          -DE/DX =   -0.0001              !
 ! D20   D(4,5,6,14)           -60.7468         -DE/DX =    0.0001              !
 ! D21   D(4,5,6,15)           179.9984         -DE/DX =    0.0                 !
 --------------------------------------------------------------------------------
 Lowest energy point so far.  Saving SCF results.
 Largest change from initial coordinates is atom   16       0.649 Angstoms.
 GradGradGradGradGradGradGradGradGradGradGradGradGradGradGradGradGradGrad

 Leave Link  103 at Thu Mar 14 22:23:40 2024, MaxMem=  6442450944 cpu:               1.4 elap:               0.1
 (Enter /gpfs/software/gaussian/g16/l202.exe)
                          Input orientation:                          
 ---------------------------------------------------------------------
 Center     Atomic      Atomic             Coordinates (Angstroms)
 Number     Number       Type             X           Y           Z
 ---------------------------------------------------------------------
      1          8           0       -1.617377   -0.762088    0.226775
      2          6           0       -2.110634   -2.008437    0.697774
      3          6           0       -0.201591   -0.687404    0.259071
      4          6           0        0.199615    0.687250   -0.259084
      5          8           0        1.615603    0.764826   -0.231652
      6          6           0        2.111152    2.007585   -0.696290
      7          1           0       -1.957448   -2.116299    1.781034
      8          1           0       -1.619268   -2.846099    0.175084
      9          1           0        0.245073   -1.470550   -0.373855
     10          1           0        0.178616   -0.821959    1.284378
     11          1           0       -0.245476    1.470715    0.374869
     12          1           0       -0.177570    0.824870   -1.285136
     13          1           0        1.749258    2.841561   -0.074410
     14          1           0        1.817337    2.191050   -1.741868
     15          1           0        3.201202    1.958869   -0.632818
     16          1           0       -3.183491   -2.031888    0.492128
 ---------------------------------------------------------------------
                    Distance matrix (angstroms):
                    1          2          3          4          5
     1  O    0.000000
     2  C    1.420749   0.000000
     3  C    1.418123   2.362633   0.000000
     4  C    2.374469   3.676895   1.522868   0.000000
     5  O    3.604689   4.737052   2.377389   1.418377   0.000000
     6  C    4.735512   5.991271   3.677562   2.363982   1.416301
     7  H    2.089320   1.099342   2.727847   4.083490   5.011835
     8  H    2.084653   1.102870   2.583956   3.997674   4.865040
     9  H    2.081200   2.643306   1.101554   2.161329   2.625925
    10  H    2.085114   2.644334   1.101778   2.158802   2.623198
    11  H    2.624777   3.960755   2.161669   1.101734   2.080808
    12  H    2.622472   3.961856   2.161510   1.101812   2.080601
    13  H    4.940773   6.246400   4.046062   2.660179   2.086964
    14  H    4.939012   6.246319   4.045408   2.660279   2.086998
    15  H    5.600108   6.762070   4.401957   3.281191   2.025042
    16  H    2.033597   1.092640   3.279281   4.404934   5.601498
                    6          7          8          9         10
     6  C    0.000000
     7  H    6.300561   0.000000
     8  H    6.183331   1.796121   0.000000
     9  H    3.960258   3.148276   2.381016   0.000000
    10  H    3.957785   2.546518   2.925759   1.781804   0.000000
    11  H    2.643730   4.216020   4.534546   3.074453   2.502681
    12  H    2.642688   4.606500   4.205562   2.505596   3.072672
    13  H    1.101462   6.462408   6.615036   4.576739   4.211246
    14  H    1.101462   6.724069   6.392013   4.213168   4.574034
    15  H    1.092982   7.003239   6.854003   4.535049   4.532623
    16  H    6.764831   1.780894   1.791717   3.580514   3.659966
                   11         12         13         14         15
    11  H    0.000000
    12  H    1.782510   0.000000
    13  H    2.461713   3.040652   0.000000
    14  H    3.042146   2.460631   1.791149   0.000000
    15  H    3.623991   3.623199   1.788605   1.788570   0.000000
    16  H    4.573173   4.511685   6.957262   6.916085   7.612881
                   16
    16  H    0.000000
 Stoichiometry    C4H10O2
 Framework group  C1[X(C4H10O2)]
 Deg. of freedom    42
 Full point group                 C1      NOp   1
 RotChk:  IX=0 Diff= 5.88D-16
 Largest Abelian subgroup         C1      NOp   1
 Largest concise Abelian subgroup C1      NOp   1
                         Standard orientation:                         
 ---------------------------------------------------------------------
 Center     Atomic      Atomic             Coordinates (Angstroms)
 Number     Number       Type             X           Y           Z
 ---------------------------------------------------------------------
      1          8           0        1.724940   -0.522024   -0.002758
      2          6           0        2.993771    0.117174    0.001859
      3          6           0        0.648237    0.400893   -0.000391
      4          6           0       -0.646436   -0.400946    0.001289
      5          8           0       -1.726229    0.518750    0.000170
      6          6           0       -2.993014   -0.114625    0.000081
      7          1           0        3.191019    0.608990    0.965064
      8          1           0        3.058841    0.862859   -0.808106
      9          1           0        0.686452    1.047437   -0.891425
     10          1           0        0.683799    1.048338    0.890377
     11          1           0       -0.685781   -1.046335    0.893333
     12          1           0       -0.686351   -1.048611   -0.889176
     13          1           0       -3.128465   -0.740853    0.896021
     14          1           0       -3.127802   -0.742042   -0.895128
     15          1           0       -3.744952    0.678596   -0.000759
     16          1           0        3.748207   -0.657166   -0.156531
 ---------------------------------------------------------------------
 Rotational constants (GHZ):          18.9242774           1.2744796           1.2315373
 Leave Link  202 at Thu Mar 14 22:23:40 2024, MaxMem=  6442450944 cpu:               0.7 elap:               0.1
 (Enter /gpfs/software/gaussian/g16/l601.exe)
 Copying SCF densities to generalized density rwf, IOpCl= 0 IROHF=0.

 **********************************************************************

            Population analysis using the SCF Density.

 **********************************************************************

 Orbital symmetries:
       Occupied  (A) (A) (A) (A) (A) (A) (A) (A) (A) (A) (A) (A)
                 (A) (A) (A) (A) (A) (A) (A) (A) (A) (A) (A) (A)
                 (A)
       Virtual   (A) (A) (A) (A) (A) (A) (A) (A) (A) (A) (A) (A)
                 (A) (A) (A) (A) (A) (A) (A) (A) (A) (A) (A) (A)
                 (A) (A) (A) (A) (A) (A) (A) (A) (A) (A) (A) (A)
                 (A) (A) (A) (A) (A) (A) (A) (A) (A) (A) (A) (A)
                 (A) (A) (A) (A) (A) (A) (A) (A) (A) (A) (A) (A)
                 (A) (A) (A) (A) (A) (A) (A) (A) (A) (A) (A) (A)
                 (A) (A) (A) (A) (A) (A) (A) (A) (A) (A) (A) (A)
                 (A) (A) (A) (A) (A) (A) (A) (A) (A) (A) (A) (A)
                 (A) (A) (A) (A) (A) (A) (A) (A) (A) (A) (A) (A)
                 (A)
 The electronic state is 1-A.
 Alpha  occ. eigenvalues --  -19.16205 -19.16186 -10.23586 -10.23560 -10.23405
 Alpha  occ. eigenvalues --  -10.23372  -1.04472  -1.03559  -0.76949  -0.70030
 Alpha  occ. eigenvalues --   -0.65182  -0.61010  -0.50502  -0.50116  -0.47951
 Alpha  occ. eigenvalues --   -0.46226  -0.45844  -0.43372  -0.42126  -0.37106
 Alpha  occ. eigenvalues --   -0.36659  -0.33170  -0.32423  -0.26896  -0.26249
 Alpha virt. eigenvalues --    0.01356   0.01548   0.03252   0.03511   0.03670
 Alpha virt. eigenvalues --    0.03995   0.05479   0.05976   0.07941   0.08100
 Alpha virt. eigenvalues --    0.09592   0.09653   0.10423   0.12149   0.13807
 Alpha virt. eigenvalues --    0.14621   0.18543   0.19379   0.20289   0.20887
 Alpha virt. eigenvalues --    0.21303   0.22406   0.22574   0.22689   0.24266
 Alpha virt. eigenvalues --    0.24653   0.25589   0.26758   0.28000   0.28324
 Alpha virt. eigenvalues --    0.29852   0.30588   0.31087   0.32678   0.32796
 Alpha virt. eigenvalues --    0.38488   0.39549   0.40632   0.41490   0.60403
 Alpha virt. eigenvalues --    0.64433   0.64828   0.66311   0.67636   0.68642
 Alpha virt. eigenvalues --    0.69102   0.75066   0.76889   0.83438   0.84786
 Alpha virt. eigenvalues --    0.86624   0.87071   0.90827   0.94816   0.96497
 Alpha virt. eigenvalues --    0.99170   1.01156   1.02735   1.04081   1.08751
 Alpha virt. eigenvalues --    1.09299   1.20348   1.22836   1.23785   1.25952
 Alpha virt. eigenvalues --    1.27631   1.27828   1.37862   1.41694   1.44855
 Alpha virt. eigenvalues --    1.47452   1.49228   1.51102   1.51808   1.54283
 Alpha virt. eigenvalues --    1.61278   1.68749   1.81919   1.85308   1.91093
 Alpha virt. eigenvalues --    1.91561   2.00322   2.02731   2.06055   2.07893
 Alpha virt. eigenvalues --    2.11342   2.12189   2.16752   2.20043   2.20209
 Alpha virt. eigenvalues --    2.21854   2.26868   2.31349   2.33358   2.37655
 Alpha virt. eigenvalues --    2.49810   2.52837   2.65097   2.72266   2.77336
 Alpha virt. eigenvalues --    2.84442   3.00612   3.01392   4.17988   4.24536
 Alpha virt. eigenvalues --    4.32249   4.34118   4.34653   4.54338
          Condensed to atoms (all electrons):
               1          2          3          4          5          6
     1  O    8.383421   0.118984   0.132011  -0.026156   0.004046   0.004164
     2  C    0.118984   5.201947  -0.149664   0.009373   0.004021   0.000382
     3  C    0.132011  -0.149664   5.432544   0.123971  -0.025268   0.008501
     4  C   -0.026156   0.009373   0.123971   5.428462   0.132600  -0.150770
     5  O    0.004046   0.004021  -0.025268   0.132600   8.384580   0.119298
     6  C    0.004164   0.000382   0.008501  -0.150770   0.119298   5.202340
     7  H   -0.050528   0.391235  -0.012638   0.004109  -0.000000   0.000053
     8  H   -0.048076   0.393832  -0.019168   0.005104   0.000005   0.000135
     9  H   -0.054851  -0.011473   0.408807  -0.048540   0.002638  -0.000240
    10  H   -0.056639  -0.004288   0.409390  -0.052845   0.002613  -0.000391
    11  H    0.002675  -0.001068  -0.051512   0.411093  -0.056322  -0.007774
    12  H    0.002617   0.000278  -0.049820   0.407944  -0.056268  -0.007780
    13  H   -0.000003   0.000095   0.004513  -0.016253  -0.049390   0.392546
    14  H    0.000003   0.000089   0.004500  -0.016249  -0.049336   0.392526
    15  H    0.000009  -0.000107  -0.006396   0.016341  -0.055838   0.396804
    16  H   -0.054634   0.395975   0.015907  -0.006315   0.000008  -0.000104
               7          8          9         10         11         12
     1  O   -0.050528  -0.048076  -0.054851  -0.056639   0.002675   0.002617
     2  C    0.391235   0.393832  -0.011473  -0.004288  -0.001068   0.000278
     3  C   -0.012638  -0.019168   0.408807   0.409390  -0.051512  -0.049820
     4  C    0.004109   0.005104  -0.048540  -0.052845   0.411093   0.407944
     5  O   -0.000000   0.000005   0.002638   0.002613  -0.056322  -0.056268
     6  C    0.000053   0.000135  -0.000240  -0.000391  -0.007774  -0.007780
     7  H    0.556740  -0.047103  -0.001889   0.007771  -0.000006  -0.000002
     8  H   -0.047103   0.558456   0.010380  -0.002618   0.000000  -0.000018
     9  H   -0.001889   0.010380   0.565016  -0.052600   0.004457  -0.007268
    10  H    0.007771  -0.002618  -0.052600   0.566387  -0.007294   0.004506
    11  H   -0.000006   0.000000   0.004457  -0.007294   0.565515  -0.052287
    12  H   -0.000002  -0.000018  -0.007268   0.004506  -0.052287   0.565677
    13  H    0.000000  -0.000000  -0.000001  -0.000012   0.009253  -0.002260
    14  H   -0.000000   0.000000  -0.000013  -0.000001  -0.002258   0.009265
    15  H    0.000000   0.000000   0.000006   0.000006  -0.000172  -0.000171
    16  H   -0.032080  -0.028249  -0.000066  -0.000239   0.000005   0.000007
              13         14         15         16
     1  O   -0.000003   0.000003   0.000009  -0.054634
     2  C    0.000095   0.000089  -0.000107   0.395975
     3  C    0.004513   0.004500  -0.006396   0.015907
     4  C   -0.016253  -0.016249   0.016341  -0.006315
     5  O   -0.049390  -0.049336  -0.055838   0.000008
     6  C    0.392546   0.392526   0.396804  -0.000104
     7  H    0.000000  -0.000000   0.000000  -0.032080
     8  H   -0.000000   0.000000   0.000000  -0.028249
     9  H   -0.000001  -0.000013   0.000006  -0.000066
    10  H   -0.000012  -0.000001   0.000006  -0.000239
    11  H    0.009253  -0.002258  -0.000172   0.000005
    12  H   -0.002260   0.009265  -0.000171   0.000007
    13  H    0.559720  -0.048618  -0.029754   0.000000
    14  H   -0.048618   0.559672  -0.029760   0.000000
    15  H   -0.029754  -0.029760   0.511139   0.000000
    16  H    0.000000   0.000000   0.000000   0.511564
 Mulliken charges:
               1
     1  O   -0.357043
     2  C   -0.349610
     3  C   -0.225679
     4  C   -0.221871
     5  O   -0.357388
     6  C   -0.349691
     7  H    0.184338
     8  H    0.177319
     9  H    0.185638
    10  H    0.186255
    11  H    0.185695
    12  H    0.185579
    13  H    0.180165
    14  H    0.180179
    15  H    0.197892
    16  H    0.198221
 Sum of Mulliken charges =  -0.00000
 Mulliken charges with hydrogens summed into heavy atoms:
               1
     1  O   -0.357043
     2  C    0.210269
     3  C    0.146213
     4  C    0.149403
     5  O   -0.357388
     6  C    0.208546
 Electronic spatial extent (au):  <R**2>=            974.0644
 Charge=             -0.0000 electrons
 Dipole moment (field-independent basis, Debye):
    X=              0.0227    Y=              0.0143    Z=             -0.0043  Tot=              0.0271
 Quadrupole moment (field-independent basis, Debye-Ang):
   XX=            -31.5483   YY=            -41.0467   ZZ=            -38.8243
   XY=              4.2860   XZ=             -0.0289   YZ=             -0.0058
 Traceless Quadrupole moment (field-independent basis, Debye-Ang):
   XX=              5.5915   YY=             -3.9069   ZZ=             -1.6846
   XY=              4.2860   XZ=             -0.0289   YZ=             -0.0058
 Octapole moment (field-independent basis, Debye-Ang**2):
  XXX=              0.3998  YYY=              0.0652  ZZZ=              0.1798  XYY=             -0.0692
  XXY=              0.0727  XXZ=             -0.1719  XZZ=              0.0917  YZZ=             -0.0328
  YYZ=             -0.2029  XYZ=              0.0931
 Hexadecapole moment (field-independent basis, Debye-Ang**3):
 XXXX=          -1001.2119 YYYY=           -111.2834 ZZZZ=            -69.8763 XXXY=            -15.2747
 XXXZ=             -0.9086 YYYX=             -6.7244 YYYZ=             -0.1308 ZZZX=              0.6374
 ZZZY=              0.0353 XXYY=           -207.5558 XXZZ=           -201.4857 YYZZ=            -28.9714
 XXYZ=              0.6503 YYXZ=             -0.6402 ZZXY=              1.8656
 N-N= 2.515590964737D+02 E-N=-1.223557453649D+03  KE= 3.059719125330D+02
 No NMR shielding tensors so no spin-rotation constants.
 Leave Link  601 at Thu Mar 14 22:23:40 2024, MaxMem=  6442450944 cpu:               5.4 elap:               0.2
 (Enter /gpfs/software/gaussian/g16/l9999.exe)


 FIREWORKS ENDED
 AND SPECTATORS GONE AWAY....
 AH, HOW VAST AND DARK
                     SHIKI
 Error termination request processed by link 9999.
 Error termination via Lnk1e in /gpfs/software/gaussian/g16/l9999.exe at Thu Mar 14 22:23:40 2024.
 Job cpu time:       0 days  0 hours 12 minutes 40.6 seconds.
 Elapsed time:       0 days  0 hours  0 minutes 29.4 seconds.
 File lengths (MBytes):  RWF=    136 Int=      0 D2E=      0 Chk=     16 Scr=     16
