 Entering Gaussian System, Link 0=g16
 Initial command:
 /gpfs/software/gaussian/g16/l1.exe "/gpfs/scratch/ratwi/tests/Custodian/opt/grid/dme/Optimization/Gau-28937.inp" -scrdir="/gpfs/scratch/ratwi/tests/Custodian/opt/grid/dme/Optimization/"
 Entering Link 1 = /gpfs/software/gaussian/g16/l1.exe PID=     28938.
  
 Copyright (c) 1988-2019, Gaussian, Inc.  All Rights Reserved.
  
 This is part of the Gaussian(R) 16 program.  It is based on
 the Gaussian(R) 09 system (copyright 2009, Gaussian, Inc.),
 the Gaussian(R) 03 system (copyright 2003, Gaussian, Inc.),
 the Gaussian(R) 98 system (copyright 1998, Gaussian, Inc.),
 the Gaussian(R) 94 system (copyright 1995, Gaussian, Inc.),
 the Gaussian 92(TM) system (copyright 1992, Gaussian, Inc.),
 the Gaussian 90(TM) system (copyright 1990, Gaussian, Inc.),
 the Gaussian 88(TM) system (copyright 1988, Gaussian, Inc.),
 the Gaussian 86(TM) system (copyright 1986, Carnegie Mellon
 University), and the Gaussian 82(TM) system (copyright 1983,
 Carnegie Mellon University). Gaussian is a federally registered
 trademark of Gaussian, Inc.
  
 This software contains proprietary and confidential information,
 including trade secrets, belonging to Gaussian, Inc.
  
 This software is provided under written license and may be
 used, copied, transmitted, or stored only in accord with that
 written license.
  
 The following legend is applicable only to US Government
 contracts under FAR:
  
                    RESTRICTED RIGHTS LEGEND
  
 Use, reproduction and disclosure by the US Government is
 subject to restrictions as set forth in subparagraphs (a)
 and (c) of the Commercial Computer Software - Restricted
 Rights clause in FAR 52.227-19.
  
 Gaussian, Inc.
 340 Quinnipiac St., Bldg. 40, Wallingford CT 06492
  
  
 ---------------------------------------------------------------
 Warning -- This program may not be used in any manner that
 competes with the business of Gaussian, Inc. or will provide
 assistance to any competitor of Gaussian, Inc.  The licensee
 of this program is prohibited from giving any competitor of
 Gaussian, Inc. access to this program.  By using this program,
 the user acknowledges that Gaussian, Inc. is engaged in the
 business of creating and licensing software in the field of
 computational chemistry and represents and warrants to the
 licensee that it is not a competitor of Gaussian, Inc. and that
 it will not use this program in any manner prohibited above.
 ---------------------------------------------------------------
  

 Cite this work as:
 Gaussian 16, Revision C.01,
 M. J. Frisch, G. W. Trucks, H. B. Schlegel, G. E. Scuseria, 
 M. A. Robb, J. R. Cheeseman, G. Scalmani, V. Barone, 
 G. A. Petersson, H. Nakatsuji, X. Li, M. Caricato, A. V. Marenich, 
 J. Bloino, B. G. Janesko, R. Gomperts, B. Mennucci, H. P. Hratchian, 
 J. V. Ortiz, A. F. Izmaylov, J. L. Sonnenberg, D. Williams-Young, 
 F. Ding, F. Lipparini, F. Egidi, J. Goings, B. Peng, A. Petrone, 
 T. Henderson, D. Ranasinghe, V. G. Zakrzewski, J. Gao, N. Rega, 
 G. Zheng, W. Liang, M. Hada, M. Ehara, K. Toyota, R. Fukuda, 
 J. Hasegawa, M. Ishida, T. Nakajima, Y. Honda, O. Kitao, H. Nakai, 
 T. Vreven, K. Throssell, J. A. Montgomery, Jr., J. E. Peralta, 
 F. Ogliaro, M. J. Bearpark, J. J. Heyd, E. N. Brothers, K. N. Kudin, 
 V. N. Staroverov, T. A. Keith, R. Kobayashi, J. Normand, 
 K. Raghavachari, A. P. Rendell, J. C. Burant, S. S. Iyengar, 
 J. Tomasi, M. Cossi, J. M. Millam, M. Klene, C. Adamo, R. Cammi, 
 J. W. Ochterski, R. L. Martin, K. Morokuma, O. Farkas, 
 J. B. Foresman, and D. J. Fox, Gaussian, Inc., Wallingford CT, 2019.
 
 ******************************************
 Gaussian 16:  ES64L-G16RevC.01  3-Jul-2019
                18-Mar-2024 
 ******************************************
 %chk=Optimization.chk
 %mem=48GB
 %NProcShared=28
 Will use up to   28 processors via shared memory.
 -----------------------------------------------
 #P B3LYP/6-31+G* Opt=(MaxCycles=1) Int=fine SCF
 -----------------------------------------------
 1/6=1,18=20,19=15,26=3,38=1/1,3;
 2/9=110,12=2,17=6,18=5,40=1/2;
 3/5=1,6=6,7=11,11=2,25=1,30=1,71=1,74=-5,75=-4/1,2,3;
 4//1;
 5/5=2,38=5/2;
 6/7=2,8=2,9=2,10=2,28=1/1;
 7//1,2,3,16;
 1/6=1,18=20,19=15,26=3/3(2);
 2/9=110/2;
 99//99;
 2/9=110/2;
 3/5=1,6=6,7=11,11=2,25=1,30=1,71=1,74=-5,75=-4/1,2,3;
 4/5=5,16=3,69=1/1;
 5/5=2,38=5/2;
 7//1,2,3,16;
 1/6=1,18=20,19=15,26=3/3(-5);
 2/9=110/2;
 6/7=2,8=2,9=2,10=2,19=2,28=1/1;
 99/9=1/99;
 Leave Link    1 at Mon Mar 18 16:08:15 2024, MaxMem=  6442450944 cpu:               4.2 elap:               0.2
 (Enter /gpfs/software/gaussian/g16/l101.exe)
 ---------
 H10 C4 O2
 ---------
 Symbolic Z-matrix:
 Charge =  0 Multiplicity = 1
 O                    -1.678    -0.723     0.319 
 C                    -2.188    -1.963     0.789 
 C                    -0.258    -0.683     0.309 
 C                     0.152     0.687    -0.221 
 O                     1.572     0.727    -0.231 
 C                     2.092     1.957    -0.701 
 H                    -1.482    -1.948     1.593 
 H                    -1.768    -2.882     0.437 
 H                     0.142    -1.473    -0.351 
 H                     0.142    -0.833     1.319 
 H                    -0.248     1.477     0.439 
 H                    -0.248     0.837    -1.231 
 H                     1.751     2.752    -0.072 
 H                     1.757     2.126    -1.703 
 H                     3.161     1.922    -0.684 
 H                    -2.894    -1.978    -0.015 
 
 ITRead=  0  0  0  0  0  0  0  0  0  0  0  0  0  0  0  0
 MicOpt= -1 -1 -1 -1 -1 -1 -1 -1 -1 -1 -1 -1 -1 -1 -1 -1
 NAtoms=     16 NQM=       16 NQMF=       0 NMMI=      0 NMMIF=      0
                NMic=       0 NMicF=      0.
                    Isotopes and Nuclear Properties:
 (Nuclear quadrupole moments (NQMom) in fm**2, nuclear magnetic moments (NMagM)
  in nuclear magnetons)

  Atom         1           2           3           4           5           6           7           8           9          10
 IAtWgt=          16          12          12          12          16          12           1           1           1           1
 AtmWgt=  15.9949146  12.0000000  12.0000000  12.0000000  15.9949146  12.0000000   1.0078250   1.0078250   1.0078250   1.0078250
 NucSpn=           0           0           0           0           0           0           1           1           1           1
 AtZEff=  -0.0000000  -0.0000000  -0.0000000  -0.0000000  -0.0000000  -0.0000000  -0.0000000  -0.0000000  -0.0000000  -0.0000000
 NQMom=    0.0000000   0.0000000   0.0000000   0.0000000   0.0000000   0.0000000   0.0000000   0.0000000   0.0000000   0.0000000
 NMagM=    0.0000000   0.0000000   0.0000000   0.0000000   0.0000000   0.0000000   2.7928460   2.7928460   2.7928460   2.7928460
 AtZNuc=   8.0000000   6.0000000   6.0000000   6.0000000   8.0000000   6.0000000   1.0000000   1.0000000   1.0000000   1.0000000

  Atom        11          12          13          14          15          16
 IAtWgt=           1           1           1           1           1           1
 AtmWgt=   1.0078250   1.0078250   1.0078250   1.0078250   1.0078250   1.0078250
 NucSpn=           1           1           1           1           1           1
 AtZEff=  -0.0000000  -0.0000000  -0.0000000  -0.0000000  -0.0000000  -0.0000000
 NQMom=    0.0000000   0.0000000   0.0000000   0.0000000   0.0000000   0.0000000
 NMagM=    2.7928460   2.7928460   2.7928460   2.7928460   2.7928460   2.7928460
 AtZNuc=   1.0000000   1.0000000   1.0000000   1.0000000   1.0000000   1.0000000
 Leave Link  101 at Mon Mar 18 16:08:15 2024, MaxMem=  6442450944 cpu:              11.1 elap:               0.4
 (Enter /gpfs/software/gaussian/g16/l103.exe)

 GradGradGradGradGradGradGradGradGradGradGradGradGradGradGradGradGradGrad
 Berny optimization.
 Initialization pass.
                           ----------------------------
                           !    Initial Parameters    !
                           ! (Angstroms and Degrees)  !
 --------------------------                            --------------------------
 ! Name  Definition              Value          Derivative Info.                !
 --------------------------------------------------------------------------------
 ! R1    R(1,2)                  1.4208         estimate D2E/DX2                !
 ! R2    R(1,3)                  1.4206         estimate D2E/DX2                !
 ! R3    R(2,7)                  1.0701         estimate D2E/DX2                !
 ! R4    R(2,8)                  1.07           estimate D2E/DX2                !
 ! R5    R(2,16)                 1.0701         estimate D2E/DX2                !
 ! R6    R(3,4)                  1.5251         estimate D2E/DX2                !
 ! R7    R(3,9)                  1.1044         estimate D2E/DX2                !
 ! R8    R(3,10)                 1.0966         estimate D2E/DX2                !
 ! R9    R(4,5)                  1.4206         estimate D2E/DX2                !
 ! R10   R(4,11)                 1.1044         estimate D2E/DX2                !
 ! R11   R(4,12)                 1.0966         estimate D2E/DX2                !
 ! R12   R(5,6)                  1.4157         estimate D2E/DX2                !
 ! R13   R(6,13)                 1.0696         estimate D2E/DX2                !
 ! R14   R(6,14)                 1.0699         estimate D2E/DX2                !
 ! R15   R(6,15)                 1.0697         estimate D2E/DX2                !
 ! A1    A(2,1,3)              112.6879         estimate D2E/DX2                !
 ! A2    A(1,2,7)               89.9706         estimate D2E/DX2                !
 ! A3    A(1,2,8)              119.992          estimate D2E/DX2                !
 ! A4    A(1,2,16)              90.0294         estimate D2E/DX2                !
 ! A5    A(7,2,8)               90.0137         estimate D2E/DX2                !
 ! A6    A(8,2,16)              89.9863         estimate D2E/DX2                !
 ! A7    A(1,3,4)              107.2453         estimate D2E/DX2                !
 ! A8    A(1,3,9)              110.249          estimate D2E/DX2                !
 ! A9    A(1,3,10)             110.7484         estimate D2E/DX2                !
 ! A10   A(4,3,9)              109.7263         estimate D2E/DX2                !
 ! A11   A(4,3,10)             110.1745         estimate D2E/DX2                !
 ! A12   A(9,3,10)             108.69           estimate D2E/DX2                !
 ! A13   A(3,4,5)              107.2453         estimate D2E/DX2                !
 ! A14   A(3,4,11)             109.7263         estimate D2E/DX2                !
 ! A15   A(3,4,12)             110.1745         estimate D2E/DX2                !
 ! A16   A(5,4,11)             110.249          estimate D2E/DX2                !
 ! A17   A(5,4,12)             110.7484         estimate D2E/DX2                !
 ! A18   A(11,4,12)            108.69           estimate D2E/DX2                !
 ! A19   A(4,5,6)              113.2009         estimate D2E/DX2                !
 ! A20   A(5,6,13)             109.4784         estimate D2E/DX2                !
 ! A21   A(5,6,14)             109.4593         estimate D2E/DX2                !
 ! A22   A(5,6,15)             109.4731         estimate D2E/DX2                !
 ! A23   A(13,6,14)            109.4825         estimate D2E/DX2                !
 ! A24   A(13,6,15)            109.4867         estimate D2E/DX2                !
 ! A25   A(14,6,15)            109.4475         estimate D2E/DX2                !
 ! A26   L(7,2,16,1,-1)        180.0            estimate D2E/DX2                !
 ! A27   L(7,2,16,1,-2)        180.0            estimate D2E/DX2                !
 ! D1    D(3,1,2,7)             44.8239         estimate D2E/DX2                !
 ! D2    D(3,1,2,8)            -45.1749         estimate D2E/DX2                !
 ! D3    D(3,1,2,16)          -135.1761         estimate D2E/DX2                !
 ! D4    D(2,1,3,4)            179.6264         estimate D2E/DX2                !
 ! D5    D(2,1,3,9)             60.2063         estimate D2E/DX2                !
 ! D6    D(2,1,3,10)           -60.1247         estimate D2E/DX2                !
 ! D7    D(1,3,4,5)            180.0            estimate D2E/DX2                !
 ! D8    D(1,3,4,11)            60.2451         estimate D2E/DX2                !
 ! D9    D(1,3,4,12)           -59.3866         estimate D2E/DX2                !
 ! D10   D(9,3,4,5)            -60.2451         estimate D2E/DX2                !
 ! D11   D(9,3,4,11)           180.0            estimate D2E/DX2                !
 ! D12   D(9,3,4,12)            60.3683         estimate D2E/DX2                !
 ! D13   D(10,3,4,5)            59.3866         estimate D2E/DX2                !
 ! D14   D(10,3,4,11)          -60.3683         estimate D2E/DX2                !
 ! D15   D(10,3,4,12)          180.0            estimate D2E/DX2                !
 ! D16   D(3,4,5,6)           -179.7845         estimate D2E/DX2                !
 ! D17   D(11,4,5,6)           -60.3645         estimate D2E/DX2                !
 ! D18   D(12,4,5,6)            59.9666         estimate D2E/DX2                !
 ! D19   D(4,5,6,13)            59.9998         estimate D2E/DX2                !
 ! D20   D(4,5,6,14)           -60.0111         estimate D2E/DX2                !
 ! D21   D(4,5,6,15)          -179.9758         estimate D2E/DX2                !
 --------------------------------------------------------------------------------
 Trust Radius=3.00D-01 FncErr=1.00D-07 GrdErr=1.00D-06 EigMax=2.50D+02 EigMin=1.00D-04
 Number of steps in this run=      1 maximum allowed number of steps=    100.
 GradGradGradGradGradGradGradGradGradGradGradGradGradGradGradGradGradGrad

 Leave Link  103 at Mon Mar 18 16:08:15 2024, MaxMem=  6442450944 cpu:               0.9 elap:               0.1
 (Enter /gpfs/software/gaussian/g16/l202.exe)
                          Input orientation:                          
 ---------------------------------------------------------------------
 Center     Atomic      Atomic             Coordinates (Angstroms)
 Number     Number       Type             X           Y           Z
 ---------------------------------------------------------------------
      1          8           0       -1.678000   -0.723000    0.319000
      2          6           0       -2.188000   -1.963000    0.789000
      3          6           0       -0.258000   -0.683000    0.309000
      4          6           0        0.152000    0.687000   -0.221000
      5          8           0        1.572000    0.727000   -0.231000
      6          6           0        2.092000    1.957000   -0.701000
      7          1           0       -1.482000   -1.948000    1.593000
      8          1           0       -1.768000   -2.882000    0.437000
      9          1           0        0.142000   -1.473000   -0.351000
     10          1           0        0.142000   -0.833000    1.319000
     11          1           0       -0.248000    1.477000    0.439000
     12          1           0       -0.248000    0.837000   -1.231000
     13          1           0        1.751000    2.752000   -0.072000
     14          1           0        1.757000    2.126000   -1.703000
     15          1           0        3.161000    1.922000   -0.684000
     16          1           0       -2.894000   -1.978000   -0.015000
 ---------------------------------------------------------------------
                    Distance matrix (angstroms):
                    1          2          3          4          5
     1  O    0.000000
     2  C    1.420774   0.000000
     3  C    1.420598   2.365100   0.000000
     4  C    2.372467   3.676710   1.525090   0.000000
     5  O    3.601042   4.734353   2.372467   1.420598   0.000000
     6  C    4.736634   5.992070   3.675894   2.367889   1.415698
     7  H    1.778234   1.070083   2.178774   3.592183   4.450788
     8  H    2.164094   1.069984   2.670596   4.105743   4.962530
     9  H    2.079375   2.639811   1.104400   2.163932   2.626652
    10  H    2.079543   2.643237   1.096631   2.163816   2.623166
    11  H    2.626652   3.964808   2.163932   1.104400   2.079375
    12  H    2.623166   3.960303   2.163816   1.096631   2.079543
    13  H    4.897606   6.203891   3.997558   2.615956   2.039104
    14  H    4.899440   6.204274   3.999856   2.615926   2.039169
    15  H    5.605172   6.773091   4.411534   3.285373   2.039155
    16  H    1.779111   1.070083   2.954741   4.052503   5.225786
                    6          7          8          9         10
     6  C    0.000000
     7  H    5.769310   0.000000
     8  H    6.293692   1.513436   0.000000
     9  H    3.961048   2.577234   2.500865   0.000000
    10  H    3.958156   1.988888   2.936737   1.788435   0.000000
    11  H    2.646809   3.819044   4.616415   3.078750   2.502519
    12  H    2.647810   4.153788   4.350125   2.502519   3.073028
    13  H    1.069555   5.942602   6.662162   4.529608   4.168451
    14  H    1.069949   6.160537   6.487318   4.170004   4.527294
    15  H    1.069708   6.459031   6.973528   4.555357   4.551527
    16  H    6.388663   2.140165   1.513075   3.096000   3.508258
                   11         12         13         14         15
    11  H    0.000000
    12  H    1.788435   0.000000
    13  H    2.425437   3.001084   0.000000
    14  H    3.004894   2.429883   1.747018   0.000000
    15  H    3.616688   3.619077   1.746867   1.746766   0.000000
    16  H    4.375438   4.050210   6.629644   6.428372   7.233297
                   16
    16  H    0.000000
 Stoichiometry    C4H10O2
 Framework group  C1[X(C4H10O2)]
 Deg. of freedom    42
 Full point group                 C1      NOp   1
 Largest Abelian subgroup         C1      NOp   1
 Largest concise Abelian subgroup C1      NOp   1
                         Standard orientation:                         
 ---------------------------------------------------------------------
 Center     Atomic      Atomic             Coordinates (Angstroms)
 Number     Number       Type             X           Y           Z
 ---------------------------------------------------------------------
      1          8           0        1.736976   -0.534187    0.064240
      2          6           0        3.009247    0.097831    0.042327
      3          6           0        0.663054    0.393785    0.003740
      4          6           0       -0.631990   -0.411383    0.025282
      5          8           0       -1.705912    0.516589   -0.035218
      6          6           0       -2.979189   -0.102003   -0.017636
      7          1           0        2.663753    0.816817    0.755607
      8          1           0        3.203813    0.884304   -0.656579
      9          1           0        0.719727    0.983764   -0.928147
     10          1           0        0.695168    1.081346    0.857455
     11          1           0       -0.688663   -1.001361    0.957169
     12          1           0       -0.664104   -1.098943   -0.828433
     13          1           0       -3.089613   -0.665271    0.884851
     14          1           0       -3.069446   -0.755895   -0.859699
     15          1           0       -3.740614    0.647794   -0.065730
     16          1           0        3.354741   -0.621156   -0.670953
 ---------------------------------------------------------------------
 Rotational constants (GHZ):          18.8550093           1.2941038           1.2487910
 Leave Link  202 at Mon Mar 18 16:08:15 2024, MaxMem=  6442450944 cpu:               0.5 elap:               0.0
 (Enter /gpfs/software/gaussian/g16/l301.exe)
 Standard basis: 6-31+G(d) (6D, 7F)
 Ernie: Thresh=  0.10000D-02 Tol=  0.10000D-05 Strict=F.
 There are   134 symmetry adapted cartesian basis functions of A   symmetry.
 There are   134 symmetry adapted basis functions of A   symmetry.
   134 basis functions,   232 primitive gaussians,   134 cartesian basis functions
    25 alpha electrons       25 beta electrons
       nuclear repulsion energy       253.7118708210 Hartrees.
 IExCor=  402 DFT=T Ex+Corr=B3LYP ExCW=0 ScaHFX=  0.200000
 ScaDFX=  0.800000  0.720000  1.000000  0.810000 ScalE2=  1.000000  1.000000
 IRadAn=      4 IRanWt=     -1 IRanGd=            0 ICorTp=0 IEmpDi=  4
 NAtoms=   16 NActive=   16 NUniq=   16 SFac= 1.00D+00 NAtFMM=   60 NAOKFM=F Big=F
 Integral buffers will be    131072 words long.
 Raffenetti 2 integral format.
 Two-electron integral symmetry is turned on.
 Leave Link  301 at Mon Mar 18 16:08:15 2024, MaxMem=  6442450944 cpu:               2.0 elap:               0.1
 (Enter /gpfs/software/gaussian/g16/l302.exe)
 NPDir=0 NMtPBC=     1 NCelOv=     1 NCel=       1 NClECP=     1 NCelD=      1
         NCelK=      1 NCelE2=     1 NClLst=     1 CellRange=     0.0.
 One-electron integrals computed using PRISM.
 One-electron integral symmetry used in STVInt
 NBasis=   134 RedAO= T EigKep=  7.16D-05  NBF=   134
 NBsUse=   134 1.00D-06 EigRej= -1.00D+00 NBFU=   134
 Precomputing XC quadrature grid using
 IXCGrd= 4 IRadAn=           4 IRanWt=          -1 IRanGd=           0 AccXCQ= 0.00D+00.
 Generated NRdTot=       0 NPtTot=           0 NUsed=           0 NTot=          32
 NSgBfM=   134   134   134   134   134 MxSgAt=    16 MxSgA2=    16.
 Leave Link  302 at Mon Mar 18 16:08:16 2024, MaxMem=  6442450944 cpu:               5.6 elap:               0.2
 (Enter /gpfs/software/gaussian/g16/l303.exe)
 DipDrv:  MaxL=1.
 Leave Link  303 at Mon Mar 18 16:08:16 2024, MaxMem=  6442450944 cpu:               1.1 elap:               0.1
 (Enter /gpfs/software/gaussian/g16/l401.exe)
 ExpMin= 4.38D-02 ExpMax= 5.48D+03 ExpMxC= 8.25D+02 IAcc=2 IRadAn=         4 AccDes= 0.00D+00
 Harris functional with IExCor=  402 and IRadAn=       4 diagonalized for initial guess.
 HarFok:  IExCor=  402 AccDes= 0.00D+00 IRadAn=         4 IDoV= 1 UseB2=F ITyADJ=14
 ICtDFT=  3500011 ScaDFX=  1.000000  1.000000  1.000000  1.000000
 FoFCou: FMM=F IPFlag=           0 FMFlag=      100000 FMFlg1=           0
         NFxFlg=           0 DoJE=T BraDBF=F KetDBF=T FulRan=T
         wScrn=  0.000000 ICntrl=       500 IOpCl=  0 I1Cent=   200000004 NGrid=           0
         NMat0=    1 NMatS0=      1 NMatT0=    0 NMatD0=    1 NMtDS0=    0 NMtDT0=    0
 Petite list used in FoFCou.
 Harris En= -308.765413213065    
 JPrj=0 DoOrth=F DoCkMO=F.
 Leave Link  401 at Mon Mar 18 16:08:16 2024, MaxMem=  6442450944 cpu:               8.6 elap:               0.4
 (Enter /gpfs/software/gaussian/g16/l502.exe)
 Integral symmetry usage will be decided dynamically.
 Closed shell SCF:
 Using DIIS extrapolation, IDIIS=  1040.
 NGot=  6442450944 LenX=  6442409262 LenY=  6442390865
 Requested convergence on RMS density matrix=1.00D-08 within 128 cycles.
 Requested convergence on MAX density matrix=1.00D-06.
 Requested convergence on             energy=1.00D-06.
 No special actions if energy rises.
 Fock matrices will be formed incrementally for  20 cycles.

 Cycle   1  Pass 1  IDiag  1:
 FoFJK:  IHMeth= 1 ICntrl=       0 DoSepK=F KAlg= 0 I1Cent=           0 FoldK=F
 IRaf= 950000000 NMat=       1 IRICut=       1 DoRegI=T DoRafI=F ISym2E= 0 IDoP0=0 IntGTp=1.
 FoFCou: FMM=F IPFlag=           0 FMFlag=      100000 FMFlg1=           0
         NFxFlg=           0 DoJE=F BraDBF=F KetDBF=F FulRan=T
         wScrn=  0.000000 ICntrl=         0 IOpCl=  0 I1Cent=           0 NGrid=           0
         NMat0=    1 NMatS0=      1 NMatT0=    0 NMatD0=    1 NMtDS0=    0 NMtDT0=    0
 Symmetry not used in FoFCou.
 E= -308.600870091731    
 DIIS: error= 2.81D-02 at cycle   1 NSaved=   1.
 NSaved= 1 IEnMin= 1 EnMin= -308.600870091731     IErMin= 1 ErrMin= 2.81D-02
 ErrMax= 2.81D-02  0.00D+00 EMaxC= 1.00D-01 BMatC= 1.43D-01 BMatP= 1.43D-01
 IDIUse=3 WtCom= 7.19D-01 WtEn= 2.81D-01
 Coeff-Com:  0.100D+01
 Coeff-En:   0.100D+01
 Coeff:      0.100D+01
 Gap=     0.223 Goal=   None    Shift=    0.000
 GapD=    0.223 DampG=1.000 DampE=0.500 DampFc=0.5000 IDamp=-1.
 Damping current iteration by 5.00D-01
 RMSDP=7.30D-03 MaxDP=1.39D-01              OVMax= 1.73D-01

 Cycle   2  Pass 1  IDiag  1:
 RMSU=  3.59D-03    CP:  9.76D-01
 E= -308.664291326511     Delta-E=       -0.063421234779 Rises=F Damp=T
 DIIS: error= 5.86D-03 at cycle   2 NSaved=   2.
 NSaved= 2 IEnMin= 2 EnMin= -308.664291326511     IErMin= 2 ErrMin= 5.86D-03
 ErrMax= 5.86D-03  0.00D+00 EMaxC= 1.00D-01 BMatC= 1.03D-02 BMatP= 1.43D-01
 IDIUse=3 WtCom= 9.41D-01 WtEn= 5.86D-02
 Coeff-Com:  0.822D-01 0.918D+00
 Coeff-En:   0.130D+00 0.870D+00
 Coeff:      0.850D-01 0.915D+00
 Gap=     0.272 Goal=   None    Shift=    0.000
 RMSDP=1.96D-03 MaxDP=5.52D-02 DE=-6.34D-02 OVMax= 1.23D-01

 Cycle   3  Pass 1  IDiag  1:
 RMSU=  1.81D-03    CP:  9.71D-01  7.96D-01
 E= -308.743676617541     Delta-E=       -0.079385291031 Rises=F Damp=F
 DIIS: error= 4.95D-03 at cycle   3 NSaved=   3.
 NSaved= 3 IEnMin= 3 EnMin= -308.743676617541     IErMin= 3 ErrMin= 4.95D-03
 ErrMax= 4.95D-03  0.00D+00 EMaxC= 1.00D-01 BMatC= 7.06D-03 BMatP= 1.03D-02
 IDIUse=3 WtCom= 9.50D-01 WtEn= 4.95D-02
 Coeff-Com: -0.112D-01 0.443D+00 0.568D+00
 Coeff-En:   0.000D+00 0.000D+00 0.100D+01
 Coeff:     -0.106D-01 0.421D+00 0.589D+00
 Gap=     0.242 Goal=   None    Shift=    0.000
 RMSDP=7.84D-04 MaxDP=1.80D-02 DE=-7.94D-02 OVMax= 2.01D-02

 Cycle   4  Pass 1  IDiag  1:
 RMSU=  5.52D-04    CP:  9.72D-01  8.66D-01  7.27D-01
 E= -308.747726165868     Delta-E=       -0.004049548327 Rises=F Damp=F
 DIIS: error= 2.19D-03 at cycle   4 NSaved=   4.
 NSaved= 4 IEnMin= 4 EnMin= -308.747726165868     IErMin= 4 ErrMin= 2.19D-03
 ErrMax= 2.19D-03  0.00D+00 EMaxC= 1.00D-01 BMatC= 1.66D-03 BMatP= 7.06D-03
 IDIUse=3 WtCom= 9.78D-01 WtEn= 2.19D-02
 Coeff-Com: -0.166D-01 0.100D+00 0.344D+00 0.572D+00
 Coeff-En:   0.000D+00 0.000D+00 0.201D+00 0.799D+00
 Coeff:     -0.162D-01 0.983D-01 0.341D+00 0.577D+00
 Gap=     0.245 Goal=   None    Shift=    0.000
 RMSDP=2.68D-04 MaxDP=6.59D-03 DE=-4.05D-03 OVMax= 7.48D-03

 Cycle   5  Pass 1  IDiag  1:
 RMSU=  1.36D-04    CP:  9.71D-01  8.74D-01  7.67D-01  6.06D-01
 E= -308.748966386028     Delta-E=       -0.001240220160 Rises=F Damp=F
 DIIS: error= 2.96D-04 at cycle   5 NSaved=   5.
 NSaved= 5 IEnMin= 5 EnMin= -308.748966386028     IErMin= 5 ErrMin= 2.96D-04
 ErrMax= 2.96D-04  0.00D+00 EMaxC= 1.00D-01 BMatC= 2.83D-05 BMatP= 1.66D-03
 IDIUse=3 WtCom= 9.97D-01 WtEn= 2.96D-03
 Coeff-Com: -0.479D-02 0.174D-01 0.101D+00 0.218D+00 0.668D+00
 Coeff-En:   0.000D+00 0.000D+00 0.000D+00 0.000D+00 0.100D+01
 Coeff:     -0.477D-02 0.173D-01 0.101D+00 0.218D+00 0.669D+00
 Gap=     0.244 Goal=   None    Shift=    0.000
 RMSDP=5.29D-05 MaxDP=1.09D-03 DE=-1.24D-03 OVMax= 1.50D-03

 Cycle   6  Pass 1  IDiag  1:
 RMSU=  3.44D-05    CP:  9.71D-01  8.72D-01  7.75D-01  6.44D-01  7.80D-01
 E= -308.748981969576     Delta-E=       -0.000015583548 Rises=F Damp=F
 DIIS: error= 2.20D-04 at cycle   6 NSaved=   6.
 NSaved= 6 IEnMin= 6 EnMin= -308.748981969576     IErMin= 6 ErrMin= 2.20D-04
 ErrMax= 2.20D-04  0.00D+00 EMaxC= 1.00D-01 BMatC= 9.25D-06 BMatP= 2.83D-05
 IDIUse=3 WtCom= 9.98D-01 WtEn= 2.20D-03
 Coeff-Com: -0.156D-02 0.217D-02 0.352D-01 0.904D-01 0.419D+00 0.455D+00
 Coeff-En:   0.000D+00 0.000D+00 0.000D+00 0.000D+00 0.214D+00 0.786D+00
 Coeff:     -0.156D-02 0.216D-02 0.351D-01 0.902D-01 0.418D+00 0.456D+00
 Gap=     0.244 Goal=   None    Shift=    0.000
 RMSDP=2.16D-05 MaxDP=4.78D-04 DE=-1.56D-05 OVMax= 5.21D-04

 Cycle   7  Pass 1  IDiag  1:
 RMSU=  1.15D-05    CP:  9.71D-01  8.70D-01  7.78D-01  6.37D-01  7.94D-01
                    CP:  5.35D-01
 E= -308.748988732468     Delta-E=       -0.000006762893 Rises=F Damp=F
 DIIS: error= 1.97D-05 at cycle   7 NSaved=   7.
 NSaved= 7 IEnMin= 7 EnMin= -308.748988732468     IErMin= 7 ErrMin= 1.97D-05
 ErrMax= 1.97D-05  0.00D+00 EMaxC= 1.00D-01 BMatC= 1.47D-07 BMatP= 9.25D-06
 IDIUse=1 WtCom= 1.00D+00 WtEn= 0.00D+00
 Coeff-Com: -0.429D-03 0.163D-03 0.109D-01 0.301D-01 0.152D+00 0.202D+00
 Coeff-Com:  0.605D+00
 Coeff:     -0.429D-03 0.163D-03 0.109D-01 0.301D-01 0.152D+00 0.202D+00
 Coeff:      0.605D+00
 Gap=     0.244 Goal=   None    Shift=    0.000
 RMSDP=4.59D-06 MaxDP=8.75D-05 DE=-6.76D-06 OVMax= 9.20D-05

 Cycle   8  Pass 1  IDiag  1:
 RMSU=  2.95D-06    CP:  9.71D-01  8.70D-01  7.78D-01  6.38D-01  8.00D-01
                    CP:  5.51D-01  7.37D-01
 E= -308.748988845405     Delta-E=       -0.000000112937 Rises=F Damp=F
 DIIS: error= 7.60D-06 at cycle   8 NSaved=   8.
 NSaved= 8 IEnMin= 8 EnMin= -308.748988845405     IErMin= 8 ErrMin= 7.60D-06
 ErrMax= 7.60D-06  0.00D+00 EMaxC= 1.00D-01 BMatC= 1.68D-08 BMatP= 1.47D-07
 IDIUse=1 WtCom= 1.00D+00 WtEn= 0.00D+00
 Coeff-Com: -0.237D-04-0.170D-03 0.142D-02 0.494D-02 0.279D-01 0.490D-01
 Coeff-Com:  0.298D+00 0.619D+00
 Coeff:     -0.237D-04-0.170D-03 0.142D-02 0.494D-02 0.279D-01 0.490D-01
 Coeff:      0.298D+00 0.619D+00
 Gap=     0.244 Goal=   None    Shift=    0.000
 RMSDP=1.56D-06 MaxDP=3.13D-05 DE=-1.13D-07 OVMax= 3.36D-05

 Cycle   9  Pass 1  IDiag  1:
 RMSU=  1.23D-06    CP:  9.71D-01  8.70D-01  7.78D-01  6.38D-01  8.01D-01
                    CP:  5.58D-01  7.47D-01  7.32D-01
 E= -308.748988861263     Delta-E=       -0.000000015857 Rises=F Damp=F
 DIIS: error= 1.76D-06 at cycle   9 NSaved=   9.
 NSaved= 9 IEnMin= 9 EnMin= -308.748988861263     IErMin= 9 ErrMin= 1.76D-06
 ErrMax= 1.76D-06  0.00D+00 EMaxC= 1.00D-01 BMatC= 4.80D-10 BMatP= 1.68D-08
 IDIUse=1 WtCom= 1.00D+00 WtEn= 0.00D+00
 Coeff-Com:  0.225D-04-0.667D-04-0.316D-03-0.445D-03-0.173D-02 0.109D-02
 Coeff-Com:  0.562D-01 0.203D+00 0.743D+00
 Coeff:      0.225D-04-0.667D-04-0.316D-03-0.445D-03-0.173D-02 0.109D-02
 Coeff:      0.562D-01 0.203D+00 0.743D+00
 Gap=     0.244 Goal=   None    Shift=    0.000
 RMSDP=4.15D-07 MaxDP=8.49D-06 DE=-1.59D-08 OVMax= 5.53D-06

 Cycle  10  Pass 1  IDiag  1:
 RMSU=  1.64D-07    CP:  9.71D-01  8.70D-01  7.78D-01  6.38D-01  8.00D-01
                    CP:  5.57D-01  7.65D-01  7.56D-01  7.72D-01
 E= -308.748988861703     Delta-E=       -0.000000000440 Rises=F Damp=F
 DIIS: error= 5.50D-07 at cycle  10 NSaved=  10.
 NSaved=10 IEnMin=10 EnMin= -308.748988861703     IErMin=10 ErrMin= 5.50D-07
 ErrMax= 5.50D-07  0.00D+00 EMaxC= 1.00D-01 BMatC= 5.37D-11 BMatP= 4.80D-10
 IDIUse=1 WtCom= 1.00D+00 WtEn= 0.00D+00
 Coeff-Com:  0.116D-04-0.259D-04-0.210D-03-0.389D-03-0.187D-02-0.121D-02
 Coeff-Com:  0.166D-01 0.769D-01 0.357D+00 0.553D+00
 Coeff:      0.116D-04-0.259D-04-0.210D-03-0.389D-03-0.187D-02-0.121D-02
 Coeff:      0.166D-01 0.769D-01 0.357D+00 0.553D+00
 Gap=     0.244 Goal=   None    Shift=    0.000
 RMSDP=7.14D-08 MaxDP=1.29D-06 DE=-4.40D-10 OVMax= 1.44D-06

 Cycle  11  Pass 1  IDiag  1:
 RMSU=  4.87D-08    CP:  9.71D-01  8.70D-01  7.78D-01  6.38D-01  8.00D-01
                    CP:  5.57D-01  7.65D-01  7.58D-01  7.90D-01  7.36D-01
 E= -308.748988861753     Delta-E=       -0.000000000051 Rises=F Damp=F
 DIIS: error= 9.29D-08 at cycle  11 NSaved=  11.
 NSaved=11 IEnMin=11 EnMin= -308.748988861753     IErMin=11 ErrMin= 9.29D-08
 ErrMax= 9.29D-08  0.00D+00 EMaxC= 1.00D-01 BMatC= 2.33D-12 BMatP= 5.37D-11
 IDIUse=1 WtCom= 1.00D+00 WtEn= 0.00D+00
 Coeff-Com:  0.168D-05-0.220D-05-0.479D-04-0.947D-04-0.506D-03-0.510D-03
 Coeff-Com:  0.385D-03 0.811D-02 0.558D-01 0.196D+00 0.741D+00
 Coeff:      0.168D-05-0.220D-05-0.479D-04-0.947D-04-0.506D-03-0.510D-03
 Coeff:      0.385D-03 0.811D-02 0.558D-01 0.196D+00 0.741D+00
 Gap=     0.244 Goal=   None    Shift=    0.000
 RMSDP=1.87D-08 MaxDP=3.00D-07 DE=-5.07D-11 OVMax= 3.02D-07

 Cycle  12  Pass 1  IDiag  1:
 RMSU=  1.36D-08    CP:  9.71D-01  8.70D-01  7.78D-01  6.38D-01  8.01D-01
                    CP:  5.57D-01  7.65D-01  7.60D-01  7.95D-01  7.59D-01
                    CP:  9.05D-01
 E= -308.748988861755     Delta-E=       -0.000000000002 Rises=F Damp=F
 DIIS: error= 1.92D-08 at cycle  12 NSaved=  12.
 NSaved=12 IEnMin=12 EnMin= -308.748988861755     IErMin=12 ErrMin= 1.92D-08
 ErrMax= 1.92D-08  0.00D+00 EMaxC= 1.00D-01 BMatC= 7.38D-14 BMatP= 2.33D-12
 IDIUse=1 WtCom= 1.00D+00 WtEn= 0.00D+00
 Coeff-Com: -0.105D-06 0.638D-06-0.526D-05-0.104D-04-0.658D-04-0.828D-04
 Coeff-Com: -0.570D-03-0.917D-03 0.113D-02 0.306D-01 0.216D+00 0.754D+00
 Coeff:     -0.105D-06 0.638D-06-0.526D-05-0.104D-04-0.658D-04-0.828D-04
 Coeff:     -0.570D-03-0.917D-03 0.113D-02 0.306D-01 0.216D+00 0.754D+00
 Gap=     0.244 Goal=   None    Shift=    0.000
 RMSDP=4.79D-09 MaxDP=7.52D-08 DE=-1.71D-12 OVMax= 6.01D-08

 SCF Done:  E(RB3LYP) =  -308.748988862     A.U. after   12 cycles
            NFock= 12  Conv=0.48D-08     -V/T= 2.0079
 KE= 3.063285788763D+02 PE=-1.227869954533D+03 EE= 3.590805159744D+02
 Leave Link  502 at Mon Mar 18 16:08:19 2024, MaxMem=  6442450944 cpu:              79.4 elap:               2.9
 (Enter /gpfs/software/gaussian/g16/l601.exe)
 Copying SCF densities to generalized density rwf, IOpCl= 0 IROHF=0.

 **********************************************************************

            Population analysis using the SCF Density.

 **********************************************************************

 Orbital symmetries:
       Occupied  (A) (A) (A) (A) (A) (A) (A) (A) (A) (A) (A) (A)
                 (A) (A) (A) (A) (A) (A) (A) (A) (A) (A) (A) (A)
                 (A)
       Virtual   (A) (A) (A) (A) (A) (A) (A) (A) (A) (A) (A) (A)
                 (A) (A) (A) (A) (A) (A) (A) (A) (A) (A) (A) (A)
                 (A) (A) (A) (A) (A) (A) (A) (A) (A) (A) (A) (A)
                 (A) (A) (A) (A) (A) (A) (A) (A) (A) (A) (A) (A)
                 (A) (A) (A) (A) (A) (A) (A) (A) (A) (A) (A) (A)
                 (A) (A) (A) (A) (A) (A) (A) (A) (A) (A) (A) (A)
                 (A) (A) (A) (A) (A) (A) (A) (A) (A) (A) (A) (A)
                 (A) (A) (A) (A) (A) (A) (A) (A) (A) (A) (A) (A)
                 (A) (A) (A) (A) (A) (A) (A) (A) (A) (A) (A) (A)
                 (A)
 The electronic state is 1-A.
 Alpha  occ. eigenvalues --  -19.16122 -19.16006 -10.23805 -10.23778 -10.22606
 Alpha  occ. eigenvalues --  -10.22557  -1.05118  -1.03841  -0.77650  -0.71193
 Alpha  occ. eigenvalues --   -0.66222  -0.61867  -0.53183  -0.51115  -0.49515
 Alpha  occ. eigenvalues --   -0.46942  -0.46203  -0.44526  -0.40143  -0.37945
 Alpha  occ. eigenvalues --   -0.34040  -0.32641  -0.31116  -0.26689  -0.25175
 Alpha virt. eigenvalues --   -0.00742   0.01419   0.01657   0.03155   0.03533
 Alpha virt. eigenvalues --    0.03823   0.05213   0.06341   0.07097   0.07869
 Alpha virt. eigenvalues --    0.08469   0.09534   0.10009   0.11669   0.12538
 Alpha virt. eigenvalues --    0.14583   0.14882   0.19356   0.20224   0.20871
 Alpha virt. eigenvalues --    0.21876   0.22144   0.22836   0.23908   0.24423
 Alpha virt. eigenvalues --    0.25796   0.26614   0.27688   0.28052   0.29161
 Alpha virt. eigenvalues --    0.29459   0.31494   0.31945   0.32493   0.34033
 Alpha virt. eigenvalues --    0.37741   0.38781   0.40600   0.41613   0.60778
 Alpha virt. eigenvalues --    0.63880   0.65129   0.66505   0.66958   0.69337
 Alpha virt. eigenvalues --    0.71909   0.76040   0.80768   0.82853   0.84046
 Alpha virt. eigenvalues --    0.85823   0.88284   0.90372   0.95036   0.98882
 Alpha virt. eigenvalues --    0.99463   1.03254   1.04275   1.09188   1.10843
 Alpha virt. eigenvalues --    1.14325   1.18232   1.18756   1.23938   1.24999
 Alpha virt. eigenvalues --    1.27222   1.27700   1.33173   1.38938   1.41615
 Alpha virt. eigenvalues --    1.47043   1.49193   1.50764   1.52411   1.56556
 Alpha virt. eigenvalues --    1.63046   1.70011   1.73825   1.84566   1.85083
 Alpha virt. eigenvalues --    1.91492   1.92436   2.01657   2.04171   2.05806
 Alpha virt. eigenvalues --    2.08720   2.11509   2.18024   2.19310   2.22091
 Alpha virt. eigenvalues --    2.24760   2.31195   2.32406   2.38879   2.49058
 Alpha virt. eigenvalues --    2.51441   2.61228   2.65447   2.71287   2.77534
 Alpha virt. eigenvalues --    2.84396   3.00083   3.01126   4.16273   4.23876
 Alpha virt. eigenvalues --    4.31344   4.32435   4.35584   4.53839
          Condensed to atoms (all electrons):
               1          2          3          4          5          6
     1  O    8.566656   0.005333   0.115830  -0.020792   0.003070   0.003641
     2  C    0.005333   5.350128  -0.132107   0.010244   0.003875   0.000110
     3  C    0.115830  -0.132107   5.690742  -0.099963  -0.020766   0.000009
     4  C   -0.020792   0.010244  -0.099963   5.619811   0.131012  -0.138697
     5  O    0.003070   0.003875  -0.020766   0.131012   8.397001   0.122670
     6  C    0.003641   0.000110   0.000009  -0.138697   0.122670   5.173675
     7  H   -0.135218   0.397981   0.054450  -0.016000   0.000063  -0.000465
     8  H   -0.009253   0.325402  -0.021926   0.017967   0.000097   0.000345
     9  H   -0.049396  -0.015678   0.423588  -0.056583   0.002279  -0.000744
    10  H   -0.066728  -0.010431   0.397876  -0.041379   0.002951   0.000229
    11  H    0.002122   0.000270  -0.060978   0.419620  -0.057169  -0.007411
    12  H    0.001853  -0.001363  -0.043128   0.403031  -0.056568  -0.006761
    13  H    0.000006   0.000114   0.005216  -0.016365  -0.051909   0.398499
    14  H    0.000010   0.000095   0.005272  -0.016964  -0.052081   0.399128
    15  H    0.000005  -0.000107  -0.006565   0.016543  -0.049797   0.396187
    16  H   -0.094346   0.430701   0.018161  -0.024631  -0.000056  -0.000272
               7          8          9         10         11         12
     1  O   -0.135218  -0.009253  -0.049396  -0.066728   0.002122   0.001853
     2  C    0.397981   0.325402  -0.015678  -0.010431   0.000270  -0.001363
     3  C    0.054450  -0.021926   0.423588   0.397876  -0.060978  -0.043128
     4  C   -0.016000   0.017967  -0.056583  -0.041379   0.419620   0.403031
     5  O    0.000063   0.000097   0.002279   0.002951  -0.057169  -0.056568
     6  C   -0.000465   0.000345  -0.000744   0.000229  -0.007411  -0.006761
     7  H    0.593038  -0.102636  -0.006986   0.023929  -0.000060   0.000032
     8  H   -0.102636   0.686540   0.008817  -0.002621  -0.000011   0.000023
     9  H   -0.006986   0.008817   0.555681  -0.052140   0.004290  -0.006908
    10  H    0.023929  -0.002621  -0.052140   0.567516  -0.006920   0.004237
    11  H   -0.000060  -0.000011   0.004290  -0.006920   0.565992  -0.051676
    12  H    0.000032   0.000023  -0.006908   0.004237  -0.051676   0.563449
    13  H    0.000000  -0.000000   0.000000  -0.000019   0.009839  -0.002496
    14  H   -0.000000   0.000000  -0.000018  -0.000001  -0.002463   0.009750
    15  H    0.000000  -0.000000   0.000005   0.000007  -0.000170  -0.000185
    16  H    0.010187  -0.079161  -0.000320  -0.000037   0.000007  -0.000013
              13         14         15         16
     1  O    0.000006   0.000010   0.000005  -0.094346
     2  C    0.000114   0.000095  -0.000107   0.430701
     3  C    0.005216   0.005272  -0.006565   0.018161
     4  C   -0.016365  -0.016964   0.016543  -0.024631
     5  O   -0.051909  -0.052081  -0.049797  -0.000056
     6  C    0.398499   0.399128   0.396187  -0.000272
     7  H    0.000000  -0.000000   0.000000   0.010187
     8  H   -0.000000   0.000000  -0.000000  -0.079161
     9  H    0.000000  -0.000018   0.000005  -0.000320
    10  H   -0.000019  -0.000001   0.000007  -0.000037
    11  H    0.009839  -0.002463  -0.000170   0.000007
    12  H   -0.002496   0.009750  -0.000185  -0.000013
    13  H    0.554409  -0.049557  -0.030993   0.000000
    14  H   -0.049557   0.555240  -0.031058  -0.000000
    15  H   -0.030993  -0.031058   0.505788   0.000000
    16  H    0.000000  -0.000000   0.000000   0.498473
 Mulliken charges:
               1
     1  O   -0.322793
     2  C   -0.364568
     3  C   -0.325711
     4  C   -0.186853
     5  O   -0.374671
     6  C   -0.340144
     7  H    0.181685
     8  H    0.176417
     9  H    0.194115
    10  H    0.183532
    11  H    0.184718
    12  H    0.186722
    13  H    0.183257
    14  H    0.182648
    15  H    0.200340
    16  H    0.241306
 Sum of Mulliken charges =  -0.00000
 Mulliken charges with hydrogens summed into heavy atoms:
               1
     1  O   -0.322793
     2  C    0.234841
     3  C    0.051935
     4  C    0.184587
     5  O   -0.374671
     6  C    0.226102
 Electronic spatial extent (au):  <R**2>=            955.9920
 Charge=              0.0000 electrons
 Dipole moment (field-independent basis, Debye):
    X=             -0.5821    Y=              0.1976    Z=             -0.6454  Tot=              0.8913
 Quadrupole moment (field-independent basis, Debye-Ang):
   XX=            -34.7586   YY=            -40.8661   ZZ=            -38.8794
   XY=              5.0537   XZ=             -2.9635   YZ=              0.9854
 Traceless Quadrupole moment (field-independent basis, Debye-Ang):
   XX=              3.4094   YY=             -2.6981   ZZ=             -0.7114
   XY=              5.0537   XZ=             -2.9635   YZ=              0.9854
 Octapole moment (field-independent basis, Debye-Ang**2):
  XXX=            -20.1708  YYY=              0.4798  ZZZ=             -1.1974  XYY=             -0.2720
  XXY=              3.5775  XXZ=            -11.1442  XZZ=             -1.0891  YZZ=             -0.8895
  YYZ=             -0.1956  XYZ=              2.4474
 Hexadecapole moment (field-independent basis, Debye-Ang**3):
 XXXX=          -1051.9090 YYYY=           -111.9045 ZZZZ=            -69.9811 XXXY=             -1.3750
 XXXZ=            -40.5734 YYYX=             -4.1689 YYYZ=              1.2724 ZZZX=             -5.0064
 ZZZY=              0.8906 XXYY=           -204.8278 XXZZ=           -199.4481 YYZZ=            -29.1834
 XXYZ=              7.1451 YYXZ=             -0.6531 ZZXY=             -1.0192
 N-N= 2.537118708210D+02 E-N=-1.227869952647D+03  KE= 3.063285788763D+02
 No NMR shielding tensors so no spin-rotation constants.
 Leave Link  601 at Mon Mar 18 16:08:19 2024, MaxMem=  6442450944 cpu:               4.4 elap:               0.2
 (Enter /gpfs/software/gaussian/g16/l701.exe)
 ... and contract with generalized density number  0.
 Compute integral first derivatives.
 Leave Link  701 at Mon Mar 18 16:08:19 2024, MaxMem=  6442450944 cpu:               4.4 elap:               0.2
 (Enter /gpfs/software/gaussian/g16/l702.exe)
 L702 exits ... SP integral derivatives will be done elsewhere.
 Leave Link  702 at Mon Mar 18 16:08:19 2024, MaxMem=  6442450944 cpu:               0.9 elap:               0.1
 (Enter /gpfs/software/gaussian/g16/l703.exe)
 Integral derivatives from FoFJK, PRISM(SPDF).
 Compute integral first derivatives, UseDBF=F ICtDFT=           0.
 Calling FoFJK, ICntrl=      2127 FMM=F ISym2X=0 I1Cent= 0 IOpClX= 0 NMat=1 NMatS=1 NMatT=0.
 FoFJK:  IHMeth= 1 ICntrl=    2127 DoSepK=F KAlg= 0 I1Cent=           0 FoldK=F
 IRaf=         0 NMat=       1 IRICut=       1 DoRegI=T DoRafI=F ISym2E= 0 IDoP0=0 IntGTp=1.
 FoFCou: FMM=F IPFlag=           0 FMFlag=      100000 FMFlg1=         800
         NFxFlg=           0 DoJE=F BraDBF=F KetDBF=F FulRan=T
         wScrn=  0.000000 ICntrl=      2127 IOpCl=  0 I1Cent=           0 NGrid=           0
         NMat0=    1 NMatS0=      1 NMatT0=    0 NMatD0=    1 NMtDS0=    0 NMtDT0=    0
 Symmetry not used in FoFCou.
 Leave Link  703 at Mon Mar 18 16:08:20 2024, MaxMem=  6442450944 cpu:              14.4 elap:               0.6
 (Enter /gpfs/software/gaussian/g16/l716.exe)
 Dipole        =-2.29021523D-01 7.77557848D-02-2.53929794D-01
 ***** Axes restored to original set *****
 -------------------------------------------------------------------
 Center     Atomic                   Forces (Hartrees/Bohr)
 Number     Number              X              Y              Z
 -------------------------------------------------------------------
      1        8           0.034358761    0.022928705   -0.039282457
      2        6           0.040251994    0.013657748   -0.029202643
      3        6          -0.003204382    0.010308333   -0.013188730
      4        6           0.006918301   -0.000810712    0.007144943
      5        8           0.002843961   -0.005652281    0.001740598
      6        6          -0.010496674   -0.014867843    0.005334065
      7        1          -0.043148967   -0.017682510    0.074511011
      8        1           0.038043978   -0.021174874   -0.036401398
      9        1          -0.000024312    0.001683440    0.002594414
     10        1           0.001943333   -0.001391665    0.005359450
     11        1          -0.000559846   -0.000802604   -0.001769720
     12        1          -0.001512793    0.000294591   -0.002291252
     13        1          -0.005153178    0.018554582    0.011163735
     14        1          -0.004958175    0.006311101   -0.020482358
     15        1           0.015976618   -0.004422104    0.001777364
     16        1          -0.071278618   -0.006933907    0.032992977
 -------------------------------------------------------------------
 Cartesian Forces:  Max     0.074511011 RMS     0.022903430
 Leave Link  716 at Mon Mar 18 16:08:20 2024, MaxMem=  6442450944 cpu:               1.0 elap:               0.1
 (Enter /gpfs/software/gaussian/g16/l103.exe)

 GradGradGradGradGradGradGradGradGradGradGradGradGradGradGradGradGradGrad
 Berny optimization.
 FormGI is forming the generalized inverse of G from B-inverse, IUseBI=4.
 Internal  Forces:  Max     0.075569324 RMS     0.021792288
 Search for a local minimum.
 Step number   1 out of a maximum of    1
 All quantities printed in internal units (Hartrees-Bohrs-Radians)
 RMS Force = .21792D-01 SwitMx=.10000D-02 MixMth= 1
 Mixed Optimization -- RFO/linear search
 Second derivative matrix not updated -- first step.
 ITU=  0
     Eigenvalues ---    0.00434   0.01417   0.01419   0.01419   0.01484
     Eigenvalues ---    0.03084   0.05455   0.05455   0.05946   0.05946
     Eigenvalues ---    0.06881   0.10415   0.10419   0.10793   0.11044
     Eigenvalues ---    0.11044   0.13571   0.13571   0.16000   0.16000
     Eigenvalues ---    0.16000   0.16000   0.16000   0.21994   0.21994
     Eigenvalues ---    0.25000   0.25000   0.29882   0.33200   0.33200
     Eigenvalues ---    0.34057   0.34057   0.37220   0.37220   0.37232
     Eigenvalues ---    0.37237   0.37267   0.37286   0.42344   0.42370
     Eigenvalues ---    0.42370   0.43115
 RFO step:  Lambda=-1.33256182D-01 EMin= 4.34052793D-03
 Linear search not attempted -- first point.
 Maximum step size (   0.300) exceeded in Quadratic search.
    -- Step size scaled by   0.394
 Iteration  1 RMS(Cart)=  0.05425026 RMS(Int)=  0.00340528
 Iteration  2 RMS(Cart)=  0.00305423 RMS(Int)=  0.00156834
 Iteration  3 RMS(Cart)=  0.00001149 RMS(Int)=  0.00156832
 Iteration  4 RMS(Cart)=  0.00000007 RMS(Int)=  0.00156832
 ITry= 1 IFail=0 DXMaxC= 2.19D-01 DCOld= 1.00D+10 DXMaxT= 3.00D-01 DXLimC= 3.00D+00 Rises=F
 Variable       Old X    -DE/DX   Delta X   Delta X   Delta X     New X
                                 (Linear)    (Quad)   (Total)
    R1        2.68487   0.05487   0.00000   0.03885   0.03885   2.72373
    R2        2.68454   0.00205   0.00000   0.00145   0.00145   2.68599
    R3        2.02216   0.02727   0.00000   0.02126   0.02126   2.04343
    R4        2.02198   0.04510   0.00000   0.03516   0.03516   2.05713
    R5        2.02216   0.02233   0.00000   0.01742   0.01742   2.03958
    R6        2.88200  -0.00134   0.00000  -0.00122  -0.00122   2.88078
    R7        2.08701  -0.00276   0.00000  -0.00234  -0.00234   2.08467
    R8        2.07233   0.00583   0.00000   0.00485   0.00485   2.07719
    R9        2.68454  -0.00178   0.00000  -0.00126  -0.00126   2.68328
   R10        2.08701  -0.00143   0.00000  -0.00121  -0.00121   2.08580
   R11        2.07233   0.00270   0.00000   0.00225   0.00225   2.07458
   R12        2.67528   0.00388   0.00000   0.00271   0.00271   2.67799
   R13        2.02117   0.02200   0.00000   0.01713   0.01713   2.03830
   R14        2.02191   0.02173   0.00000   0.01694   0.01694   2.03885
   R15        2.02145   0.01614   0.00000   0.01257   0.01257   2.03403
    A1        1.96677   0.01857   0.00000   0.01910   0.01910   1.98587
    A2        1.57028   0.04834   0.00000   0.09699   0.09827   1.66856
    A3        2.09426  -0.06948   0.00000  -0.09338  -0.09170   2.00256
    A4        1.57131   0.02278   0.00000   0.06133   0.06218   1.63349
    A5        1.57103   0.01413   0.00000   0.04111   0.04912   1.62015
    A6        1.57056   0.01577   0.00000   0.04071   0.04774   1.61829
    A7        1.87178   0.00475   0.00000   0.00558   0.00557   1.87736
    A8        1.92421  -0.00076   0.00000   0.00006   0.00005   1.92425
    A9        1.93292  -0.00214   0.00000  -0.00290  -0.00290   1.93003
   A10        1.91508  -0.00020   0.00000   0.00045   0.00045   1.91553
   A11        1.92291  -0.00142   0.00000  -0.00192  -0.00191   1.92099
   A12        1.89700  -0.00022   0.00000  -0.00120  -0.00121   1.89579
   A13        1.87178   0.00187   0.00000   0.00228   0.00228   1.87407
   A14        1.91508  -0.00014   0.00000   0.00002   0.00002   1.91510
   A15        1.92291  -0.00103   0.00000  -0.00154  -0.00154   1.92137
   A16        1.92421  -0.00002   0.00000   0.00058   0.00058   1.92479
   A17        1.93292  -0.00038   0.00000  -0.00036  -0.00036   1.93257
   A18        1.89700  -0.00029   0.00000  -0.00096  -0.00096   1.89604
   A19        1.97573  -0.00187   0.00000  -0.00192  -0.00192   1.97380
   A20        1.91076   0.00559   0.00000   0.00772   0.00771   1.91847
   A21        1.91042   0.00569   0.00000   0.00787   0.00785   1.91828
   A22        1.91067  -0.00864   0.00000  -0.01204  -0.01203   1.89864
   A23        1.91083  -0.00227   0.00000  -0.00221  -0.00224   1.90859
   A24        1.91090  -0.00020   0.00000  -0.00070  -0.00069   1.91021
   A25        1.91022  -0.00017   0.00000  -0.00064  -0.00063   1.90959
   A26        3.14159   0.07112   0.00000   0.15832   0.16045   3.30204
   A27        3.14159   0.07557   0.00000   0.18585   0.18133   3.32292
    D1        0.78233   0.03836   0.00000   0.09222   0.08954   0.87186
    D2       -0.78845  -0.00589   0.00000  -0.01127  -0.01042  -0.79887
    D3       -2.35927  -0.03721   0.00000  -0.09362  -0.09179  -2.45106
    D4        3.13507   0.00169   0.00000   0.00405   0.00405   3.13912
    D5        1.05080  -0.00049   0.00000   0.00013   0.00013   1.05093
    D6       -1.04937   0.00167   0.00000   0.00349   0.00348  -1.04589
    D7        3.14159  -0.00053   0.00000  -0.00114  -0.00114   3.14045
    D8        1.05148  -0.00153   0.00000  -0.00320  -0.00320   1.04827
    D9       -1.03649  -0.00044   0.00000  -0.00107  -0.00107  -1.03757
   D10       -1.05148   0.00126   0.00000   0.00247   0.00247  -1.04900
   D11        3.14159   0.00025   0.00000   0.00041   0.00042  -3.14118
   D12        1.05363   0.00134   0.00000   0.00254   0.00254   1.05617
   D13        1.03649  -0.00002   0.00000   0.00008   0.00008   1.03657
   D14       -1.05363  -0.00102   0.00000  -0.00198  -0.00198  -1.05560
   D15        3.14159   0.00007   0.00000   0.00015   0.00015  -3.14144
   D16       -3.13783  -0.00042   0.00000  -0.00080  -0.00080  -3.13863
   D17       -1.05356   0.00052   0.00000   0.00092   0.00092  -1.05264
   D18        1.04661  -0.00010   0.00000  -0.00014  -0.00014   1.04648
   D19        1.04719   0.00209   0.00000   0.00348   0.00352   1.05071
   D20       -1.04739  -0.00203   0.00000  -0.00336  -0.00340  -1.05079
   D21       -3.14117  -0.00002   0.00000  -0.00002  -0.00002  -3.14119
         Item               Value     Threshold  Converged?
 Maximum Force            0.075569     0.000450     NO 
 RMS     Force            0.021792     0.000300     NO 
 Maximum Displacement     0.219139     0.001800     NO 
 RMS     Displacement     0.054462     0.001200     NO 
 Predicted change in Energy=-4.904057D-02
 Optimization stopped.
    -- Number of steps exceeded,  NStep=   1
    -- Flag reset to prevent archiving.
                           ----------------------------
                           ! Non-Optimized Parameters !
                           ! (Angstroms and Degrees)  !
 --------------------------                            --------------------------
 ! Name  Definition              Value          Derivative Info.                !
 --------------------------------------------------------------------------------
 ! R1    R(1,2)                  1.4413         -DE/DX =    0.0549              !
 ! R2    R(1,3)                  1.4214         -DE/DX =    0.0021              !
 ! R3    R(2,7)                  1.0813         -DE/DX =    0.0273              !
 ! R4    R(2,8)                  1.0886         -DE/DX =    0.0451              !
 ! R5    R(2,16)                 1.0793         -DE/DX =    0.0223              !
 ! R6    R(3,4)                  1.5244         -DE/DX =   -0.0013              !
 ! R7    R(3,9)                  1.1032         -DE/DX =   -0.0028              !
 ! R8    R(3,10)                 1.0992         -DE/DX =    0.0058              !
 ! R9    R(4,5)                  1.4199         -DE/DX =   -0.0018              !
 ! R10   R(4,11)                 1.1038         -DE/DX =   -0.0014              !
 ! R11   R(4,12)                 1.0978         -DE/DX =    0.0027              !
 ! R12   R(5,6)                  1.4171         -DE/DX =    0.0039              !
 ! R13   R(6,13)                 1.0786         -DE/DX =    0.022               !
 ! R14   R(6,14)                 1.0789         -DE/DX =    0.0217              !
 ! R15   R(6,15)                 1.0764         -DE/DX =    0.0161              !
 ! A1    A(2,1,3)              113.782          -DE/DX =    0.0186              !
 ! A2    A(1,2,7)               95.6013         -DE/DX =    0.0483              !
 ! A3    A(1,2,8)              114.738          -DE/DX =   -0.0695              !
 ! A4    A(1,2,16)              93.5919         -DE/DX =    0.0228              !
 ! A5    A(7,2,8)               92.8278         -DE/DX =    0.0141              !
 ! A6    A(8,2,16)              92.7214         -DE/DX =    0.0158              !
 ! A7    A(1,3,4)              107.5646         -DE/DX =    0.0047              !
 ! A8    A(1,3,9)              110.2516         -DE/DX =   -0.0008              !
 ! A9    A(1,3,10)             110.5824         -DE/DX =   -0.0021              !
 ! A10   A(4,3,9)              109.7518         -DE/DX =   -0.0002              !
 ! A11   A(4,3,10)             110.0648         -DE/DX =   -0.0014              !
 ! A12   A(9,3,10)             108.6209         -DE/DX =   -0.0002              !
 ! A13   A(3,4,5)              107.376          -DE/DX =    0.0019              !
 ! A14   A(3,4,11)             109.7272         -DE/DX =   -0.0001              !
 ! A15   A(3,4,12)             110.0864         -DE/DX =   -0.001               !
 ! A16   A(5,4,11)             110.2822         -DE/DX =    0.0                 !
 ! A17   A(5,4,12)             110.728          -DE/DX =   -0.0004              !
 ! A18   A(11,4,12)            108.6349         -DE/DX =   -0.0003              !
 ! A19   A(4,5,6)              113.0907         -DE/DX =   -0.0019              !
 ! A20   A(5,6,13)             109.92           -DE/DX =    0.0056              !
 ! A21   A(5,6,14)             109.9092         -DE/DX =    0.0057              !
 ! A22   A(5,6,15)             108.7838         -DE/DX =   -0.0086              !
 ! A23   A(13,6,14)            109.3539         -DE/DX =   -0.0023              !
 ! A24   A(13,6,15)            109.447          -DE/DX =   -0.0002              !
 ! A25   A(14,6,15)            109.4112         -DE/DX =   -0.0002              !
 ! A26   L(7,2,16,1,-1)        189.1932         -DE/DX =    0.0711              !
 ! A27   L(7,2,16,1,-2)        190.3893         -DE/DX =    0.0756              !
 ! D1    D(3,1,2,7)             49.9541         -DE/DX =    0.0384              !
 ! D2    D(3,1,2,8)            -45.7717         -DE/DX =   -0.0059              !
 ! D3    D(3,1,2,16)          -140.4352         -DE/DX =   -0.0372              !
 ! D4    D(2,1,3,4)            179.8585         -DE/DX =    0.0017              !
 ! D5    D(2,1,3,9)             60.214          -DE/DX =   -0.0005              !
 ! D6    D(2,1,3,10)           -59.9251         -DE/DX =    0.0017              !
 ! D7    D(1,3,4,5)            179.9345         -DE/DX =   -0.0005              !
 ! D8    D(1,3,4,11)            60.0617         -DE/DX =   -0.0015              !
 ! D9    D(1,3,4,12)           -59.4481         -DE/DX =   -0.0004              !
 ! D10   D(9,3,4,5)            -60.1033         -DE/DX =    0.0013              !
 ! D11   D(9,3,4,11)          -179.9761         -DE/DX =    0.0003              !
 ! D12   D(9,3,4,12)            60.5141         -DE/DX =    0.0013              !
 ! D13   D(10,3,4,5)            59.3912         -DE/DX =    0.0                 !
 ! D14   D(10,3,4,11)          -60.4816         -DE/DX =   -0.001               !
 ! D15   D(10,3,4,12)         -179.9914         -DE/DX =    0.0001              !
 ! D16   D(3,4,5,6)           -179.8304         -DE/DX =   -0.0004              !
 ! D17   D(11,4,5,6)           -60.312          -DE/DX =    0.0005              !
 ! D18   D(12,4,5,6)            59.9588         -DE/DX =   -0.0001              !
 ! D19   D(4,5,6,13)            60.2015         -DE/DX =    0.0021              !
 ! D20   D(4,5,6,14)           -60.206          -DE/DX =   -0.002               !
 ! D21   D(4,5,6,15)          -179.9771         -DE/DX =    0.0                 !
 --------------------------------------------------------------------------------
 Lowest energy point so far.  Saving SCF results.
 Largest change from initial coordinates is atom   15       0.000 Angstoms.
 GradGradGradGradGradGradGradGradGradGradGradGradGradGradGradGradGradGrad

 Leave Link  103 at Mon Mar 18 16:08:20 2024, MaxMem=  6442450944 cpu:               1.2 elap:               0.1
 (Enter /gpfs/software/gaussian/g16/l202.exe)
                          Input orientation:                          
 ---------------------------------------------------------------------
 Center     Atomic      Atomic             Coordinates (Angstroms)
 Number     Number       Type             X           Y           Z
 ---------------------------------------------------------------------
      1          8           0       -1.678000   -0.723000    0.319000
      2          6           0       -2.188000   -1.963000    0.789000
      3          6           0       -0.258000   -0.683000    0.309000
      4          6           0        0.152000    0.687000   -0.221000
      5          8           0        1.572000    0.727000   -0.231000
      6          6           0        2.092000    1.957000   -0.701000
      7          1           0       -1.482000   -1.948000    1.593000
      8          1           0       -1.768000   -2.882000    0.437000
      9          1           0        0.142000   -1.473000   -0.351000
     10          1           0        0.142000   -0.833000    1.319000
     11          1           0       -0.248000    1.477000    0.439000
     12          1           0       -0.248000    0.837000   -1.231000
     13          1           0        1.751000    2.752000   -0.072000
     14          1           0        1.757000    2.126000   -1.703000
     15          1           0        3.161000    1.922000   -0.684000
     16          1           0       -2.894000   -1.978000   -0.015000
 ---------------------------------------------------------------------
                    Distance matrix (angstroms):
                    1          2          3          4          5
     1  O    0.000000
     2  C    1.420774   0.000000
     3  C    1.420598   2.365100   0.000000
     4  C    2.372467   3.676710   1.525090   0.000000
     5  O    3.601042   4.734353   2.372467   1.420598   0.000000
     6  C    4.736634   5.992070   3.675894   2.367889   1.415698
     7  H    1.778234   1.070083   2.178774   3.592183   4.450788
     8  H    2.164094   1.069984   2.670596   4.105743   4.962530
     9  H    2.079375   2.639811   1.104400   2.163932   2.626652
    10  H    2.079543   2.643237   1.096631   2.163816   2.623166
    11  H    2.626652   3.964808   2.163932   1.104400   2.079375
    12  H    2.623166   3.960303   2.163816   1.096631   2.079543
    13  H    4.897606   6.203891   3.997558   2.615956   2.039104
    14  H    4.899440   6.204274   3.999856   2.615926   2.039169
    15  H    5.605172   6.773091   4.411534   3.285373   2.039155
    16  H    1.779111   1.070083   2.954741   4.052503   5.225786
                    6          7          8          9         10
     6  C    0.000000
     7  H    5.769310   0.000000
     8  H    6.293692   1.513436   0.000000
     9  H    3.961048   2.577234   2.500865   0.000000
    10  H    3.958156   1.988888   2.936737   1.788435   0.000000
    11  H    2.646809   3.819044   4.616415   3.078750   2.502519
    12  H    2.647810   4.153788   4.350125   2.502519   3.073028
    13  H    1.069555   5.942602   6.662162   4.529608   4.168451
    14  H    1.069949   6.160537   6.487318   4.170004   4.527294
    15  H    1.069708   6.459031   6.973528   4.555357   4.551527
    16  H    6.388663   2.140165   1.513075   3.096000   3.508258
                   11         12         13         14         15
    11  H    0.000000
    12  H    1.788435   0.000000
    13  H    2.425437   3.001084   0.000000
    14  H    3.004894   2.429883   1.747018   0.000000
    15  H    3.616688   3.619077   1.746867   1.746766   0.000000
    16  H    4.375438   4.050210   6.629644   6.428372   7.233297
                   16
    16  H    0.000000
 Stoichiometry    C4H10O2
 Framework group  C1[X(C4H10O2)]
 Deg. of freedom    42
 Full point group                 C1      NOp   1
 RotChk:  IX=0 Diff= 6.83D-15
 Largest Abelian subgroup         C1      NOp   1
 Largest concise Abelian subgroup C1      NOp   1
                         Standard orientation:                         
 ---------------------------------------------------------------------
 Center     Atomic      Atomic             Coordinates (Angstroms)
 Number     Number       Type             X           Y           Z
 ---------------------------------------------------------------------
      1          8           0        1.736976   -0.534187    0.064240
      2          6           0        3.009247    0.097831    0.042327
      3          6           0        0.663054    0.393785    0.003740
      4          6           0       -0.631990   -0.411383    0.025282
      5          8           0       -1.705912    0.516589   -0.035218
      6          6           0       -2.979189   -0.102003   -0.017636
      7          1           0        2.663753    0.816817    0.755607
      8          1           0        3.203813    0.884304   -0.656579
      9          1           0        0.719727    0.983764   -0.928147
     10          1           0        0.695168    1.081346    0.857455
     11          1           0       -0.688663   -1.001361    0.957169
     12          1           0       -0.664104   -1.098943   -0.828433
     13          1           0       -3.089613   -0.665271    0.884851
     14          1           0       -3.069446   -0.755895   -0.859699
     15          1           0       -3.740614    0.647794   -0.065730
     16          1           0        3.354741   -0.621156   -0.670953
 ---------------------------------------------------------------------
 Rotational constants (GHZ):          18.8550093           1.2941038           1.2487910
 Leave Link  202 at Mon Mar 18 16:08:20 2024, MaxMem=  6442450944 cpu:               1.4 elap:               0.1
 (Enter /gpfs/software/gaussian/g16/l9999.exe)


 ON A TOMBSTONE, "HERE LIES LESTER MOORE,
 FOUR SLUGS FROM A 44, NO LES, NO MORE".
 Error termination request processed by link 9999.
 Error termination via Lnk1e in /gpfs/software/gaussian/g16/l9999.exe at Mon Mar 18 16:08:20 2024.
 Job cpu time:       0 days  0 hours  2 minutes 22.5 seconds.
 Elapsed time:       0 days  0 hours  0 minutes  5.7 seconds.
 File lengths (MBytes):  RWF=    136 Int=      0 D2E=      0 Chk=     16 Scr=     16
