 Entering Gaussian System, Link 0=g16
 Initial command:
 /gpfs/software/gaussian/g16/l1.exe "/gpfs/scratch/ratwi/mg_pnnl/room_temp/btfe/nvt/Dumps/Second_NMR/conf_1/Optimization/Gau-22534.inp" -scrdir="/gpfs/scratch/ratwi/mg_pnnl/room_temp/btfe/nvt/Dumps/Second_NMR/conf_1/Optimization/"
 Entering Link 1 = /gpfs/software/gaussian/g16/l1.exe PID=     22535.
  
 Copyright (c) 1988-2019, Gaussian, Inc.  All Rights Reserved.
  
 This is part of the Gaussian(R) 16 program.  It is based on
 the Gaussian(R) 09 system (copyright 2009, Gaussian, Inc.),
 the Gaussian(R) 03 system (copyright 2003, Gaussian, Inc.),
 the Gaussian(R) 98 system (copyright 1998, Gaussian, Inc.),
 the Gaussian(R) 94 system (copyright 1995, Gaussian, Inc.),
 the Gaussian 92(TM) system (copyright 1992, Gaussian, Inc.),
 the Gaussian 90(TM) system (copyright 1990, Gaussian, Inc.),
 the Gaussian 88(TM) system (copyright 1988, Gaussian, Inc.),
 the Gaussian 86(TM) system (copyright 1986, Carnegie Mellon
 University), and the Gaussian 82(TM) system (copyright 1983,
 Carnegie Mellon University). Gaussian is a federally registered
 trademark of Gaussian, Inc.
  
 This software contains proprietary and confidential information,
 including trade secrets, belonging to Gaussian, Inc.
  
 This software is provided under written license and may be
 used, copied, transmitted, or stored only in accord with that
 written license.
  
 The following legend is applicable only to US Government
 contracts under FAR:
  
                    RESTRICTED RIGHTS LEGEND
  
 Use, reproduction and disclosure by the US Government is
 subject to restrictions as set forth in subparagraphs (a)
 and (c) of the Commercial Computer Software - Restricted
 Rights clause in FAR 52.227-19.
  
 Gaussian, Inc.
 340 Quinnipiac St., Bldg. 40, Wallingford CT 06492
  
  
 ---------------------------------------------------------------
 Warning -- This program may not be used in any manner that
 competes with the business of Gaussian, Inc. or will provide
 assistance to any competitor of Gaussian, Inc.  The licensee
 of this program is prohibited from giving any competitor of
 Gaussian, Inc. access to this program.  By using this program,
 the user acknowledges that Gaussian, Inc. is engaged in the
 business of creating and licensing software in the field of
 computational chemistry and represents and warrants to the
 licensee that it is not a competitor of Gaussian, Inc. and that
 it will not use this program in any manner prohibited above.
 ---------------------------------------------------------------
  

 Cite this work as:
 Gaussian 16, Revision C.01,
 M. J. Frisch, G. W. Trucks, H. B. Schlegel, G. E. Scuseria, 
 M. A. Robb, J. R. Cheeseman, G. Scalmani, V. Barone, 
 G. A. Petersson, H. Nakatsuji, X. Li, M. Caricato, A. V. Marenich, 
 J. Bloino, B. G. Janesko, R. Gomperts, B. Mennucci, H. P. Hratchian, 
 J. V. Ortiz, A. F. Izmaylov, J. L. Sonnenberg, D. Williams-Young, 
 F. Ding, F. Lipparini, F. Egidi, J. Goings, B. Peng, A. Petrone, 
 T. Henderson, D. Ranasinghe, V. G. Zakrzewski, J. Gao, N. Rega, 
 G. Zheng, W. Liang, M. Hada, M. Ehara, K. Toyota, R. Fukuda, 
 J. Hasegawa, M. Ishida, T. Nakajima, Y. Honda, O. Kitao, H. Nakai, 
 T. Vreven, K. Throssell, J. A. Montgomery, Jr., J. E. Peralta, 
 F. Ogliaro, M. J. Bearpark, J. J. Heyd, E. N. Brothers, K. N. Kudin, 
 V. N. Staroverov, T. A. Keith, R. Kobayashi, J. Normand, 
 K. Raghavachari, A. P. Rendell, J. C. Burant, S. S. Iyengar, 
 J. Tomasi, M. Cossi, J. M. Millam, M. Klene, C. Adamo, R. Cammi, 
 J. W. Ochterski, R. L. Martin, K. Morokuma, O. Farkas, 
 J. B. Foresman, and D. J. Fox, Gaussian, Inc., Wallingford CT, 2019.
 
 ******************************************
 Gaussian 16:  ES64L-G16RevC.01  3-Jul-2019
                18-May-2022 
 ******************************************
 %chk=checkpoint.chk
 %mem=45GB
 %NProcShared=28
 Will use up to   28 processors via shared memory.
 ----------------------------------------------------------------------
 #P wB97X/Def2TZVP opt=(calcfc,tight) scf=(tight,maxcycle=100) int=ultr
 afine nosymmetry test scrf=(solvent=generic,read)
 ----------------------------------------------------------------------
 1/7=10,10=4,18=20,19=15,26=6,38=1,40=2/1,3;
 2/9=110,12=2,15=1,17=6,18=5,40=1/2;
 3/5=44,7=101,11=2,25=1,30=1,70=2203,71=2,72=-2,74=-57,75=-5,140=1/1,2,3;
 4//1;
 5/5=2,7=100,32=2,38=5/2;
 8/6=4,10=90,11=11/1;
 11/6=1,8=1,9=11,15=111,16=1,31=1/1,2,10;
 10/6=1,13=1,31=1/2;
 6/7=2,8=2,9=2,10=2,28=1/1;
 7/10=1,25=1,30=1/1,2,3,16;
 1/7=10,10=4,18=20,19=15,26=6/3(2);
 2/9=110,15=1/2;
 99//99;
 2/9=110,15=1/2;
 3/5=44,7=101,11=2,25=1,30=1,70=2205,71=1,72=-2,74=-57,75=-5/1,2,3;
 4/5=5,16=3,69=1/1;
 5/5=2,7=100,32=2,38=5/2;
 7/30=1/1,2,3,16;
 1/7=10,18=20,19=15,26=6/3(-5);
 2/9=110,15=1/2;
 6/7=2,8=2,9=2,10=2,19=2,28=1/1;
 99/9=1/99;
 Leave Link    1 at Wed May 18 16:42:14 2022, MaxMem=  6039797760 cpu:             553.8 elap:              20.5
 (Enter /gpfs/software/gaussian/g16/l101.exe)
 --------------
 Mg1 H30 C12 O6
 --------------
 Symbolic Z-matrix:
 Charge =  2 Multiplicity = 1
 Mg                    38.3683   42.09017   23.45156 
 O                     37.11361   43.75242   23.18378 
 O                     39.55027   43.67345   24.14635 
 C                     37.76591   45.01506   23.3414 
 C                     38.80539   44.86305   24.4226 
 C                     35.99252   43.80711   22.29805 
 C                     40.78497   43.58335   24.86719 
 H                     38.21662   45.30029   22.38545 
 H                     37.03979   45.77832   23.63047 
 H                     39.47017   45.7291   24.42234 
 H                     38.34376   44.7741   25.41044 
 H                     36.32113   44.13346   21.311 
 H                     35.57375   42.805    22.24548 
 H                     35.24574   44.49739   22.6931 
 H                     41.26255   42.6472   24.58524 
 H                     41.42557   44.42481   24.5991 
 H                     40.59086   43.59828   25.94174 
 O                     39.70695   40.63561   24.1699 
 O                     37.53066   41.58802   25.29448 
 C                     39.22605   39.9318   25.32061 
 C                     38.44019   40.90543   26.16112 
 C                     40.68485   39.90016   23.42374 
 C                     36.50102   42.29587   25.99311 
 H                     38.59924   39.09589   24.99327 
 H                     40.06581   39.54021   25.89807 
 H                     37.88636   40.36901   26.93517 
 H                     39.09666   41.63976   26.64193 
 H                     41.57666   39.75397   24.03455 
 H                     40.28016   38.93071   23.12301 
 H                     40.93244   40.48963   22.54408 
 H                     36.93689   43.05297   26.6491 
 H                     35.87086   42.77222   25.24529 
 H                     35.91425   41.59225   26.58514 
 O                     37.13344   40.77818   22.38907 
 O                     39.20354   42.13665   21.52887 
 C                     37.71667   40.32579   21.16041 
 C                     38.41907   41.49606   20.51782 
 C                     36.17343   39.86258   22.9333 
 C                     40.02993   43.16992   20.98893 
 H                     38.41787   39.51398   21.37767 
 H                     36.9364   39.95167   20.49383 
 H                     39.06837   41.13942   19.71472 
 H                     37.71571   42.22747   20.10065 
 H                     35.33306   39.76129   22.24356 
 H                     36.6372   38.88546   23.09308 
 H                     35.82953   40.27107   23.88175 
 H                     40.74251   42.741    20.28316 
 H                     39.39925   43.90635   20.48324 
 H                     40.55869   43.63489   21.8169 
 
 ITRead=  0  0  0  0  0  0  0  0  0  0  0  0  0  0  0  0  0  0  0  0
 ITRead=  0  0  0  0  0  0  0  0  0  0  0  0  0  0  0  0  0  0  0  0
 ITRead=  0  0  0  0  0  0  0  0  0
 MicOpt= -1 -1 -1 -1 -1 -1 -1 -1 -1 -1 -1 -1 -1 -1 -1 -1 -1 -1 -1 -1
 MicOpt= -1 -1 -1 -1 -1 -1 -1 -1 -1 -1 -1 -1 -1 -1 -1 -1 -1 -1 -1 -1
 MicOpt= -1 -1 -1 -1 -1 -1 -1 -1 -1
 NAtoms=     49 NQM=       49 NQMF=       0 NMMI=      0 NMMIF=      0
                NMic=       0 NMicF=      0.
                    Isotopes and Nuclear Properties:
 (Nuclear quadrupole moments (NQMom) in fm**2, nuclear magnetic moments (NMagM)
  in nuclear magnetons)

  Atom         1           2           3           4           5           6           7           8           9          10
 IAtWgt=          24          16          16          12          12          12          12           1           1           1
 AtmWgt=  23.9850450  15.9949146  15.9949146  12.0000000  12.0000000  12.0000000  12.0000000   1.0078250   1.0078250   1.0078250
 NucSpn=           0           0           0           0           0           0           0           1           1           1
 AtZEff=  -0.0000000  -0.0000000  -0.0000000  -0.0000000  -0.0000000  -0.0000000  -0.0000000  -0.0000000  -0.0000000  -0.0000000
 NQMom=    0.0000000   0.0000000   0.0000000   0.0000000   0.0000000   0.0000000   0.0000000   0.0000000   0.0000000   0.0000000
 NMagM=    0.0000000   0.0000000   0.0000000   0.0000000   0.0000000   0.0000000   0.0000000   2.7928460   2.7928460   2.7928460
 AtZNuc=  12.0000000   8.0000000   8.0000000   6.0000000   6.0000000   6.0000000   6.0000000   1.0000000   1.0000000   1.0000000

  Atom        11          12          13          14          15          16          17          18          19          20
 IAtWgt=           1           1           1           1           1           1           1          16          16          12
 AtmWgt=   1.0078250   1.0078250   1.0078250   1.0078250   1.0078250   1.0078250   1.0078250  15.9949146  15.9949146  12.0000000
 NucSpn=           1           1           1           1           1           1           1           0           0           0
 AtZEff=  -0.0000000  -0.0000000  -0.0000000  -0.0000000  -0.0000000  -0.0000000  -0.0000000  -0.0000000  -0.0000000  -0.0000000
 NQMom=    0.0000000   0.0000000   0.0000000   0.0000000   0.0000000   0.0000000   0.0000000   0.0000000   0.0000000   0.0000000
 NMagM=    2.7928460   2.7928460   2.7928460   2.7928460   2.7928460   2.7928460   2.7928460   0.0000000   0.0000000   0.0000000
 AtZNuc=   1.0000000   1.0000000   1.0000000   1.0000000   1.0000000   1.0000000   1.0000000   8.0000000   8.0000000   6.0000000

  Atom        21          22          23          24          25          26          27          28          29          30
 IAtWgt=          12          12          12           1           1           1           1           1           1           1
 AtmWgt=  12.0000000  12.0000000  12.0000000   1.0078250   1.0078250   1.0078250   1.0078250   1.0078250   1.0078250   1.0078250
 NucSpn=           0           0           0           1           1           1           1           1           1           1
 AtZEff=  -0.0000000  -0.0000000  -0.0000000  -0.0000000  -0.0000000  -0.0000000  -0.0000000  -0.0000000  -0.0000000  -0.0000000
 NQMom=    0.0000000   0.0000000   0.0000000   0.0000000   0.0000000   0.0000000   0.0000000   0.0000000   0.0000000   0.0000000
 NMagM=    0.0000000   0.0000000   0.0000000   2.7928460   2.7928460   2.7928460   2.7928460   2.7928460   2.7928460   2.7928460
 AtZNuc=   6.0000000   6.0000000   6.0000000   1.0000000   1.0000000   1.0000000   1.0000000   1.0000000   1.0000000   1.0000000

  Atom        31          32          33          34          35          36          37          38          39          40
 IAtWgt=           1           1           1          16          16          12          12          12          12           1
 AtmWgt=   1.0078250   1.0078250   1.0078250  15.9949146  15.9949146  12.0000000  12.0000000  12.0000000  12.0000000   1.0078250
 NucSpn=           1           1           1           0           0           0           0           0           0           1
 AtZEff=  -0.0000000  -0.0000000  -0.0000000  -0.0000000  -0.0000000  -0.0000000  -0.0000000  -0.0000000  -0.0000000  -0.0000000
 NQMom=    0.0000000   0.0000000   0.0000000   0.0000000   0.0000000   0.0000000   0.0000000   0.0000000   0.0000000   0.0000000
 NMagM=    2.7928460   2.7928460   2.7928460   0.0000000   0.0000000   0.0000000   0.0000000   0.0000000   0.0000000   2.7928460
 AtZNuc=   1.0000000   1.0000000   1.0000000   8.0000000   8.0000000   6.0000000   6.0000000   6.0000000   6.0000000   1.0000000

  Atom        41          42          43          44          45          46          47          48          49
 IAtWgt=           1           1           1           1           1           1           1           1           1
 AtmWgt=   1.0078250   1.0078250   1.0078250   1.0078250   1.0078250   1.0078250   1.0078250   1.0078250   1.0078250
 NucSpn=           1           1           1           1           1           1           1           1           1
 AtZEff=  -0.0000000  -0.0000000  -0.0000000  -0.0000000  -0.0000000  -0.0000000  -0.0000000  -0.0000000  -0.0000000
 NQMom=    0.0000000   0.0000000   0.0000000   0.0000000   0.0000000   0.0000000   0.0000000   0.0000000   0.0000000
 NMagM=    2.7928460   2.7928460   2.7928460   2.7928460   2.7928460   2.7928460   2.7928460   2.7928460   2.7928460
 AtZNuc=   1.0000000   1.0000000   1.0000000   1.0000000   1.0000000   1.0000000   1.0000000   1.0000000   1.0000000
 Leave Link  101 at Wed May 18 16:42:14 2022, MaxMem=  6039797760 cpu:              10.3 elap:               0.4
 (Enter /gpfs/software/gaussian/g16/l103.exe)

 GradGradGradGradGradGradGradGradGradGradGradGradGradGradGradGradGradGrad
 Berny optimization.
 Initialization pass.
                           ----------------------------
                           !    Initial Parameters    !
                           ! (Angstroms and Degrees)  !
 --------------------------                            --------------------------
 ! Name  Definition              Value          Derivative Info.                !
 --------------------------------------------------------------------------------
 ! R1    R(1,2)                  2.0998         calculate D2E/DX2 analytically  !
 ! R2    R(1,3)                  2.0944         calculate D2E/DX2 analytically  !
 ! R3    R(1,18)                 2.1033         calculate D2E/DX2 analytically  !
 ! R4    R(1,19)                 2.0857         calculate D2E/DX2 analytically  !
 ! R5    R(1,34)                 2.0917         calculate D2E/DX2 analytically  !
 ! R6    R(1,35)                 2.0968         calculate D2E/DX2 analytically  !
 ! R7    R(2,4)                  1.4299         calculate D2E/DX2 analytically  !
 ! R8    R(2,6)                  1.4298         calculate D2E/DX2 analytically  !
 ! R9    R(3,5)                  1.4305         calculate D2E/DX2 analytically  !
 ! R10   R(3,7)                  1.4326         calculate D2E/DX2 analytically  !
 ! R11   R(4,5)                  1.5075         calculate D2E/DX2 analytically  !
 ! R12   R(4,8)                  1.0947         calculate D2E/DX2 analytically  !
 ! R13   R(4,9)                  1.0924         calculate D2E/DX2 analytically  !
 ! R14   R(5,10)                 1.0918         calculate D2E/DX2 analytically  !
 ! R15   R(5,11)                 1.094          calculate D2E/DX2 analytically  !
 ! R16   R(6,12)                 1.0903         calculate D2E/DX2 analytically  !
 ! R17   R(6,13)                 1.0874         calculate D2E/DX2 analytically  !
 ! R18   R(6,14)                 1.091          calculate D2E/DX2 analytically  !
 ! R19   R(7,15)                 1.0881         calculate D2E/DX2 analytically  !
 ! R20   R(7,16)                 1.091          calculate D2E/DX2 analytically  !
 ! R21   R(7,17)                 1.092          calculate D2E/DX2 analytically  !
 ! R22   R(18,20)                1.432          calculate D2E/DX2 analytically  !
 ! R23   R(18,22)                1.4332         calculate D2E/DX2 analytically  !
 ! R24   R(19,21)                1.4298         calculate D2E/DX2 analytically  !
 ! R25   R(19,23)                1.4315         calculate D2E/DX2 analytically  !
 ! R26   R(20,21)                1.5073         calculate D2E/DX2 analytically  !
 ! R27   R(20,24)                1.0949         calculate D2E/DX2 analytically  !
 ! R28   R(20,25)                1.0918         calculate D2E/DX2 analytically  !
 ! R29   R(21,26)                1.0925         calculate D2E/DX2 analytically  !
 ! R30   R(21,27)                1.0961         calculate D2E/DX2 analytically  !
 ! R31   R(22,28)                1.0908         calculate D2E/DX2 analytically  !
 ! R32   R(22,29)                1.0927         calculate D2E/DX2 analytically  !
 ! R33   R(22,30)                1.0875         calculate D2E/DX2 analytically  !
 ! R34   R(23,31)                1.0925         calculate D2E/DX2 analytically  !
 ! R35   R(23,32)                1.0878         calculate D2E/DX2 analytically  !
 ! R36   R(23,33)                1.0908         calculate D2E/DX2 analytically  !
 ! R37   R(34,36)                1.4333         calculate D2E/DX2 analytically  !
 ! R38   R(34,38)                1.4339         calculate D2E/DX2 analytically  !
 ! R39   R(35,37)                1.4311         calculate D2E/DX2 analytically  !
 ! R40   R(35,39)                1.429          calculate D2E/DX2 analytically  !
 ! R41   R(36,37)                1.5086         calculate D2E/DX2 analytically  !
 ! R42   R(36,40)                1.0945         calculate D2E/DX2 analytically  !
 ! R43   R(36,41)                1.0923         calculate D2E/DX2 analytically  !
 ! R44   R(37,42)                1.0926         calculate D2E/DX2 analytically  !
 ! R45   R(37,43)                1.0971         calculate D2E/DX2 analytically  !
 ! R46   R(38,44)                1.0919         calculate D2E/DX2 analytically  !
 ! R47   R(38,45)                1.0933         calculate D2E/DX2 analytically  !
 ! R48   R(38,46)                1.0884         calculate D2E/DX2 analytically  !
 ! R49   R(39,47)                1.0908         calculate D2E/DX2 analytically  !
 ! R50   R(39,48)                1.0935         calculate D2E/DX2 analytically  !
 ! R51   R(39,49)                1.0869         calculate D2E/DX2 analytically  !
 ! A1    A(2,1,3)               77.3548         calculate D2E/DX2 analytically  !
 ! A2    A(2,1,19)              93.6293         calculate D2E/DX2 analytically  !
 ! A3    A(2,1,34)              94.5311         calculate D2E/DX2 analytically  !
 ! A4    A(2,1,35)              95.9429         calculate D2E/DX2 analytically  !
 ! A5    A(3,1,18)              92.8841         calculate D2E/DX2 analytically  !
 ! A6    A(3,1,19)              96.6342         calculate D2E/DX2 analytically  !
 ! A7    A(3,1,35)              93.5909         calculate D2E/DX2 analytically  !
 ! A8    A(18,1,19)             77.721          calculate D2E/DX2 analytically  !
 ! A9    A(18,1,34)             96.6293         calculate D2E/DX2 analytically  !
 ! A10   A(18,1,35)             94.2999         calculate D2E/DX2 analytically  !
 ! A11   A(19,1,34)             93.4812         calculate D2E/DX2 analytically  !
 ! A12   A(34,1,35)             77.4839         calculate D2E/DX2 analytically  !
 ! A13   A(1,2,4)              114.355          calculate D2E/DX2 analytically  !
 ! A14   A(1,2,6)              125.2961         calculate D2E/DX2 analytically  !
 ! A15   A(4,2,6)              113.0913         calculate D2E/DX2 analytically  !
 ! A16   A(1,3,5)              113.5063         calculate D2E/DX2 analytically  !
 ! A17   A(1,3,7)              127.2848         calculate D2E/DX2 analytically  !
 ! A18   A(5,3,7)              113.8243         calculate D2E/DX2 analytically  !
 ! A19   A(2,4,5)              107.7323         calculate D2E/DX2 analytically  !
 ! A20   A(2,4,8)              108.7623         calculate D2E/DX2 analytically  !
 ! A21   A(2,4,9)              110.0542         calculate D2E/DX2 analytically  !
 ! A22   A(5,4,8)              111.6347         calculate D2E/DX2 analytically  !
 ! A23   A(5,4,9)              109.8152         calculate D2E/DX2 analytically  !
 ! A24   A(8,4,9)              108.8266         calculate D2E/DX2 analytically  !
 ! A25   A(3,5,4)              107.7221         calculate D2E/DX2 analytically  !
 ! A26   A(3,5,10)             110.0327         calculate D2E/DX2 analytically  !
 ! A27   A(3,5,11)             109.0559         calculate D2E/DX2 analytically  !
 ! A28   A(4,5,10)             109.8577         calculate D2E/DX2 analytically  !
 ! A29   A(4,5,11)             111.3981         calculate D2E/DX2 analytically  !
 ! A30   A(10,5,11)            108.7628         calculate D2E/DX2 analytically  !
 ! A31   A(2,6,12)             109.6296         calculate D2E/DX2 analytically  !
 ! A32   A(2,6,13)             107.2572         calculate D2E/DX2 analytically  !
 ! A33   A(2,6,14)             109.6695         calculate D2E/DX2 analytically  !
 ! A34   A(12,6,13)            110.3753         calculate D2E/DX2 analytically  !
 ! A35   A(12,6,14)            110.1657         calculate D2E/DX2 analytically  !
 ! A36   A(13,6,14)            109.6941         calculate D2E/DX2 analytically  !
 ! A37   A(3,7,15)             107.5793         calculate D2E/DX2 analytically  !
 ! A38   A(3,7,16)             109.5061         calculate D2E/DX2 analytically  !
 ! A39   A(3,7,17)             109.9415         calculate D2E/DX2 analytically  !
 ! A40   A(15,7,16)            110.0096         calculate D2E/DX2 analytically  !
 ! A41   A(15,7,17)            110.167          calculate D2E/DX2 analytically  !
 ! A42   A(16,7,17)            109.6097         calculate D2E/DX2 analytically  !
 ! A43   A(1,18,20)            113.6153         calculate D2E/DX2 analytically  !
 ! A44   A(1,18,22)            127.688          calculate D2E/DX2 analytically  !
 ! A45   A(20,18,22)           113.2842         calculate D2E/DX2 analytically  !
 ! A46   A(1,19,21)            113.2691         calculate D2E/DX2 analytically  !
 ! A47   A(1,19,23)            126.944          calculate D2E/DX2 analytically  !
 ! A48   A(21,19,23)           113.4404         calculate D2E/DX2 analytically  !
 ! A49   A(18,20,21)           107.8003         calculate D2E/DX2 analytically  !
 ! A50   A(18,20,24)           109.1007         calculate D2E/DX2 analytically  !
 ! A51   A(18,20,25)           110.0589         calculate D2E/DX2 analytically  !
 ! A52   A(21,20,24)           111.1855         calculate D2E/DX2 analytically  !
 ! A53   A(21,20,25)           109.7404         calculate D2E/DX2 analytically  !
 ! A54   A(24,20,25)           108.9431         calculate D2E/DX2 analytically  !
 ! A55   A(19,21,20)           107.5799         calculate D2E/DX2 analytically  !
 ! A56   A(19,21,26)           109.9611         calculate D2E/DX2 analytically  !
 ! A57   A(19,21,27)           109.0895         calculate D2E/DX2 analytically  !
 ! A58   A(20,21,26)           110.0119         calculate D2E/DX2 analytically  !
 ! A59   A(20,21,27)           111.4139         calculate D2E/DX2 analytically  !
 ! A60   A(26,21,27)           108.7699         calculate D2E/DX2 analytically  !
 ! A61   A(18,22,28)           109.579          calculate D2E/DX2 analytically  !
 ! A62   A(18,22,29)           110.2343         calculate D2E/DX2 analytically  !
 ! A63   A(18,22,30)           107.3577         calculate D2E/DX2 analytically  !
 ! A64   A(28,22,29)           109.7552         calculate D2E/DX2 analytically  !
 ! A65   A(28,22,30)           109.8445         calculate D2E/DX2 analytically  !
 ! A66   A(29,22,30)           110.0362         calculate D2E/DX2 analytically  !
 ! A67   A(19,23,31)           110.4109         calculate D2E/DX2 analytically  !
 ! A68   A(19,23,32)           107.3194         calculate D2E/DX2 analytically  !
 ! A69   A(19,23,33)           109.4403         calculate D2E/DX2 analytically  !
 ! A70   A(31,23,32)           109.9045         calculate D2E/DX2 analytically  !
 ! A71   A(31,23,33)           109.6177         calculate D2E/DX2 analytically  !
 ! A72   A(32,23,33)           110.119          calculate D2E/DX2 analytically  !
 ! A73   A(1,34,36)            113.1525         calculate D2E/DX2 analytically  !
 ! A74   A(1,34,38)            127.0831         calculate D2E/DX2 analytically  !
 ! A75   A(36,34,38)           113.3433         calculate D2E/DX2 analytically  !
 ! A76   A(1,35,37)            114.8065         calculate D2E/DX2 analytically  !
 ! A77   A(1,35,39)            126.3597         calculate D2E/DX2 analytically  !
 ! A78   A(37,35,39)           111.9452         calculate D2E/DX2 analytically  !
 ! A79   A(34,36,37)           108.0441         calculate D2E/DX2 analytically  !
 ! A80   A(34,36,40)           108.9434         calculate D2E/DX2 analytically  !
 ! A81   A(34,36,41)           109.9102         calculate D2E/DX2 analytically  !
 ! A82   A(37,36,40)           111.201          calculate D2E/DX2 analytically  !
 ! A83   A(37,36,41)           109.7766         calculate D2E/DX2 analytically  !
 ! A84   A(40,36,41)           108.9503         calculate D2E/DX2 analytically  !
 ! A85   A(35,37,36)           107.5499         calculate D2E/DX2 analytically  !
 ! A86   A(35,37,42)           109.856          calculate D2E/DX2 analytically  !
 ! A87   A(35,37,43)           108.7627         calculate D2E/DX2 analytically  !
 ! A88   A(36,37,42)           109.6681         calculate D2E/DX2 analytically  !
 ! A89   A(36,37,43)           112.3719         calculate D2E/DX2 analytically  !
 ! A90   A(42,37,43)           108.609          calculate D2E/DX2 analytically  !
 ! A91   A(34,38,44)           109.558          calculate D2E/DX2 analytically  !
 ! A92   A(34,38,45)           110.0069         calculate D2E/DX2 analytically  !
 ! A93   A(34,38,46)           107.6156         calculate D2E/DX2 analytically  !
 ! A94   A(44,38,45)           109.6259         calculate D2E/DX2 analytically  !
 ! A95   A(44,38,46)           110.0038         calculate D2E/DX2 analytically  !
 ! A96   A(45,38,46)           110.0042         calculate D2E/DX2 analytically  !
 ! A97   A(35,39,47)           109.7505         calculate D2E/DX2 analytically  !
 ! A98   A(35,39,48)           109.156          calculate D2E/DX2 analytically  !
 ! A99   A(35,39,49)           107.6269         calculate D2E/DX2 analytically  !
 ! A100  A(47,39,48)           110.0212         calculate D2E/DX2 analytically  !
 ! A101  A(47,39,49)           110.0786         calculate D2E/DX2 analytically  !
 ! A102  A(48,39,49)           110.1669         calculate D2E/DX2 analytically  !
 ! A103  L(2,1,18,3,-1)        170.2389         calculate D2E/DX2 analytically  !
 ! A104  L(3,1,34,2,-1)        171.8859         calculate D2E/DX2 analytically  !
 ! A105  L(19,1,35,2,-1)       189.5721         calculate D2E/DX2 analytically  !
 ! A106  L(2,1,18,3,-2)        170.212          calculate D2E/DX2 analytically  !
 ! A107  L(3,1,34,2,-2)        170.2191         calculate D2E/DX2 analytically  !
 ! A108  L(19,1,35,2,-2)       188.3533         calculate D2E/DX2 analytically  !
 ! D1    D(3,1,2,4)             11.4348         calculate D2E/DX2 analytically  !
 ! D2    D(3,1,2,6)            159.4226         calculate D2E/DX2 analytically  !
 ! D3    D(19,1,2,4)           107.428          calculate D2E/DX2 analytically  !
 ! D4    D(19,1,2,6)          -104.5842         calculate D2E/DX2 analytically  !
 ! D5    D(34,1,2,4)          -158.7844         calculate D2E/DX2 analytically  !
 ! D6    D(34,1,2,6)           -10.7965         calculate D2E/DX2 analytically  !
 ! D7    D(35,1,2,4)           -80.9254         calculate D2E/DX2 analytically  !
 ! D8    D(35,1,2,6)            67.0624         calculate D2E/DX2 analytically  !
 ! D9    D(2,1,3,5)             16.5891         calculate D2E/DX2 analytically  !
 ! D10   D(2,1,3,7)            168.8143         calculate D2E/DX2 analytically  !
 ! D11   D(18,1,3,5)          -153.6229         calculate D2E/DX2 analytically  !
 ! D12   D(18,1,3,7)            -1.3977         calculate D2E/DX2 analytically  !
 ! D13   D(19,1,3,5)           -75.6584         calculate D2E/DX2 analytically  !
 ! D14   D(19,1,3,7)            76.5668         calculate D2E/DX2 analytically  !
 ! D15   D(35,1,3,5)           111.8816         calculate D2E/DX2 analytically  !
 ! D16   D(35,1,3,7)           -95.8932         calculate D2E/DX2 analytically  !
 ! D17   D(3,1,18,20)          107.444          calculate D2E/DX2 analytically  !
 ! D18   D(3,1,18,22)         -100.5574         calculate D2E/DX2 analytically  !
 ! D19   D(19,1,18,20)          11.2774         calculate D2E/DX2 analytically  !
 ! D20   D(19,1,18,22)         163.276          calculate D2E/DX2 analytically  !
 ! D21   D(34,1,18,20)         -80.8582         calculate D2E/DX2 analytically  !
 ! D22   D(34,1,18,22)          71.1404         calculate D2E/DX2 analytically  !
 ! D23   D(35,1,18,20)        -158.7329         calculate D2E/DX2 analytically  !
 ! D24   D(35,1,18,22)          -6.7343         calculate D2E/DX2 analytically  !
 ! D25   D(2,1,19,21)         -152.1125         calculate D2E/DX2 analytically  !
 ! D26   D(2,1,19,23)           -2.2085         calculate D2E/DX2 analytically  !
 ! D27   D(3,1,19,21)          -74.4374         calculate D2E/DX2 analytically  !
 ! D28   D(3,1,19,23)           75.4666         calculate D2E/DX2 analytically  !
 ! D29   D(18,1,19,21)          17.0827         calculate D2E/DX2 analytically  !
 ! D30   D(18,1,19,23)         166.9867         calculate D2E/DX2 analytically  !
 ! D31   D(34,1,19,21)         113.1171         calculate D2E/DX2 analytically  !
 ! D32   D(34,1,19,23)         -96.9789         calculate D2E/DX2 analytically  !
 ! D33   D(2,1,34,36)          112.6256         calculate D2E/DX2 analytically  !
 ! D34   D(2,1,34,38)          -97.6737         calculate D2E/DX2 analytically  !
 ! D35   D(18,1,34,36)         -75.4219         calculate D2E/DX2 analytically  !
 ! D36   D(18,1,34,38)          74.2788         calculate D2E/DX2 analytically  !
 ! D37   D(19,1,34,36)        -153.4502         calculate D2E/DX2 analytically  !
 ! D38   D(19,1,34,38)          -3.7495         calculate D2E/DX2 analytically  !
 ! D39   D(35,1,34,36)          17.5312         calculate D2E/DX2 analytically  !
 ! D40   D(35,1,34,38)         167.2319         calculate D2E/DX2 analytically  !
 ! D41   D(2,1,35,37)          -83.2106         calculate D2E/DX2 analytically  !
 ! D42   D(2,1,35,39)           65.1652         calculate D2E/DX2 analytically  !
 ! D43   D(3,1,35,37)         -160.854          calculate D2E/DX2 analytically  !
 ! D44   D(3,1,35,39)          -12.4781         calculate D2E/DX2 analytically  !
 ! D45   D(18,1,35,37)         105.9773         calculate D2E/DX2 analytically  !
 ! D46   D(18,1,35,39)        -105.6468         calculate D2E/DX2 analytically  !
 ! D47   D(34,1,35,37)          10.1289         calculate D2E/DX2 analytically  !
 ! D48   D(34,1,35,39)         158.5047         calculate D2E/DX2 analytically  !
 ! D49   D(1,2,4,5)            -35.2169         calculate D2E/DX2 analytically  !
 ! D50   D(1,2,4,8)             85.9426         calculate D2E/DX2 analytically  !
 ! D51   D(1,2,4,9)           -154.9258         calculate D2E/DX2 analytically  !
 ! D52   D(6,2,4,5)            172.8394         calculate D2E/DX2 analytically  !
 ! D53   D(6,2,4,8)            -66.0011         calculate D2E/DX2 analytically  !
 ! D54   D(6,2,4,9)             53.1304         calculate D2E/DX2 analytically  !
 ! D55   D(1,2,6,12)           -88.3754         calculate D2E/DX2 analytically  !
 ! D56   D(1,2,6,13)            31.4839         calculate D2E/DX2 analytically  !
 ! D57   D(1,2,6,14)           150.5484         calculate D2E/DX2 analytically  !
 ! D58   D(4,2,6,12)            59.9572         calculate D2E/DX2 analytically  !
 ! D59   D(4,2,6,13)           179.8166         calculate D2E/DX2 analytically  !
 ! D60   D(4,2,6,14)           -61.119          calculate D2E/DX2 analytically  !
 ! D61   D(1,3,5,4)            -39.6828         calculate D2E/DX2 analytically  !
 ! D62   D(1,3,5,10)          -159.4246         calculate D2E/DX2 analytically  !
 ! D63   D(1,3,5,11)            81.3556         calculate D2E/DX2 analytically  !
 ! D64   D(7,3,5,4)            164.2271         calculate D2E/DX2 analytically  !
 ! D65   D(7,3,5,10)            44.4853         calculate D2E/DX2 analytically  !
 ! D66   D(7,3,5,11)           -74.7345         calculate D2E/DX2 analytically  !
 ! D67   D(1,3,7,15)            27.691          calculate D2E/DX2 analytically  !
 ! D68   D(1,3,7,16)           147.2307         calculate D2E/DX2 analytically  !
 ! D69   D(1,3,7,17)           -92.2866         calculate D2E/DX2 analytically  !
 ! D70   D(5,3,7,15)           179.8427         calculate D2E/DX2 analytically  !
 ! D71   D(5,3,7,16)           -60.6176         calculate D2E/DX2 analytically  !
 ! D72   D(5,3,7,17)            59.8651         calculate D2E/DX2 analytically  !
 ! D73   D(2,4,5,3)             47.6859         calculate D2E/DX2 analytically  !
 ! D74   D(2,4,5,10)           167.5386         calculate D2E/DX2 analytically  !
 ! D75   D(2,4,5,11)           -71.8755         calculate D2E/DX2 analytically  !
 ! D76   D(8,4,5,3)            -71.6616         calculate D2E/DX2 analytically  !
 ! D77   D(8,4,5,10)            48.1912         calculate D2E/DX2 analytically  !
 ! D78   D(8,4,5,11)           168.777          calculate D2E/DX2 analytically  !
 ! D79   D(9,4,5,3)            167.5463         calculate D2E/DX2 analytically  !
 ! D80   D(9,4,5,10)           -72.6009         calculate D2E/DX2 analytically  !
 ! D81   D(9,4,5,11)            47.9849         calculate D2E/DX2 analytically  !
 ! D82   D(1,18,20,21)         -35.463          calculate D2E/DX2 analytically  !
 ! D83   D(1,18,20,24)          85.3914         calculate D2E/DX2 analytically  !
 ! D84   D(1,18,20,25)        -155.1251         calculate D2E/DX2 analytically  !
 ! D85   D(22,18,20,21)        168.3953         calculate D2E/DX2 analytically  !
 ! D86   D(22,18,20,24)        -70.7503         calculate D2E/DX2 analytically  !
 ! D87   D(22,18,20,25)         48.7332         calculate D2E/DX2 analytically  !
 ! D88   D(1,18,22,28)         143.5102         calculate D2E/DX2 analytically  !
 ! D89   D(1,18,22,29)         -95.5964         calculate D2E/DX2 analytically  !
 ! D90   D(1,18,22,30)          24.2573         calculate D2E/DX2 analytically  !
 ! D91   D(20,18,22,28)        -64.415          calculate D2E/DX2 analytically  !
 ! D92   D(20,18,22,29)         56.4785         calculate D2E/DX2 analytically  !
 ! D93   D(20,18,22,30)        176.3322         calculate D2E/DX2 analytically  !
 ! D94   D(1,19,21,20)         -40.5026         calculate D2E/DX2 analytically  !
 ! D95   D(1,19,21,26)        -160.3043         calculate D2E/DX2 analytically  !
 ! D96   D(1,19,21,27)          80.4898         calculate D2E/DX2 analytically  !
 ! D97   D(23,19,21,20)        165.3986         calculate D2E/DX2 analytically  !
 ! D98   D(23,19,21,26)         45.5969         calculate D2E/DX2 analytically  !
 ! D99   D(23,19,21,27)        -73.6091         calculate D2E/DX2 analytically  !
 ! D100  D(1,19,23,31)         -89.5314         calculate D2E/DX2 analytically  !
 ! D101  D(1,19,23,32)          30.2408         calculate D2E/DX2 analytically  !
 ! D102  D(1,19,23,33)         149.723          calculate D2E/DX2 analytically  !
 ! D103  D(21,19,23,31)         60.3297         calculate D2E/DX2 analytically  !
 ! D104  D(21,19,23,32)       -179.8982         calculate D2E/DX2 analytically  !
 ! D105  D(21,19,23,33)        -60.416          calculate D2E/DX2 analytically  !
 ! D106  D(18,20,21,19)         48.5864         calculate D2E/DX2 analytically  !
 ! D107  D(18,20,21,26)        168.3559         calculate D2E/DX2 analytically  !
 ! D108  D(18,20,21,27)        -70.9357         calculate D2E/DX2 analytically  !
 ! D109  D(24,20,21,19)        -70.9539         calculate D2E/DX2 analytically  !
 ! D110  D(24,20,21,26)         48.8156         calculate D2E/DX2 analytically  !
 ! D111  D(24,20,21,27)        169.524          calculate D2E/DX2 analytically  !
 ! D112  D(25,20,21,19)        168.4501         calculate D2E/DX2 analytically  !
 ! D113  D(25,20,21,26)        -71.7805         calculate D2E/DX2 analytically  !
 ! D114  D(25,20,21,27)         48.928          calculate D2E/DX2 analytically  !
 ! D115  D(1,34,36,37)         -40.2878         calculate D2E/DX2 analytically  !
 ! D116  D(1,34,36,40)          80.6387         calculate D2E/DX2 analytically  !
 ! D117  D(1,34,36,41)        -160.0546         calculate D2E/DX2 analytically  !
 ! D118  D(38,34,36,37)        165.7118         calculate D2E/DX2 analytically  !
 ! D119  D(38,34,36,40)        -73.3616         calculate D2E/DX2 analytically  !
 ! D120  D(38,34,36,41)         45.9451         calculate D2E/DX2 analytically  !
 ! D121  D(1,34,38,44)         147.1586         calculate D2E/DX2 analytically  !
 ! D122  D(1,34,38,45)         -92.265          calculate D2E/DX2 analytically  !
 ! D123  D(1,34,38,46)          27.5751         calculate D2E/DX2 analytically  !
 ! D124  D(36,34,38,44)        -63.1886         calculate D2E/DX2 analytically  !
 ! D125  D(36,34,38,45)         57.3878         calculate D2E/DX2 analytically  !
 ! D126  D(36,34,38,46)        177.2279         calculate D2E/DX2 analytically  !
 ! D127  D(1,35,37,36)         -33.7328         calculate D2E/DX2 analytically  !
 ! D128  D(1,35,37,42)        -153.0421         calculate D2E/DX2 analytically  !
 ! D129  D(1,35,37,43)          88.2074         calculate D2E/DX2 analytically  !
 ! D130  D(39,35,37,36)        173.348          calculate D2E/DX2 analytically  !
 ! D131  D(39,35,37,42)         54.0387         calculate D2E/DX2 analytically  !
 ! D132  D(39,35,37,43)        -64.7118         calculate D2E/DX2 analytically  !
 ! D133  D(1,35,39,47)         148.2427         calculate D2E/DX2 analytically  !
 ! D134  D(1,35,39,48)         -91.1059         calculate D2E/DX2 analytically  !
 ! D135  D(1,35,39,49)          28.453          calculate D2E/DX2 analytically  !
 ! D136  D(37,35,39,47)        -62.6308         calculate D2E/DX2 analytically  !
 ! D137  D(37,35,39,48)         58.0206         calculate D2E/DX2 analytically  !
 ! D138  D(37,35,39,49)        177.5795         calculate D2E/DX2 analytically  !
 ! D139  D(34,36,37,35)         47.0888         calculate D2E/DX2 analytically  !
 ! D140  D(34,36,37,42)        166.5181         calculate D2E/DX2 analytically  !
 ! D141  D(34,36,37,43)        -72.5796         calculate D2E/DX2 analytically  !
 ! D142  D(40,36,37,35)        -72.4213         calculate D2E/DX2 analytically  !
 ! D143  D(40,36,37,42)         47.008          calculate D2E/DX2 analytically  !
 ! D144  D(40,36,37,43)        167.9104         calculate D2E/DX2 analytically  !
 ! D145  D(41,36,37,35)        166.9397         calculate D2E/DX2 analytically  !
 ! D146  D(41,36,37,42)        -73.631          calculate D2E/DX2 analytically  !
 ! D147  D(41,36,37,43)         47.2713         calculate D2E/DX2 analytically  !
 --------------------------------------------------------------------------------
 Trust Radius=3.00D-01 FncErr=5.00D-06 GrdErr=5.00D-06 EigMax=2.50D+02 EigMin=1.00D-04
 Number of steps in this run=    294 maximum allowed number of steps=    294.
 GradGradGradGradGradGradGradGradGradGradGradGradGradGradGradGradGradGrad

 Leave Link  103 at Wed May 18 16:42:14 2022, MaxMem=  6039797760 cpu:               0.9 elap:               0.1
 (Enter /gpfs/software/gaussian/g16/l202.exe)
                          Input orientation:                          
 ---------------------------------------------------------------------
 Center     Atomic      Atomic             Coordinates (Angstroms)
 Number     Number       Type             X           Y           Z
 ---------------------------------------------------------------------
      1         12           0       38.368301   42.090174   23.451563
      2          8           0       37.113609   43.752418   23.183780
      3          8           0       39.550273   43.673452   24.146353
      4          6           0       37.765911   45.015063   23.341397
      5          6           0       38.805391   44.863050   24.422604
      6          6           0       35.992516   43.807108   22.298046
      7          6           0       40.784971   43.583346   24.867190
      8          1           0       38.216621   45.300288   22.385449
      9          1           0       37.039792   45.778324   23.630471
     10          1           0       39.470169   45.729101   24.422335
     11          1           0       38.343756   44.774104   25.410442
     12          1           0       36.321129   44.133462   21.311001
     13          1           0       35.573752   42.804997   22.245480
     14          1           0       35.245736   44.497386   22.693097
     15          1           0       41.262553   42.647202   24.585240
     16          1           0       41.425572   44.424814   24.599097
     17          1           0       40.590859   43.598283   25.941736
     18          8           0       39.706946   40.635608   24.169899
     19          8           0       37.530662   41.588021   25.294479
     20          6           0       39.226048   39.931804   25.320610
     21          6           0       38.440188   40.905433   26.161124
     22          6           0       40.684846   39.900160   23.423742
     23          6           0       36.501019   42.295867   25.993108
     24          1           0       38.599238   39.095893   24.993268
     25          1           0       40.065808   39.540211   25.898067
     26          1           0       37.886365   40.369015   26.935171
     27          1           0       39.096657   41.639760   26.641926
     28          1           0       41.576655   39.753975   24.034551
     29          1           0       40.280161   38.930705   23.123015
     30          1           0       40.932440   40.489634   22.544083
     31          1           0       36.936889   43.052974   26.649103
     32          1           0       35.870862   42.772217   25.245288
     33          1           0       35.914248   41.592248   26.585136
     34          8           0       37.133440   40.778178   22.389068
     35          8           0       39.203543   42.136652   21.528868
     36          6           0       37.716669   40.325789   21.160407
     37          6           0       38.419072   41.496064   20.517817
     38          6           0       36.173429   39.862584   22.933301
     39          6           0       40.029934   43.169922   20.988926
     40          1           0       38.417871   39.513982   21.377668
     41          1           0       36.936398   39.951674   20.493831
     42          1           0       39.068371   41.139418   19.714717
     43          1           0       37.715707   42.227470   20.100652
     44          1           0       35.333055   39.761295   22.243564
     45          1           0       36.637196   38.885463   23.093076
     46          1           0       35.829526   40.271069   23.881750
     47          1           0       40.742505   42.741003   20.283157
     48          1           0       39.399248   43.906355   20.483244
     49          1           0       40.558690   43.634886   21.816904
 ---------------------------------------------------------------------
                    Distance matrix (angstroms):
                    1          2          3          4          5
     1  Mg   0.000000
     2  O    2.099765   0.000000
     3  O    2.094412   2.621090   0.000000
     4  C    2.988308   1.429900   2.373146   0.000000
     5  C    2.970321   2.372828   1.430492   1.507526   0.000000
     6  C    3.150051   1.429813   4.011451   2.385931   3.679813
     7  C    3.173934   4.042444   1.432552   3.673225   2.398757
     8  H    3.385918   2.061521   2.743357   1.094682   2.165139
     9  H    3.924206   2.075880   3.316494   1.092419   2.140687
    10  H    3.924067   3.315821   2.075639   2.140741   1.091776
    11  H    3.322844   2.741373   2.065197   2.161692   1.094003
    12  H    3.598325   2.068942   4.321828   2.643317   4.047954
    13  H    3.126518   2.036952   4.492243   3.300150   4.406693
    14  H    4.015016   2.069951   4.617343   2.653218   3.974424
    15  H    3.157879   4.516562   2.043946   4.402319   3.312715
    16  H    4.014260   4.587839   2.070330   3.914501   2.662433
    17  H    3.662665   4.440872   2.076504   4.092598   2.663699
    18  O    2.103269   4.172809   3.041973   4.861446   4.329888
    19  O    2.085698   3.051819   3.121866   3.951517   3.620900
    20  C    2.981212   4.860610   3.934963   5.647017   5.029966
    21  C    2.958124   4.327784   3.599100   5.029371   4.338036
    22  C    3.187996   5.258442   4.005890   5.889753   5.400033
    23  C    3.160459   3.223218   3.821805   4.003192   3.790388
    24  H    3.375782   5.211964   4.751398   6.201587   5.798988
    25  H    3.920360   5.815971   4.518624   6.465299   5.665532
    26  H    3.915377   5.110529   4.633077   5.874988   5.230101
    27  H    3.303300   4.511605   3.251085   4.904798   3.924261
    28  H    4.011388   6.052284   4.413731   6.533091   5.825216
    29  H    3.707478   5.768853   4.906486   6.586999   6.249528
    30  H    3.155956   5.063442   3.822872   5.580513   5.213439
    31  H    3.633206   3.539621   3.671311   3.934208   3.424175
    32  H    3.149577   2.599044   3.944356   3.499481   3.695924
    33  H    4.011183   4.204049   4.847654   5.066178   4.871694
    34  O    2.091677   3.078646   4.160738   4.388410   4.859719
    35  O    2.096794   3.117252   3.055029   3.692871   3.995683
    36  C    2.964300   4.024861   4.846114   5.171889   5.693328
    37  C    2.993728   3.728636   4.380286   4.558791   5.170416
    38  C    3.169892   4.009674   5.234242   5.408381   5.843792
    39  C    3.160927   3.696165   3.233104   3.750262   4.019494
    40  H    3.307607   4.788265   5.123392   5.877344   6.167198
    41  H    3.920677   4.659709   5.833086   5.868103   6.561250
    42  H    3.918935   4.762695   5.127666   5.465330   6.008227
    43  H    3.416626   3.491943   4.671637   4.275000   5.178123
    44  H    4.011939   4.470284   6.058920   5.892886   6.544711
    45  H    3.659974   4.891058   5.702653   6.237600   6.496173
    46  H    3.152710   3.775688   5.048780   5.152383   5.498598
    47  H    4.012383   4.754520   4.149116   4.835731   5.038900
    48  H    3.629364   3.541290   3.673611   3.473624   4.097132
    49  H    3.139435   3.708200   2.538646   3.468225   3.372257
                    6          7          8          9         10
     6  C    0.000000
     7  C    5.442260   0.000000
     8  H    2.680274   3.962745   0.000000
     9  H    2.599584   4.513731   1.778630   0.000000
    10  H    4.505633   2.555556   2.429849   2.556600   0.000000
    11  H    4.018758   2.769938   3.073047   2.424268   1.776846
    12  H    1.090299   5.733672   2.471601   2.932915   4.705626
    13  H    1.087361   5.885235   3.637420   3.592791   5.335836
    14  H    1.090976   6.020405   3.092807   2.395435   4.727919
    15  H    5.860881   1.088093   4.599527   5.342960   3.568933
    16  H    5.932495   1.091014   3.995505   4.690980   2.357119
    17  H    5.870677   1.092040   4.602283   4.764935   2.846913
    18  O    5.230606   3.215200   5.211964   5.818266   5.105238
    19  O    4.033466   3.841149   4.765912   4.535252   4.655198
    20  C    5.882993   3.996197   6.201188   6.466690   5.871554
    21  C    5.416104   3.787280   5.798315   5.666602   5.229916
    22  C    6.208816   3.957199   6.027567   6.919680   6.037316
    23  C    4.024414   4.612758   4.998504   4.242621   4.803153
    24  H    6.021193   4.993051   6.741041   6.995997   6.714457
    25  H    6.910736   4.234010   6.995460   7.294712   6.390221
    26  H    6.075366   4.796914   6.717626   6.395182   6.128075
    27  H    5.762151   3.126918   5.682563   5.516092   4.667848
    28  H    7.115191   3.998016   6.691110   7.552429   6.347424
    29  H    6.545516   4.994402   6.736007   7.592588   6.968680
    30  H    5.955587   3.871644   5.526593   6.656064   5.754831
    31  H    4.515779   4.273669   4.986670   4.068201   4.305538
    32  H    3.126025   4.994933   4.480224   3.607036   4.730267
    33  H    4.826062   5.535319   6.057050   5.245963   5.868205
    34  O    3.237964   5.229124   4.650029   5.152796   5.840044
    35  O    3.700372   3.967144   3.422914   4.728671   4.620490
    36  C    4.048025   5.810886   5.147458   6.024078   6.550627
    37  C    3.794511   5.373199   4.242777   5.470720   5.853945
    38  C    3.999443   6.233002   5.834672   6.019353   6.892151
    39  C    4.291916   3.972648   3.126794   4.766809   4.318684
    40  H    5.016012   5.860004   5.876858   6.798250   7.000359
    41  H    4.360100   6.864898   5.815914   6.618085   7.431810
    42  H    4.821933   5.955458   5.017083   6.400602   6.586979
    43  H    3.208299   5.829122   3.861790   5.052232   5.832367
    44  H    4.099568   7.156457   6.246241   6.406333   7.581389
    45  H    5.026955   6.513188   6.644193   6.925490   7.525161
    46  H    3.877919   6.041416   5.764563   5.644266   6.583056
    47  H    5.268658   4.660977   4.165292   5.842937   5.261213
    48  H    3.861241   4.609072   2.638189   4.356184   4.340953
    49  H    4.594682   3.059102   2.929521   4.501777   3.515521
                   11         12         13         14         15
    11  H    0.000000
    12  H    4.615935   0.000000
    13  H    4.644060   1.787916   0.000000
    14  H    4.130165   1.788603   1.781049   0.000000
    15  H    3.704598   6.111242   6.153197   6.573087   0.000000
    16  H    3.205912   6.078799   6.512075   6.467494   1.785125
    17  H    2.591197   6.321449   6.281956   6.319207   1.787683
    18  O    4.530384   5.645532   5.049052   6.082489   2.576612
    19  O    3.290242   4.879584   3.821900   4.522442   3.943589
    20  C    4.922842   6.493801   5.572336   6.602367   3.472968
    21  C    3.942009   6.199538   5.211244   5.927382   3.671909
    22  C    5.760470   6.436346   5.995804   7.159067   3.037937
    23  C    3.142744   5.033015   3.894066   4.160829   4.977724
    24  H    5.699244   6.642738   5.519181   6.761131   4.457749
    25  H    5.531444   7.494114   6.646712   7.620926   3.578981
    26  H    4.683889   6.946388   5.768482   6.481633   4.702229
    27  H    3.450728   6.506986   5.753032   6.211994   3.152142
    28  H    6.127512   7.363300   6.967378   8.023714   2.961871
    29  H    6.567138   6.784247   6.158774   7.517859   4.112851
    30  H    5.768360   6.005178   5.845135   6.958655   2.988377
    31  H    2.544768   5.481054   4.616441   4.538316   4.809943
    32  H    3.185912   4.187403   3.014664   3.143353   5.433381
    33  H    4.172124   5.868545   4.518773   4.902520   5.806624
    34  O    5.153736   3.616629   2.561492   4.181910   5.036467
    35  O    4.770954   3.513264   3.759734   4.753181   3.720429
    36  C    6.184136   4.058150   3.451949   5.084965   5.449012
    37  C    5.889737   3.462134   3.576866   4.879533   5.094549
    38  C    5.913508   4.571003   3.080666   4.732832   6.031764
    39  C    4.996639   3.845436   4.644314   5.249277   3.837455
    40  H    6.628548   5.073497   4.435413   6.052033   5.310160
    41  H    7.029193   4.305075   3.614766   5.325280   6.536139
    42  H    6.795388   4.365749   4.625070   5.895696   5.550661
    43  H    5.922302   2.653789   3.085741   4.239581   5.733046
    44  H    6.649939   4.578407   3.053205   4.758178   6.997918
    45  H    6.554283   5.551323   4.148744   5.795673   6.145825
    46  H    5.379180   4.665673   3.027142   4.428935   5.971490
    47  H    6.014694   4.748049   5.529088   6.253572   4.334417
    48  H    5.113153   3.195556   4.353491   4.741775   4.678006
    49  H    4.372330   4.296678   5.071686   5.453357   3.022355
                   16         17         18         19         20
    16  H    0.000000
    17  H    1.783978   0.000000
    18  O    4.182818   3.563447   0.000000
    19  O    4.868395   3.718185   2.628304   0.000000
    20  C    5.054268   3.961259   1.432040   2.370247   0.000000
    21  C    4.872216   3.453253   2.375386   1.429768   1.507313
    22  C    4.733141   4.474957   1.433151   4.037005   2.393157
    23  C    5.543185   4.292519   4.044567   1.431535   3.669718
    24  H    6.044910   5.013747   2.067771   2.728238   1.094893
    25  H    5.234083   4.092131   2.077316   3.314334   1.091787
    26  H    5.867941   4.327745   3.321493   2.074698   2.143061
    27  H    4.165756   2.560999   2.737095   2.066550   2.163269
    28  H    4.707258   4.403164   2.071571   4.617489   2.685316
    29  H    5.803104   5.461502   2.081162   4.397309   2.634915
    30  H    4.466755   4.617837   2.041181   4.510347   3.306365
    31  H    5.121791   3.761546   4.434335   2.081744   4.092291
    32  H    5.831247   4.842086   4.520741   2.039528   4.396691
    33  H    6.507109   5.129213   4.597074   2.068480   3.914603
    34  O    6.050172   5.703349   3.132829   3.042210   3.699905
    35  O    4.427121   4.851228   3.079219   4.156844   4.386248
    36  C    6.510189   6.467712   3.621358   4.326474   4.443055
    37  C    5.854354   6.209258   3.966952   4.859447   5.115168
    38  C    7.153588   6.520722   3.822628   3.224031   3.875889
    39  C    4.068893   5.002845   4.079909   5.223654   5.467644
    40  H    6.598495   6.498777   3.273578   4.519976   4.046544
    41  H    7.550819   7.505499   4.653727   5.106565   5.342348
    42  H    6.340930   6.865840   4.528824   5.805130   5.736657
    43  H    6.231166   6.653111   4.801857   5.236313   5.899082
    44  H    8.025940   7.486218   4.858612   4.180250   4.965147
    45  H    7.475363   6.779158   3.694038   3.598371   3.571959
    46  H    7.005991   6.163131   3.905164   2.573719   3.704292
    47  H    4.682856   5.725159   4.540026   6.062891   5.963822
    48  H    4.616821   5.595532   4.938005   5.658115   6.263159
    49  H    3.019283   4.125120   3.906113   5.045011   5.269223
                   21         22         23         24         25
    21  C    0.000000
    22  C    3.679990   0.000000
    23  C    2.392052   5.463100   0.000000
    24  H    2.159542   2.731303   3.955001   0.000000
    25  H    2.139082   2.575860   4.506705   1.779581   0.000000
    26  H    1.092526   4.514582   2.553316   2.428995   2.551955
    27  H    1.096065   3.988140   2.754774   3.071931   2.429133
    28  H    3.960504   1.090771   6.004935   3.196439   2.408536
    29  H    4.063885   1.092726   5.817531   2.520047   2.849273
    30  H    4.412164   1.087466   5.898792   3.658531   3.591889
    31  H    2.666452   5.864330   1.092485   4.600400   4.763790
    32  H    3.305310   5.894165   1.087769   4.585074   5.335687
    33  H    2.651768   5.967929   1.090815   3.996874   4.681706
    34  O    3.994019   3.801835   3.961369   3.429359   4.737554
    35  O    4.853494   3.284312   5.220960   4.649029   5.155086
    36  C    5.085925   3.756850   5.358546   4.120970   5.346121
    37  C    5.674170   4.015600   5.856400   5.081628   5.956861
    38  C    4.079776   4.538152   3.923086   3.273504   4.903507
    39  C    5.865734   4.128993   6.185390   5.888918   6.105387
    40  H    4.981775   3.078105   5.719746   3.644209   4.811485
    41  H    5.940476   4.757930   5.993901   4.872610   6.258456
    42  H    6.481167   4.231503   6.880906   5.679717   6.464222
    43  H    6.245156   5.027433   6.016742   5.875806   6.808403
    44  H    5.129386   5.482132   4.674107   4.321063   5.983579
    45  H    4.091941   4.185979   4.478793   2.739456   4.477952
    46  H    3.523283   4.890959   3.001423   3.207462   4.748239
    47  H    6.574228   4.235208   7.126843   6.329737   6.498477
    48  H    6.493354   5.133117   6.430552   6.642355   6.987691
    49  H    5.550695   4.067680   5.974809   5.876325   5.802171
                   26         27         28         29         30
    26  H    0.000000
    27  H    1.779211   0.000000
    28  H    4.733932   4.062632   0.000000
    29  H    4.725625   4.595911   1.785936   0.000000
    30  H    5.345538   4.635214   1.782611   1.786306   0.000000
    31  H    2.861289   2.581051   6.264719   6.372116   6.275853
    32  H    3.562771   3.693076   6.567476   6.221188   6.174647
    33  H    2.346928   3.183270   6.476695   6.175054   6.536675
    34  O    4.626161   4.762704   4.847553   3.722054   3.813094
    35  O    5.838460   5.138257   4.193716   3.738784   2.594690
    36  C    5.777418   5.803270   4.846356   3.517041   3.504652
    37  C    6.537312   6.163155   5.037124   4.102655   3.381667
    38  C    4.382418   5.045544   5.515378   4.215405   4.815897
    39  C    6.913595   5.930330   4.830825   4.752674   3.227534
    40  H    5.647957   5.717700   4.134554   2.618124   2.938618
    41  H    6.524375   6.731673   5.840186   4.374441   4.523415
    42  H    7.357011   6.945313   5.183812   4.238318   3.449969
    43  H    7.084746   6.711236   6.041577   5.155556   4.397477
    44  H    5.375862   6.085961   6.495401   5.092855   5.654547
    45  H    4.303841   5.121468   5.102837   3.643369   4.617779
    46  H    3.682874   4.490660   5.772367   4.709608   5.279854
    47  H    7.617949   6.659992   4.867350   4.774613   3.196330
    48  H    7.511921   6.569504   5.881764   5.701008   4.274543
    49  H    6.633543   5.422076   4.584286   4.890074   3.249783
                   31         32         33         34         35
    31  H    0.000000
    32  H    1.784919   0.000000
    33  H    1.784266   1.785890   0.000000
    34  O    4.833345   3.705170   4.444786   0.000000
    35  O    5.673991   5.032145   6.056541   2.621206   0.000000
    36  C    6.178299   5.106688   5.854940   1.433325   2.371873
    37  C    6.497192   5.520047   6.564736   2.381132   1.431074
    38  C    4.956677   3.728645   4.049051   1.433919   4.040471
    39  C    6.451218   5.964283   7.123587   4.008805   1.429023
    40  H    6.519647   5.662317   6.140443   2.066612   2.741996
    41  H    6.892419   5.627359   6.390639   2.076983   3.314420
    42  H    7.502708   6.593733   7.573388   3.320633   2.074582
    43  H    6.646068   5.492493   6.759977   2.770619   2.064390
    44  H    5.728543   4.285468   4.747570   2.072826   4.597150
    45  H    5.486647   4.508452   4.477033   2.079484   4.427540
    46  H    4.077192   2.848980   3.010147   2.045837   4.516685
    47  H    7.423295   6.953893   8.021636   4.616589   2.070130
    48  H    6.693974   6.034305   7.398203   4.307150   2.064819
    49  H    6.066812   5.871435   6.962704   4.496720   2.040611
                   36         37         38         39         40
    36  C    0.000000
    37  C    1.508587   0.000000
    38  C    2.395684   3.680453   0.000000
    39  C    3.670108   2.370363   5.439826   0.000000
    40  H    1.094494   2.160554   2.753005   4.014445   0.000000
    41  H    1.092295   2.141037   2.557552   4.491348   1.779748
    42  H    2.139886   1.092591   4.513344   2.582859   2.414663
    43  H    2.177033   1.097134   3.999401   2.651960   3.080068
    44  H    2.678339   3.938417   1.091891   5.937468   3.213570
    45  H    2.641024   4.077043   1.093331   5.856168   2.551169
    46  H    3.312101   4.418417   1.088432   5.866448   3.680100
    47  H    3.969699   2.646371   6.015398   1.090797   4.124990
    48  H    4.013736   2.602200   5.723703   1.093532   4.588686
    49  H    4.411144   3.292439   5.891275   1.086886   4.664535
                   41         42         43         44         45
    41  H    0.000000
    42  H    2.561848   0.000000
    43  H    2.437449   1.778343   0.000000
    44  H    2.380865   4.716659   4.043652   0.000000
    45  H    2.825315   4.733311   4.613762   1.785927   0.000000
    46  H    3.578432   5.348674   4.656381   1.786059   1.787244
    47  H    4.723472   2.385566   3.075472   6.479507   6.293997
    48  H    4.658889   2.890684   2.408182   6.067469   6.296786
    49  H    5.332689   3.587144   3.606784   6.518743   6.289972
                   46         47         48         49
    46  H    0.000000
    47  H    6.571743   0.000000
    48  H    6.124383   1.789531   0.000000
    49  H    6.159858   1.784711   1.787918   0.000000
 Symmetry turned off by external request.
 Stoichiometry    C12H30MgO6(2+)
 Framework group  C1[X(C12H30MgO6)]
 Deg. of freedom   141
 Full point group                 C1      NOp   1
 Rotational constants (GHZ):           0.3648337           0.3642418           0.3184311
 Leave Link  202 at Wed May 18 16:42:14 2022, MaxMem=  6039797760 cpu:               0.4 elap:               0.0
 (Enter /gpfs/software/gaussian/g16/l301.exe)
 Standard basis: def2TZVP (5D, 7F)
 Ernie: Thresh=  0.10000D-02 Tol=  0.10000D-05 Strict=F.
   770 basis functions,  1214 primitive gaussians,   863 cartesian basis functions
    80 alpha electrons       80 beta electrons
       nuclear repulsion energy      2040.3399646797 Hartrees.
 IExCor= 4538 DFT=T Ex+Corr=wB97X ExCW=0 ScaHFX=  1.000000
 ScaDFX=  1.000000  1.000000  1.000000  1.000000 ScalE2=  1.000000  1.000000
 IRadAn=      5 IRanWt=     -1 IRanGd=            0 ICorTp=0 IEmpDi=  4
 HFx  wShort=  0.000000 wLong=  0.300000 cFull=  0.157706 cShort=  0.000000 cLong=  0.842294
 DFx  wShort=  0.000000 wLong=  0.300000 cFull=  0.000000 cShort=  0.000000 cLong=  1.000000
 NAtoms=   49 NActive=   49 NUniq=   49 SFac= 1.00D+00 NAtFMM=   60 NAOKFM=F Big=F
 Integral buffers will be    131072 words long.
 Raffenetti 2 integral format.
 Two-electron integral symmetry is turned off.
 Force inversion solution in PCM.
 Using the following non-standard input for PCM:
 Eps=4.33
 EpsInf=1.69
 --- end of non-standard input.
 Force inversion solution in PCM.
 ------------------------------------------------------------------------------
 Polarizable Continuum Model (PCM)
 =================================
 Model                : PCM.
 Atomic radii         : UFF (Universal Force Field).
 Polarization charges : Total charges.
 Charge compensation  : None.
 Solution method      : Matrix inversion.
 Cavity type          : Scaled VdW (van der Waals Surface) (Alpha=1.100).
 Cavity algorithm     : GePol (No added spheres)
                        Default sphere list used, NSphG=   49.
                        Lebedev-Laikov grids with approx.  5.0 points / Ang**2.
                        Smoothing algorithm: York/Karplus (Gamma=1.0000).
                        Polarization charges: spherical gaussians, with
                                              point-specific exponents (IZeta= 3).
                        Self-potential: point-specific (ISelfS= 7).
                        Self-field    : sphere-specific E.n sum rule (ISelfD= 2).
 1st derivatives      : Analytical E(r).r(x)/FMM algorithm (CHGder, D1EAlg=3).
                        Cavity 1st derivative terms included.
 2nd derivatives      : Analytical E(r).r(xy)/FMM algorithm (CHGder, D2EAlg=3).
                        Cavity 2nd derivative terms included.
 Solvent              : Generic,
                        Eps                           =   4.330000
                        Eps(infinity)                 =   1.690000
                        RSolv                         =   0.000000 Ang.
                        Molar volume                  =   0.000000 cm**3/mol
                        Thermal expansion coefficient =   0.000000 K**-1
                        Absolute temperature          = 298.150000 K
                        Numeral density               =   0.000000 Ang**-3
                        Hydrogen bond acidity         =   0.000000
                        Hydrogen bond basicity        =   0.000000
                        Surface tension at interface  =   0.000000 (cal/mol)*Ang**-2
                        Carbon aromaticity            =   0.000000
                        Electronegative halogenicity  =   0.000000
 ------------------------------------------------------------------------------
 GePol: Number of generator spheres                  =      49
 GePol: Total number of spheres                      =      49
 GePol: Number of exposed spheres                    =      48 ( 97.96%)
 GePol: Number of points                             =    2897
 GePol: Average weight of points                     =       0.13
 GePol: Minimum weight of points                     =   0.20D-11
 GePol: Maximum weight of points                     =    0.20577
 GePol: Number of points with low weight             =     199
 GePol: Fraction of low-weight points (<1% of avg)   =       6.87%
 GePol: Cavity surface area                          =    368.571 Ang**2
 GePol: Cavity volume                                =    455.210 Ang**3
 Leave Link  301 at Wed May 18 16:42:14 2022, MaxMem=  6039797760 cpu:               3.3 elap:               0.2
 (Enter /gpfs/software/gaussian/g16/l302.exe)
 NPDir=0 NMtPBC=     1 NCelOv=     1 NCel=       1 NClECP=     1 NCelD=      1
         NCelK=      1 NCelE2=     1 NClLst=     1 CellRange=     0.0.
 One-electron integrals computed using PRISM.
   1 Symmetry operations used in ECPInt.
 ECPInt:  NShTT=   54615 NPrTT=  160416 LenC2=   51016 LenP2D=  108334.
 LDataN:  DoStor=T MaxTD1= 6 Len=  172
 NBasis=   770 RedAO= T EigKep=  1.20D-04  NBF=   770
 NBsUse=   770 1.00D-06 EigRej= -1.00D+00 NBFU=   770
 Precomputing XC quadrature grid using
 IXCGrd= 4 IRadAn=           5 IRanWt=          -1 IRanGd=           0 AccXCQ= 0.00D+00.
 Generated NRdTot=       0 NPtTot=           0 NUsed=           0 NTot=          32
 NSgBfM=   855   855   855   855   855 MxSgAt=    49 MxSgA2=    49.
 Leave Link  302 at Wed May 18 16:42:19 2022, MaxMem=  6039797760 cpu:             131.8 elap:               4.9
 (Enter /gpfs/software/gaussian/g16/l303.exe)
 DipDrv:  MaxL=1.
 Leave Link  303 at Wed May 18 16:42:28 2022, MaxMem=  6039797760 cpu:             182.9 elap:               6.8
 (Enter /gpfs/software/gaussian/g16/l401.exe)
 ExpMin= 3.69D-02 ExpMax= 3.14D+04 ExpMxC= 1.07D+03 IAcc=3 IRadAn=         5 AccDes= 0.00D+00
 Harris functional with IExCor= 4538 and IRadAn=       5 diagonalized for initial guess.
 HarFok:  IExCor= 4538 AccDes= 0.00D+00 IRadAn=         5 IDoV= 1 UseB2=F ITyADJ=14
 ICtDFT=  3500011 ScaDFX=  1.000000  1.000000  1.000000  1.000000
 FoFCou: FMM=F IPFlag=           0 FMFlag=      100000 FMFlg1=           0
         NFxFlg=           0 DoJE=T BraDBF=F KetDBF=T FulRan=T
         wScrn=  0.000000 ICntrl=       500 IOpCl=  0 I1Cent=   200000004 NGrid=           0
         NMat0=    1 NMatS0=      1 NMatT0=    0 NMatD0=    1 NMtDS0=    0 NMtDT0=    0
 Symmetry not used in FoFCou.
 Harris En= -1083.87756535404    
 JPrj=0 DoOrth=F DoCkMO=F.
 Leave Link  401 at Wed May 18 16:42:33 2022, MaxMem=  6039797760 cpu:             119.2 elap:               4.4
 (Enter /gpfs/software/gaussian/g16/l502.exe)
 Two-electron integral symmetry not used.
 Closed shell SCF:
 Using DIIS extrapolation, IDIIS=  1040.
 NGot=  6039797760 LenX=  6038276735 LenY=  6037531103
 Requested convergence on RMS density matrix=1.00D-08 within 100 cycles.
 Requested convergence on MAX density matrix=1.00D-06.
 Requested convergence on             energy=1.00D-06.
 No special actions if energy rises.
 Fock matrices will be formed incrementally for  20 cycles.

 Cycle   1  Pass 1  IDiag  1:
 FoFJK:  IHMeth= 1 ICntrl=       0 DoSepK=T KAlg= 0 I1Cent=           0 FoldK=F
 IRaf=         1 NMat=       1 IRICut=       1 DoRegI=T DoRafI=F ISym2E= 0 IDoP0=0 IntGTp=1.
 FoFCou: FMM=F IPFlag=           0 FMFlag=      100000 FMFlg1=           0
         NFxFlg=           0 DoJE=T BraDBF=F KetDBF=F FulRan=T
         wScrn=  0.000000 ICntrl=       500 IOpCl=  0 I1Cent=           0 NGrid=           0
         NMat0=    1 NMatS0=      1 NMatT0=    0 NMatD0=    1 NMtDS0=    0 NMtDT0=    0
 Symmetry not used in FoFCou.
 Inv3:  Mode=1 IEnd=    25177827.
 Iteration    1 A*A^-1 deviation from unit magnitude is 1.75D-14 for    455.
 Iteration    1 A*A^-1 deviation from orthogonality  is 1.57D-14 for    623    455.
 Iteration    1 A^-1*A deviation from unit magnitude is 1.64D-14 for    455.
 Iteration    1 A^-1*A deviation from orthogonality  is 5.96D-14 for   2570   2184.
 E= -1126.27252479242    
 DIIS: error= 4.16D-02 at cycle   1 NSaved=   1.
 NSaved= 1 IEnMin= 1 EnMin= -1126.27252479242     IErMin= 1 ErrMin= 4.16D-02
 ErrMax= 4.16D-02  0.00D+00 EMaxC= 1.00D-01 BMatC= 1.47D+00 BMatP= 1.47D+00
 IDIUse=3 WtCom= 5.84D-01 WtEn= 4.16D-01
 Coeff-Com:  0.100D+01
 Coeff-En:   0.100D+01
 Coeff:      0.100D+01
 Gap=     0.601 Goal=   None    Shift=    0.000
 GapD=    0.601 DampG=2.000 DampE=0.500 DampFc=1.0000 IDamp=-1.
 RMSDP=1.61D-03 MaxDP=1.03D-01              OVMax= 1.02D-01

 Cycle   2  Pass 1  IDiag  1:
 RMSU=  1.59D-03    CP:  9.59D-01
 E= -1126.36056712049     Delta-E=       -0.088042328071 Rises=F Damp=F
 DIIS: error= 2.02D-02 at cycle   2 NSaved=   2.
 NSaved= 2 IEnMin= 2 EnMin= -1126.36056712049     IErMin= 2 ErrMin= 2.02D-02
 ErrMax= 2.02D-02  0.00D+00 EMaxC= 1.00D-01 BMatC= 4.68D-01 BMatP= 1.47D+00
 IDIUse=3 WtCom= 7.98D-01 WtEn= 2.02D-01
 Coeff-Com:  0.326D+00 0.674D+00
 Coeff-En:   0.417D+00 0.583D+00
 Coeff:      0.344D+00 0.656D+00
 Gap=     0.535 Goal=   None    Shift=    0.000
 RMSDP=6.10D-04 MaxDP=4.07D-02 DE=-8.80D-02 OVMax= 6.81D-02

 Cycle   3  Pass 1  IDiag  1:
 RMSU=  4.53D-04    CP:  9.60D-01  7.42D-01
 E= -1126.58717260139     Delta-E=       -0.226605480899 Rises=F Damp=F
 DIIS: error= 9.10D-03 at cycle   3 NSaved=   3.
 NSaved= 3 IEnMin= 3 EnMin= -1126.58717260139     IErMin= 3 ErrMin= 9.10D-03
 ErrMax= 9.10D-03  0.00D+00 EMaxC= 1.00D-01 BMatC= 8.00D-02 BMatP= 4.68D-01
 IDIUse=3 WtCom= 9.09D-01 WtEn= 9.10D-02
 Coeff-Com:  0.386D-01 0.301D+00 0.661D+00
 Coeff-En:   0.000D+00 0.124D+00 0.876D+00
 Coeff:      0.351D-01 0.284D+00 0.680D+00
 Gap=     0.502 Goal=   None    Shift=    0.000
 RMSDP=2.77D-04 MaxDP=1.39D-02 DE=-2.27D-01 OVMax= 2.49D-02

 Cycle   4  Pass 1  IDiag  1:
 RMSU=  1.37D-04    CP:  9.55D-01  8.85D-01  8.37D-01
 E= -1126.63865088700     Delta-E=       -0.051478285611 Rises=F Damp=F
 DIIS: error= 1.44D-03 at cycle   4 NSaved=   4.
 NSaved= 4 IEnMin= 4 EnMin= -1126.63865088700     IErMin= 4 ErrMin= 1.44D-03
 ErrMax= 1.44D-03  0.00D+00 EMaxC= 1.00D-01 BMatC= 2.14D-03 BMatP= 8.00D-02
 IDIUse=3 WtCom= 9.86D-01 WtEn= 1.44D-02
 Coeff-Com:  0.135D-02 0.527D-01 0.219D+00 0.727D+00
 Coeff-En:   0.000D+00 0.000D+00 0.000D+00 0.100D+01
 Coeff:      0.133D-02 0.519D-01 0.215D+00 0.731D+00
 Gap=     0.492 Goal=   None    Shift=    0.000
 RMSDP=4.32D-05 MaxDP=3.57D-03 DE=-5.15D-02 OVMax= 2.70D-03

 Cycle   5  Pass 1  IDiag  1:
 RMSU=  2.93D-05    CP:  9.54D-01  8.95D-01  8.91D-01  9.15D-01
 E= -1126.63986607401     Delta-E=       -0.001215187010 Rises=F Damp=F
 DIIS: error= 1.87D-04 at cycle   5 NSaved=   5.
 NSaved= 5 IEnMin= 5 EnMin= -1126.63986607401     IErMin= 5 ErrMin= 1.87D-04
 ErrMax= 1.87D-04  0.00D+00 EMaxC= 1.00D-01 BMatC= 2.25D-05 BMatP= 2.14D-03
 IDIUse=3 WtCom= 9.98D-01 WtEn= 1.87D-03
 Coeff-Com: -0.133D-02-0.138D-01-0.214D-01 0.537D-02 0.103D+01
 Coeff-En:   0.000D+00 0.000D+00 0.000D+00 0.000D+00 0.100D+01
 Coeff:     -0.133D-02-0.138D-01-0.214D-01 0.536D-02 0.103D+01
 Gap=     0.492 Goal=   None    Shift=    0.000
 RMSDP=2.15D-05 MaxDP=1.07D-03 DE=-1.22D-03 OVMax= 1.11D-03

 Cycle   6  Pass 1  IDiag  1:
 RMSU=  7.16D-06    CP:  9.54D-01  9.02D-01  9.15D-01  9.83D-01  1.29D+00
 E= -1126.63989417072     Delta-E=       -0.000028096716 Rises=F Damp=F
 DIIS: error= 5.83D-05 at cycle   6 NSaved=   6.
 NSaved= 6 IEnMin= 6 EnMin= -1126.63989417072     IErMin= 6 ErrMin= 5.83D-05
 ErrMax= 5.83D-05  0.00D+00 EMaxC= 1.00D-01 BMatC= 3.43D-06 BMatP= 2.25D-05
 IDIUse=1 WtCom= 1.00D+00 WtEn= 0.00D+00
 Coeff-Com: -0.612D-03-0.774D-02-0.186D-01-0.359D-01 0.358D+00 0.705D+00
 Coeff:     -0.612D-03-0.774D-02-0.186D-01-0.359D-01 0.358D+00 0.705D+00
 Gap=     0.492 Goal=   None    Shift=    0.000
 RMSDP=4.44D-06 MaxDP=1.84D-04 DE=-2.81D-05 OVMax= 3.32D-04

 Cycle   7  Pass 1  IDiag  1:
 RMSU=  1.86D-06    CP:  9.54D-01  9.04D-01  9.18D-01  9.94D-01  1.37D+00
                    CP:  1.03D+00
 E= -1126.63989761310     Delta-E=       -0.000003442378 Rises=F Damp=F
 DIIS: error= 9.71D-06 at cycle   7 NSaved=   7.
 NSaved= 7 IEnMin= 7 EnMin= -1126.63989761310     IErMin= 7 ErrMin= 9.71D-06
 ErrMax= 9.71D-06  0.00D+00 EMaxC= 1.00D-01 BMatC= 1.08D-07 BMatP= 3.43D-06
 IDIUse=1 WtCom= 1.00D+00 WtEn= 0.00D+00
 Coeff-Com:  0.191D-04 0.185D-03-0.610D-03-0.540D-02-0.442D-01 0.866D-01
 Coeff-Com:  0.963D+00
 Coeff:      0.191D-04 0.185D-03-0.610D-03-0.540D-02-0.442D-01 0.866D-01
 Coeff:      0.963D+00
 Gap=     0.492 Goal=   None    Shift=    0.000
 RMSDP=1.75D-06 MaxDP=7.87D-05 DE=-3.44D-06 OVMax= 1.24D-04

 Cycle   8  Pass 1  IDiag  1:
 RMSU=  4.99D-07    CP:  9.54D-01  9.04D-01  9.20D-01  9.97D-01  1.40D+00
                    CP:  1.18D+00  1.30D+00
 E= -1126.63989778027     Delta-E=       -0.000000167167 Rises=F Damp=F
 DIIS: error= 2.26D-06 at cycle   8 NSaved=   8.
 NSaved= 8 IEnMin= 8 EnMin= -1126.63989778027     IErMin= 8 ErrMin= 2.26D-06
 ErrMax= 2.26D-06  0.00D+00 EMaxC= 1.00D-01 BMatC= 1.01D-08 BMatP= 1.08D-07
 IDIUse=1 WtCom= 1.00D+00 WtEn= 0.00D+00
 Coeff-Com:  0.296D-04 0.318D-03 0.426D-03-0.415D-03-0.254D-01 0.835D-03
 Coeff-Com:  0.288D+00 0.737D+00
 Coeff:      0.296D-04 0.318D-03 0.426D-03-0.415D-03-0.254D-01 0.835D-03
 Coeff:      0.288D+00 0.737D+00
 Gap=     0.492 Goal=   None    Shift=    0.000
 RMSDP=3.26D-07 MaxDP=1.60D-05 DE=-1.67D-07 OVMax= 2.14D-05

 Cycle   9  Pass 1  IDiag  1:
 RMSU=  1.09D-07    CP:  9.54D-01  9.04D-01  9.20D-01  9.97D-01  1.40D+00
                    CP:  1.21D+00  1.38D+00  1.14D+00
 E= -1126.63989778934     Delta-E=       -0.000000009073 Rises=F Damp=F
 DIIS: error= 1.13D-06 at cycle   9 NSaved=   9.
 NSaved= 9 IEnMin= 9 EnMin= -1126.63989778934     IErMin= 9 ErrMin= 1.13D-06
 ErrMax= 1.13D-06  0.00D+00 EMaxC= 1.00D-01 BMatC= 2.11D-09 BMatP= 1.01D-08
 IDIUse=1 WtCom= 1.00D+00 WtEn= 0.00D+00
 Coeff-Com:  0.875D-05 0.998D-04 0.253D-03 0.624D-03-0.390D-02-0.119D-01
 Coeff-Com: -0.200D-01 0.299D+00 0.735D+00
 Coeff:      0.875D-05 0.998D-04 0.253D-03 0.624D-03-0.390D-02-0.119D-01
 Coeff:     -0.200D-01 0.299D+00 0.735D+00
 Gap=     0.492 Goal=   None    Shift=    0.000
 RMSDP=1.47D-07 MaxDP=8.41D-06 DE=-9.07D-09 OVMax= 1.04D-05

 Cycle  10  Pass 1  IDiag  1:
 RMSU=  3.98D-08    CP:  9.54D-01  9.04D-01  9.20D-01  9.97D-01  1.40D+00
                    CP:  1.22D+00  1.42D+00  1.25D+00  1.01D+00
 E= -1126.63989779128     Delta-E=       -0.000000001936 Rises=F Damp=F
 DIIS: error= 2.64D-07 at cycle  10 NSaved=  10.
 NSaved=10 IEnMin=10 EnMin= -1126.63989779128     IErMin=10 ErrMin= 2.64D-07
 ErrMax= 2.64D-07  0.00D+00 EMaxC= 1.00D-01 BMatC= 1.27D-10 BMatP= 2.11D-09
 IDIUse=1 WtCom= 1.00D+00 WtEn= 0.00D+00
 Coeff-Com: -0.144D-05-0.851D-05 0.252D-04 0.246D-03 0.187D-02-0.345D-02
 Coeff-Com: -0.389D-01-0.661D-02 0.192D+00 0.855D+00
 Coeff:     -0.144D-05-0.851D-05 0.252D-04 0.246D-03 0.187D-02-0.345D-02
 Coeff:     -0.389D-01-0.661D-02 0.192D+00 0.855D+00
 Gap=     0.492 Goal=   None    Shift=    0.000
 RMSDP=5.39D-08 MaxDP=2.78D-06 DE=-1.94D-09 OVMax= 4.00D-06

 Cycle  11  Pass 1  IDiag  1:
 RMSU=  1.43D-08    CP:  9.54D-01  9.04D-01  9.20D-01  9.97D-01  1.40D+00
                    CP:  1.22D+00  1.44D+00  1.30D+00  1.13D+00  1.20D+00
 E= -1126.63989779147     Delta-E=       -0.000000000190 Rises=F Damp=F
 DIIS: error= 6.40D-08 at cycle  11 NSaved=  11.
 NSaved=11 IEnMin=11 EnMin= -1126.63989779147     IErMin=11 ErrMin= 6.40D-08
 ErrMax= 6.40D-08  0.00D+00 EMaxC= 1.00D-01 BMatC= 6.07D-12 BMatP= 1.27D-10
 IDIUse=1 WtCom= 1.00D+00 WtEn= 0.00D+00
 Coeff-Com: -0.692D-06-0.906D-05-0.156D-04-0.599D-05 0.628D-03 0.250D-03
 Coeff-Com: -0.534D-02-0.230D-01-0.228D-01 0.139D+00 0.911D+00
 Coeff:     -0.692D-06-0.906D-05-0.156D-04-0.599D-05 0.628D-03 0.250D-03
 Coeff:     -0.534D-02-0.230D-01-0.228D-01 0.139D+00 0.911D+00
 Gap=     0.492 Goal=   None    Shift=    0.000
 RMSDP=1.23D-08 MaxDP=6.12D-07 DE=-1.90D-10 OVMax= 9.94D-07

 Cycle  12  Pass 1  IDiag  1:
 RMSU=  3.20D-09    CP:  9.54D-01  9.04D-01  9.20D-01  9.97D-01  1.40D+00
                    CP:  1.22D+00  1.44D+00  1.31D+00  1.16D+00  1.33D+00
                    CP:  1.18D+00
 E= -1126.63989779147     Delta-E=       -0.000000000006 Rises=F Damp=F
 DIIS: error= 2.08D-08 at cycle  12 NSaved=  12.
 NSaved=12 IEnMin=12 EnMin= -1126.63989779147     IErMin=12 ErrMin= 2.08D-08
 ErrMax= 2.08D-08  0.00D+00 EMaxC= 1.00D-01 BMatC= 4.98D-13 BMatP= 6.07D-12
 IDIUse=1 WtCom= 1.00D+00 WtEn= 0.00D+00
 Coeff-Com:  0.572D-08-0.249D-06-0.407D-05-0.206D-04-0.900D-04 0.304D-03
 Coeff-Com:  0.278D-02-0.157D-02-0.180D-01-0.517D-01 0.129D+00 0.939D+00
 Coeff:      0.572D-08-0.249D-06-0.407D-05-0.206D-04-0.900D-04 0.304D-03
 Coeff:      0.278D-02-0.157D-02-0.180D-01-0.517D-01 0.129D+00 0.939D+00
 Gap=     0.492 Goal=   None    Shift=    0.000
 RMSDP=2.45D-09 MaxDP=9.33D-08 DE=-5.68D-12 OVMax= 2.80D-07

 Error on total polarization charges =  0.02226
 SCF Done:  E(RwB97X) =  -1126.63989779     A.U. after   12 cycles
            NFock= 12  Conv=0.25D-08     -V/T= 2.0043
 KE= 1.121846451860D+03 PE=-6.682424356745D+03 EE= 2.393598042414D+03
 Leave Link  502 at Wed May 18 16:51:50 2022, MaxMem=  6039797760 cpu:           15497.3 elap:             557.2
 (Enter /gpfs/software/gaussian/g16/l801.exe)
 DoSCS=F DFT=T ScalE2(SS,OS)=  1.000000  1.000000
 Range of M.O.s used for correlation:     1   770
 NBasis=   770 NAE=    80 NBE=    80 NFC=     0 NFV=     0
 NROrb=    770 NOA=    80 NOB=    80 NVA=   690 NVB=   690

 **** Warning!!: The largest alpha MO coefficient is  0.14903272D+02

 Leave Link  801 at Wed May 18 16:51:51 2022, MaxMem=  6039797760 cpu:               1.1 elap:               0.1
 (Enter /gpfs/software/gaussian/g16/l1101.exe)
 Using compressed storage, NAtomX=    49.
 Will process     50 centers per pass.
   1 Symmetry operations used in ECPInt.
 ECPInt:  NShTT=   54615 NPrTT=  160416 LenC2=   51016 LenP2D=  108334.
 LDataN:  DoStor=T MaxTD1= 7 Len=  274
 Number of processors reduced to  10 by ecpmxn.
 Leave Link 1101 at Wed May 18 16:51:55 2022, MaxMem=  6039797760 cpu:             110.0 elap:               4.4
 (Enter /gpfs/software/gaussian/g16/l1102.exe)
 Symmetrizing basis deriv contribution to polar:
 IMax=3 JMax=2 DiffMx= 0.00D+00
 Leave Link 1102 at Wed May 18 16:51:55 2022, MaxMem=  6039797760 cpu:               3.9 elap:               0.2
 (Enter /gpfs/software/gaussian/g16/l1110.exe)
 Forming Gx(P) for the SCF density, NAtomX=    49.
 Integral derivatives from FoFJK, PRISM(SPDF).
 Do as many integral derivatives as possible in FoFJK.
 G2DrvN: MDV=    6039792381.
 G2DrvN: will do    50 centers at a time, making    1 passes.
 Calling FoFCou, ICntrl=  3107 FMM=F I1Cent=   0 AccDes= 0.00D+00.
 FoFJK:  IHMeth= 1 ICntrl=    3107 DoSepK=T KAlg= 0 I1Cent=           0 FoldK=F
 IRaf=         1 NMat=       1 IRICut=       1 DoRegI=T DoRafI=F ISym2E= 0 IDoP0=0 IntGTp=1.
 FoFCou: FMM=F IPFlag=           0 FMFlag=      100000 FMFlg1=           0
         NFxFlg=           0 DoJE=F BraDBF=F KetDBF=F FulRan=T
         wScrn=  0.000000 ICntrl=      3507 IOpCl=  0 I1Cent=           0 NGrid=           0
         NMat0=    1 NMatS0=      1 NMatT0=    0 NMatD0=    1 NMtDS0=    0 NMtDT0=    0
 Symmetry not used in FoFCou.
 NEqPCM:  Using equilibrium solvation (IEInf=0, Eps=   4.3300, EpsInf=   1.6900)
 G2PCM: DoFxE=T DoFxN=T DoGrad=T DoDP/DQ/DG/TGxP=FFFF NFrqRd=   0 IEInf=0 SqF1=F DoCFld=F IF1Alg=4.
[...]
    37  C    5.861807   3.444743   3.631925   4.884766   5.060505
    38  C    5.904582   4.548738   3.108810   4.768133   6.016604
    39  C    4.952143   3.846087   4.703819   5.243455   3.791136
    40  H    6.599527   5.055552   4.484002   6.071179   5.278727
    41  H    7.009752   4.283665   3.648865   5.344774   6.503075
    42  H    6.766411   4.343977   4.672847   5.892589   5.521467
    43  H    5.891985   2.628561   3.122285   4.228534   5.699505
    44  H    6.645159   4.556497   3.064158   4.793971   6.979132
    45  H    6.534539   5.529000   4.179033   5.827898   6.125157
    46  H    5.373953   4.637852   3.042148   4.462947   5.962491
    47  H    5.962862   4.754305   5.590543   6.251577   4.268799
    48  H    5.081391   3.212189   4.414519   4.739845   4.634692
    49  H    4.311668   4.295552   5.122548   5.440426   2.964601
                   16         17         18         19         20
    16  H    0.000000
    17  H    1.786362   0.000000
    18  O    4.200449   3.589973   0.000000
    19  O    4.869584   3.720586   2.625565   0.000000
    20  C    5.076087   3.993742   1.430835   2.366750   0.000000
    21  C    4.884730   3.471917   2.372054   1.428511   1.505370
    22  C    4.761023   4.505877   1.429479   4.030475   2.379596
    23  C    5.541332   4.285114   4.041989   1.431301   3.664235
    24  H    6.061984   5.041986   2.064838   2.723660   1.094055
    25  H    5.263859   4.134673   2.074407   3.312204   1.092215
    26  H    5.883163   4.349183   3.315005   2.071898   2.136394
    27  H    4.183829   2.584410   2.735224   2.064318   2.162810
    28  H    4.750049   4.442994   2.068898   4.606129   2.666400
    29  H    5.828300   5.489962   2.075219   4.384276   2.616106
    30  H    4.493406   4.646625   2.038946   4.513323   3.296653
    31  H    5.115527   3.745005   4.429656   2.079492   4.086930
    32  H    5.826912   4.830360   4.521981   2.040084   4.392823
    33  H    6.506517   5.124728   4.592407   2.068763   3.906415
    34  O    6.027180   5.694389   3.106021   3.052226   3.682478
    35  O    4.382199   4.825659   3.082759   4.165621   4.393203
    36  C    6.467035   6.444333   3.584185   4.334265   4.419543
    37  C    5.800309   6.178243   3.947331   4.870301   5.106239
    38  C    7.137366   6.520154   3.789970   3.238219   3.852080
    39  C    3.994479   4.947426   4.067964   5.214727   5.455419
    40  H    6.558611   6.476197   3.231912   4.521168   4.016656
    41  H    7.506450   7.483951   4.615530   5.118775   5.318244
    42  H    6.284825   6.837084   4.520316   5.820945   5.738340
    43  H    6.175198   6.617970   4.782615   5.241847   5.887992
    44  H    8.005287   7.483361   4.822695   4.195201   4.938996
    45  H    7.453957   6.772530   3.653173   3.601789   3.536990
    46  H    6.998573   6.170034   3.880234   2.589615   3.687775
    47  H    4.590939   5.654762   4.512304   6.046216   5.937164
    48  H    4.545081   5.543889   4.925268   5.656701   6.252041
    49  H    2.935448   4.051839   3.886713   5.013876   5.243595
                   21         22         23         24         25
    21  C    0.000000
    22  C    3.667206   0.000000
    23  C    2.388724   5.456684   0.000000
    24  H    2.159035   2.716749   3.947783   0.000000
    25  H    2.138584   2.555033   4.502698   1.780390   0.000000
    26  H    1.092094   4.495804   2.548454   2.422763   2.548340
    27  H    1.093737   3.977515   2.751097   3.071270   2.430687
    28  H    3.940571   1.091388   5.992411   3.177168   2.377722
    29  H    4.045830   1.092982   5.803273   2.497266   2.825197
    30  H    4.406121   1.086441   5.904420   3.646392   3.572752
    31  H    2.662675   5.855669   1.092879   4.594285   4.760349
    32  H    3.302540   5.894956   1.086272   4.577947   5.332979
    33  H    2.646904   5.956625   1.090313   3.988252   4.674147
    34  O    3.992797   3.770170   3.984676   3.411022   4.716306
    35  O    4.856725   3.301835   5.232013   4.661960   5.155923
    36  C    5.078806   3.709894   5.381175   4.103196   5.313162
    37  C    5.672818   3.997062   5.878157   5.080239   5.938543
    38  C    4.081771   4.491359   3.956626   3.243364   4.876572
    39  C    5.847356   4.137266   6.180093   5.884325   6.085680
    40  H    4.966691   3.022058   5.732421   3.623394   4.769317
    41  H    5.937402   4.704982   6.025298   4.852127   6.224420
    42  H    6.486334   4.226690   6.904805   5.691923   6.455132
    43  H    6.241188   5.012955   6.034171   5.868933   6.790789
    44  H    5.131881   5.429285   4.713928   4.287599   5.953304
    45  H    4.081733   4.128512   4.497691   2.700422   4.437358
    46  H    3.532522   4.853547   3.038274   3.181750   4.732756
    47  H    6.542755   4.225825   7.115700   6.315157   6.459751
    48  H    6.481696   5.134006   6.436913   6.635997   6.969476
    49  H    5.512016   4.077358   5.943860   5.857689   5.771687
                   26         27         28         29         30
    26  H    0.000000
    27  H    1.779611   0.000000
    28  H    4.706477   4.045844   0.000000
    29  H    4.699138   4.580797   1.785431   0.000000
    30  H    5.333885   4.630843   1.784148   1.786192   0.000000
    31  H    2.860428   2.576513   6.250419   6.356785   6.278379
    32  H    3.556140   3.690511   6.563172   6.213561   6.189543
    33  H    2.339132   3.176587   6.456717   6.155494   6.537281
    34  O    4.626164   4.758292   4.816513   3.685752   3.785607
    35  O    5.842678   5.133477   4.208946   3.765862   2.616418
    36  C    5.773607   5.788810   4.799787   3.473152   3.452882
    37  C    6.539045   6.152996   5.017345   4.095421   3.357712
    38  C    4.387083   5.045543   5.467818   4.155752   4.774135
    39  C    6.896315   5.902693   4.837278   4.773008   3.246625
    40  H    5.634895   5.694093   4.078001   2.566779   2.876549
    41  H    6.525700   6.721800   5.786873   4.320048   4.464669
    42  H    7.365501   6.939474   5.176049   4.251620   3.434609
    43  H    7.083454   6.700798   6.027439   5.147639   4.383444
    44  H    5.382080   6.087450   6.442011   5.025572   5.605231
    45  H    4.295722   5.107207   5.041441   3.573012   4.566158
    46  H    3.695788   4.500056   5.734513   4.658310   5.248514
    47  H    7.588168   6.615977   4.852887   4.785870   3.192266
    48  H    7.501790   6.550806   5.882544   5.710144   4.283505
    49  H    6.594923   5.374755   4.594178   4.908458   3.279432
                   31         32         33         34         35
    31  H    0.000000
    32  H    1.783152   0.000000
    33  H    1.785463   1.783544   0.000000
    34  O    4.849779   3.739007   4.472777   0.000000
    35  O    5.673237   5.051928   6.071832   2.626972   0.000000
    36  C    6.190727   5.143423   5.884457   1.437322   2.369877
    37  C    6.506860   5.555500   6.592739   2.392854   1.420930
    38  C    4.985326   3.770379   4.091267   1.430599   4.043305
    39  C    6.431872   5.972630   7.121175   4.009767   1.418843
    40  H    6.521704   5.688897   6.158698   2.067019   2.753653
    41  H    6.914622   5.673256   6.431180   2.079463   3.306476
    42  H    7.513029   6.629837   7.604687   3.335575   2.074056
    43  H    6.653227   5.522923   6.783840   2.776798   2.048696
    44  H    5.765014   4.335668   4.798030   2.066740   4.594218
    45  H    5.499978   4.535781   4.504458   2.079016   4.435135
    46  H    4.111466   2.886683   3.058128   2.037037   4.515105
    47  H    7.395718   6.960238   8.013581   4.615400   2.059852
    48  H    6.688180   6.055129   7.407452   4.311411   2.044295
    49  H    6.021665   5.854048   6.932908   4.482795   2.028866
                   36         37         38         39         40
    36  C    0.000000
    37  C    1.516640   0.000000
    38  C    2.397437   3.689435   0.000000
    39  C    3.667022   2.365785   5.436998   0.000000
    40  H    1.094229   2.175950   2.745745   4.018052   0.000000
    41  H    1.091498   2.142808   2.562846   4.486852   1.776838
    42  H    2.151707   1.091825   4.525829   2.582049   2.443664
    43  H    2.187354   1.101322   4.005112   2.652656   3.096531
    44  H    2.677752   3.944384   1.090085   5.934503   3.203591
    45  H    2.647814   4.090979   1.091527   5.853671   2.548369
    46  H    3.309377   4.421368   1.086234   5.857635   3.670691
    47  H    3.964970   2.643324   6.009482   1.090764   4.124933
    48  H    4.012058   2.593720   5.726189   1.086281   4.590942
    49  H    4.396416   3.282603   5.872321   1.087664   4.654734
                   41         42         43         44         45
    41  H    0.000000
    42  H    2.563052   0.000000
    43  H    2.444832   1.777840   0.000000
    44  H    2.384925   4.723176   4.048298   0.000000
    45  H    2.837721   4.755255   4.625619   1.785666   0.000000
    46  H    3.579375   5.355517   4.653169   1.783783   1.782114
    47  H    4.719452   2.388359   3.086460   6.475530   6.287659
    48  H    4.656550   2.875700   2.406769   6.071086   6.298187
    49  H    5.318453   3.586199   3.601884   6.501374   6.269086
                   46         47         48         49
    46  H    0.000000
    47  H    6.559583   0.000000
    48  H    6.121413   1.787434   0.000000
    49  H    6.134304   1.783958   1.789544   0.000000
 Symmetry turned off by external request.
 Stoichiometry    C12H30MgO6(2+)
 Framework group  C1[X(C12H30MgO6)]
 Deg. of freedom   141
 Full point group                 C1      NOp   1
 Rotational constants (GHZ):           0.3670772           0.3645819           0.3196807
 Leave Link  202 at Thu May 19 02:45:29 2022, MaxMem=  6039797760 cpu:               0.1 elap:               0.0
 (Enter /gpfs/software/gaussian/g16/l301.exe)
 Standard basis: def2TZVP (5D, 7F)
 Ernie: Thresh=  0.10000D-02 Tol=  0.10000D-05 Strict=F.
   770 basis functions,  1214 primitive gaussians,   863 cartesian basis functions
    80 alpha electrons       80 beta electrons
       nuclear repulsion energy      2043.6391102138 Hartrees.
 IExCor= 4538 DFT=T Ex+Corr=wB97X ExCW=0 ScaHFX=  1.000000
 ScaDFX=  1.000000  1.000000  1.000000  1.000000 ScalE2=  1.000000  1.000000
 IRadAn=      5 IRanWt=     -1 IRanGd=            0 ICorTp=0 IEmpDi=  4
 HFx  wShort=  0.000000 wLong=  0.300000 cFull=  0.157706 cShort=  0.000000 cLong=  0.842294
 DFx  wShort=  0.000000 wLong=  0.300000 cFull=  0.000000 cShort=  0.000000 cLong=  1.000000
 NAtoms=   49 NActive=   49 NUniq=   49 SFac= 1.00D+00 NAtFMM=   60 NAOKFM=F Big=F
 Integral buffers will be    131072 words long.
 Raffenetti 2 integral format.
 Two-electron integral symmetry is turned off.
 ------------------------------------------------------------------------------
 Polarizable Continuum Model (PCM)
 =================================
 Model                : PCM.
 Atomic radii         : UFF (Universal Force Field).
 Polarization charges : Total charges.
 Charge compensation  : None.
 Solution method      : Matrix inversion.
 Cavity type          : Scaled VdW (van der Waals Surface) (Alpha=1.100).
 Cavity algorithm     : GePol (No added spheres)
                        Default sphere list used, NSphG=   49.
                        Lebedev-Laikov grids with approx.  5.0 points / Ang**2.
                        Smoothing algorithm: York/Karplus (Gamma=1.0000).
                        Polarization charges: spherical gaussians, with
                                              point-specific exponents (IZeta= 3).
                        Self-potential: point-specific (ISelfS= 7).
                        Self-field    : sphere-specific E.n sum rule (ISelfD= 2).
 1st derivatives      : Analytical E(r).r(x)/FMM algorithm (CHGder, D1EAlg=3).
                        Cavity 1st derivative terms included.
 Solvent              : Generic,
                        Eps                           =   4.330000
                        Eps(infinity)                 =   1.690000
                        RSolv                         =   0.000000 Ang.
                        Molar volume                  =   0.000000 cm**3/mol
                        Thermal expansion coefficient =   0.000000 K**-1
                        Absolute temperature          = 298.150000 K
                        Numeral density               =   0.000000 Ang**-3
                        Hydrogen bond acidity         =   0.000000
                        Hydrogen bond basicity        =   0.000000
                        Surface tension at interface  =   0.000000 (cal/mol)*Ang**-2
                        Carbon aromaticity            =   0.000000
                        Electronegative halogenicity  =   0.000000
 ------------------------------------------------------------------------------
 GePol: Number of generator spheres                  =      49
 GePol: Total number of spheres                      =      49
 GePol: Number of exposed spheres                    =      48 ( 97.96%)
 GePol: Number of points                             =    2878
 GePol: Average weight of points                     =       0.13
 GePol: Minimum weight of points                     =   0.75D-11
 GePol: Maximum weight of points                     =    0.20577
 GePol: Number of points with low weight             =     194
 GePol: Fraction of low-weight points (<1% of avg)   =       6.74%
 GePol: Cavity surface area                          =    367.305 Ang**2
 GePol: Cavity volume                                =    455.208 Ang**3
 Leave Link  301 at Thu May 19 02:45:29 2022, MaxMem=  6039797760 cpu:               2.2 elap:               0.1
 (Enter /gpfs/software/gaussian/g16/l302.exe)
 NPDir=0 NMtPBC=     1 NCelOv=     1 NCel=       1 NClECP=     1 NCelD=      1
         NCelK=      1 NCelE2=     1 NClLst=     1 CellRange=     0.0.
 One-electron integrals computed using PRISM.
   1 Symmetry operations used in ECPInt.
 ECPInt:  NShTT=   54615 NPrTT=  160416 LenC2=   51029 LenP2D=  108414.
 LDataN:  DoStor=T MaxTD1= 6 Len=  172
 NBasis=   770 RedAO= T EigKep=  1.18D-04  NBF=   770
 NBsUse=   770 1.00D-06 EigRej= -1.00D+00 NBFU=   770
 Precomputing XC quadrature grid using
 IXCGrd= 4 IRadAn=           5 IRanWt=          -1 IRanGd=           0 AccXCQ= 0.00D+00.
 Generated NRdTot=       0 NPtTot=           0 NUsed=           0 NTot=          32
 NSgBfM=   855   855   855   855   855 MxSgAt=    49 MxSgA2=    49.
 Leave Link  302 at Thu May 19 02:45:30 2022, MaxMem=  6039797760 cpu:              37.8 elap:               1.4
 (Enter /gpfs/software/gaussian/g16/l303.exe)
 DipDrv:  MaxL=1.
 Leave Link  303 at Thu May 19 02:45:31 2022, MaxMem=  6039797760 cpu:               4.3 elap:               0.2
 (Enter /gpfs/software/gaussian/g16/l401.exe)
 Lowest energy guess from the checkpoint file:  "checkpoint.chk"
 B after Tr=     0.000368   -0.000501    0.000230
         Rot=    1.000000    0.000003    0.000002   -0.000001 Ang=   0.00 deg.
 Guess basis will be translated and rotated to current coordinates.
 B after Tr=    -0.001117    0.000872    0.000514
         Rot=    1.000000   -0.000002   -0.000005    0.000004 Ang=  -0.00 deg.
 Guess basis will be translated and rotated to current coordinates.
 CkInt1:  FT= 2.12D-01
 Max alpha theta=  0.672 degrees.
 JPrj=2 DoOrth=T DoCkMO=T.
 Leave Link  401 at Thu May 19 02:45:32 2022, MaxMem=  6039797760 cpu:              36.5 elap:               1.4
 (Enter /gpfs/software/gaussian/g16/l502.exe)
 Two-electron integral symmetry not used.
 Closed shell SCF:
 Using DIIS extrapolation, IDIIS=  1040.
 NGot=  6039797760 LenX=  6038276735 LenY=  6037531103
 Requested convergence on RMS density matrix=1.00D-08 within 100 cycles.
 Requested convergence on MAX density matrix=1.00D-06.
 Requested convergence on             energy=1.00D-06.
 No special actions if energy rises.
 Fock matrices will be formed incrementally for  20 cycles.

 Cycle   1  Pass 1  IDiag  1:
 FoFJK:  IHMeth= 1 ICntrl=       0 DoSepK=T KAlg= 0 I1Cent=           0 FoldK=F
 IRaf=         1 NMat=       1 IRICut=       1 DoRegI=T DoRafI=F ISym2E= 0 IDoP0=0 IntGTp=1.
 FoFCou: FMM=F IPFlag=           0 FMFlag=      100000 FMFlg1=           0
         NFxFlg=           0 DoJE=T BraDBF=F KetDBF=F FulRan=T
         wScrn=  0.000000 ICntrl=       500 IOpCl=  0 I1Cent=           0 NGrid=           0
         NMat0=    1 NMatS0=      1 NMatT0=    0 NMatD0=    1 NMtDS0=    0 NMtDT0=    0
 Symmetry not used in FoFCou.
 Inv3:  Mode=1 IEnd=    24848652.
 Iteration    1 A*A^-1 deviation from unit magnitude is 1.76D-12 for    451.
 Iteration    1 A*A^-1 deviation from orthogonality  is 7.37D-13 for    691    451.
 Iteration    1 A^-1*A deviation from unit magnitude is 7.96D-13 for    451.
 Iteration    1 A^-1*A deviation from orthogonality  is 6.73D-10 for   2760   2175.
 Iteration    2 A*A^-1 deviation from unit magnitude is 9.02D-10 for    451.
 Iteration    2 A*A^-1 deviation from orthogonality  is 8.26D-10 for    691    451.
 Iteration    2 A^-1*A deviation from unit magnitude is 2.47D-10 for    451.
 Iteration    2 A^-1*A deviation from orthogonality  is 2.55D-10 for    691    451.
 Iteration    3 A*A^-1 deviation from unit magnitude is 4.28D-10 for    451.
 Iteration    3 A*A^-1 deviation from orthogonality  is 2.73D-10 for    618    451.
 Iteration    3 A^-1*A deviation from unit magnitude is 4.38D-10 for    451.
 Iteration    3 A^-1*A deviation from orthogonality  is 4.51D-10 for    691    451.
 Iteration    4 A*A^-1 deviation from unit magnitude is 7.23D-10 for    618.
 Iteration    4 A*A^-1 deviation from orthogonality  is 9.81D-10 for    618    451.
 Iteration    4 A^-1*A deviation from unit magnitude is 4.78D-10 for    618.
 Iteration    4 A^-1*A deviation from orthogonality  is 6.71D-10 for    691    618.
 Iteration    5 A*A^-1 deviation from unit magnitude is 1.98D-10 for    691.
 Iteration    5 A*A^-1 deviation from orthogonality  is 1.92D-10 for    691    451.
 Iteration    5 A^-1*A deviation from unit magnitude is 4.56D-10 for    618.
 Iteration    5 A^-1*A deviation from orthogonality  is 6.41D-10 for    691    618.
 Iteration    6 A*A^-1 deviation from unit magnitude is 5.30D-10 for    451.
 Iteration    6 A*A^-1 deviation from orthogonality  is 3.33D-10 for    601    451.
 Iteration    6 A^-1*A deviation from unit magnitude is 5.62D-10 for    451.
 Iteration    6 A^-1*A deviation from orthogonality  is 5.81D-10 for    691    451.
 Iteration    7 A*A^-1 deviation from unit magnitude is 9.64D-10 for    451.
 Iteration    7 A*A^-1 deviation from orthogonality  is 9.04D-10 for    691    451.
 Iteration    7 A^-1*A deviation from unit magnitude is 4.86D-10 for    451.
 Iteration    7 A^-1*A deviation from orthogonality  is 6.61D-10 for    691    618.
 Iteration    8 A*A^-1 deviation from unit magnitude is 2.16D-10 for    618.
 Iteration    8 A*A^-1 deviation from orthogonality  is 2.94D-10 for    618    451.
 Iteration    8 A^-1*A deviation from unit magnitude is 5.62D-10 for    691.
 Iteration    8 A^-1*A deviation from orthogonality  is 4.88D-10 for    691    451.
 Iteration    9 A*A^-1 deviation from unit magnitude is 6.87D-10 for    451.
 Iteration    9 A*A^-1 deviation from orthogonality  is 5.83D-10 for    691    451.
 Iteration    9 A^-1*A deviation from unit magnitude is 6.46D-10 for    451.
 Iteration    9 A^-1*A deviation from orthogonality  is 6.68D-10 for    691    451.
 Iteration   10 A*A^-1 deviation from unit magnitude is 3.55D-10 for    618.
 Iteration   10 A*A^-1 deviation from orthogonality  is 4.83D-10 for    618    451.
 Iteration   10 A^-1*A deviation from unit magnitude is 3.08D-10 for    451.
 Iteration   10 A^-1*A deviation from orthogonality  is 3.18D-10 for    691    451.
 Inv3 failed in PCMMkU.
 Error termination via Lnk1e in /gpfs/software/gaussian/g16/l502.exe at Thu May 19 02:46:25 2022.
 Job cpu time:      11 days 16 hours 49 minutes 51.8 seconds.
 Elapsed time:       0 days 10 hours  4 minutes 21.6 seconds.
 File lengths (MBytes):  RWF=   2680 Int=      0 D2E=      0 Chk=     80 Scr=     16
