 Entering Gaussian System, Link 0=g16
 Initial command:
 /gpfs/software/gaussian/g16/l1.exe "/gpfs/scratch/ratwi/tests/Custodian/walltime/conf_1/Optimization/Gau-20521.inp" -scrdir="/gpfs/scratch/ratwi/tests/Custodian/walltime/conf_1/Optimization/"
 Entering Link 1 = /gpfs/software/gaussian/g16/l1.exe PID=     20522.
  
 Copyright (c) 1988-2019, Gaussian, Inc.  All Rights Reserved.
  
 This is part of the Gaussian(R) 16 program.  It is based on
 the Gaussian(R) 09 system (copyright 2009, Gaussian, Inc.),
 the Gaussian(R) 03 system (copyright 2003, Gaussian, Inc.),
 the Gaussian(R) 98 system (copyright 1998, Gaussian, Inc.),
 the Gaussian(R) 94 system (copyright 1995, Gaussian, Inc.),
 the Gaussian 92(TM) system (copyright 1992, Gaussian, Inc.),
 the Gaussian 90(TM) system (copyright 1990, Gaussian, Inc.),
 the Gaussian 88(TM) system (copyright 1988, Gaussian, Inc.),
 the Gaussian 86(TM) system (copyright 1986, Carnegie Mellon
 University), and the Gaussian 82(TM) system (copyright 1983,
 Carnegie Mellon University). Gaussian is a federally registered
 trademark of Gaussian, Inc.
  
 This software contains proprietary and confidential information,
 including trade secrets, belonging to Gaussian, Inc.
  
 This software is provided under written license and may be
 used, copied, transmitted, or stored only in accord with that
 written license.
  
 The following legend is applicable only to US Government
 contracts under FAR:
  
                    RESTRICTED RIGHTS LEGEND
  
 Use, reproduction and disclosure by the US Government is
 subject to restrictions as set forth in subparagraphs (a)
 and (c) of the Commercial Computer Software - Restricted
 Rights clause in FAR 52.227-19.
  
 Gaussian, Inc.
 340 Quinnipiac St., Bldg. 40, Wallingford CT 06492
  
  
 ---------------------------------------------------------------
 Warning -- This program may not be used in any manner that
 competes with the business of Gaussian, Inc. or will provide
 assistance to any competitor of Gaussian, Inc.  The licensee
 of this program is prohibited from giving any competitor of
 Gaussian, Inc. access to this program.  By using this program,
 the user acknowledges that Gaussian, Inc. is engaged in the
 business of creating and licensing software in the field of
 computational chemistry and represents and warrants to the
 licensee that it is not a competitor of Gaussian, Inc. and that
 it will not use this program in any manner prohibited above.
 ---------------------------------------------------------------
  

 Cite this work as:
 Gaussian 16, Revision C.01,
 M. J. Frisch, G. W. Trucks, H. B. Schlegel, G. E. Scuseria, 
 M. A. Robb, J. R. Cheeseman, G. Scalmani, V. Barone, 
 G. A. Petersson, H. Nakatsuji, X. Li, M. Caricato, A. V. Marenich, 
 J. Bloino, B. G. Janesko, R. Gomperts, B. Mennucci, H. P. Hratchian, 
 J. V. Ortiz, A. F. Izmaylov, J. L. Sonnenberg, D. Williams-Young, 
 F. Ding, F. Lipparini, F. Egidi, J. Goings, B. Peng, A. Petrone, 
 T. Henderson, D. Ranasinghe, V. G. Zakrzewski, J. Gao, N. Rega, 
 G. Zheng, W. Liang, M. Hada, M. Ehara, K. Toyota, R. Fukuda, 
 J. Hasegawa, M. Ishida, T. Nakajima, Y. Honda, O. Kitao, H. Nakai, 
 T. Vreven, K. Throssell, J. A. Montgomery, Jr., J. E. Peralta, 
 F. Ogliaro, M. J. Bearpark, J. J. Heyd, E. N. Brothers, K. N. Kudin, 
 V. N. Staroverov, T. A. Keith, R. Kobayashi, J. Normand, 
 K. Raghavachari, A. P. Rendell, J. C. Burant, S. S. Iyengar, 
 J. Tomasi, M. Cossi, J. M. Millam, M. Klene, C. Adamo, R. Cammi, 
 J. W. Ochterski, R. L. Martin, K. Morokuma, O. Farkas, 
 J. B. Foresman, and D. J. Fox, Gaussian, Inc., Wallingford CT, 2019.
 
 ******************************************
 Gaussian 16:  ES64L-G16RevC.01  3-Jul-2019
                26-Mar-2024 
 ******************************************
 %chk=Optimization.chk
 %mem=48GB
 %NProcShared=28
 Will use up to   28 processors via shared memory.
 --------------------------------------------
 #P PBE1PBE/6-311++G** Opt SCF=(MaxCycle=100)
 --------------------------------------------
 1/18=20,19=15,26=3,38=1/1,3;
 2/9=110,12=2,17=6,18=5,40=1/2;
 3/5=4,6=6,7=1111,11=2,25=1,30=1,71=1,74=-13/1,2,3;
 4//1;
 5/5=2,7=100,38=5/2;
 6/7=2,8=2,9=2,10=2,28=1/1;
 7//1,2,3,16;
 1/18=20,19=15,26=3/3(2);
 2/9=110/2;
 99//99;
 2/9=110/2;
 3/5=4,6=6,7=1111,11=2,25=1,30=1,71=1,74=-13/1,2,3;
 4/5=5,16=3,69=1/1;
 5/5=2,7=100,38=5/2;
 7//1,2,3,16;
 1/18=20,19=15,26=3/3(-5);
 2/9=110/2;
 6/7=2,8=2,9=2,10=2,19=2,28=1/1;
 99/9=1/99;
 Leave Link    1 at Tue Mar 26 01:01:40 2024, MaxMem=  6442450944 cpu:               3.9 elap:               0.2
 (Enter /gpfs/software/gaussian/g16/l101.exe)
 ---------------------
 Na1 P2 H26 C13 O3 F12
 ---------------------
 Symbolic Z-matrix:
 Charge = -1 Multiplicity = 1
 Na                    36.21247   30.24936   44.06516 
 O                     37.12251   32.31085   44.65063 
 C                     38.1448   32.53755   45.64416 
 C                     38.39673   34.04183   45.62004 
 C                     38.02938   34.42499   44.19141 
 C                     36.83818   33.51833   43.93448 
 C                     37.6915   31.99083   46.97913 
 H                     39.03958   31.99745   45.31468 
 H                     37.72956   34.54109   46.32912 
 H                     39.42443   34.28648   45.8879 
 H                     37.78161   35.47972   44.07399 
 H                     38.84653   34.18361   43.50763 
 H                     36.6904   33.26927   42.88276 
 H                     35.90898   33.95285   44.31637 
 H                     38.46754   32.15215   47.73111 
 H                     36.779    32.4978   47.30464 
 H                     37.49874   30.9185   46.91369 
 O                     35.20201   29.5397   46.04337 
 C                     34.83391   29.97873   48.33109 
 C                     35.65507   28.68311   48.16897 
 C                     34.35948   30.29765   46.90803 
 C                     35.44217   28.30414   46.70626 
 H                     35.45297   30.78377   48.72736 
 H                     33.98639   29.84949   49.00417 
 H                     36.7143   28.86979   48.34865 
 H                     35.33206   27.89087   48.84404 
 H                     34.44858   31.34589   46.62387 
 H                     33.3193   29.98686   46.7555 
 H                     34.56486   27.65244   46.58779 
 H                     36.30785   27.83237   46.24234 
 O                     35.48274   28.2938   42.98744 
 C                     35.52342   26.01021   43.47181 
 C                     34.07186   26.39346   43.19016 
 C                     36.27143   27.12205   42.76195 
 C                     34.11281   27.92141   43.21342 
 H                     35.78797   25.02089   43.09932 
 H                     35.73615   26.04621   44.54309 
 H                     33.77459   26.03375   42.20288 
 H                     33.37004   25.99269   43.92101 
 H                     36.33756   26.92641   41.6848 
 H                     37.27137   27.30509   43.15524 
 H                     33.81259   28.33043   44.18165 
 H                     33.48816   28.3735   42.44009 
 P                     39.4255   28.30443   45.3588 
 F                     38.1427   29.17661   44.82034 
 F                     38.47799   26.99176   45.43461 
 F                     40.68307   27.44532   45.88522 
 F                     39.79584   27.94224   43.82711 
 F                     40.34364   29.63086   45.27128 
 F                     39.0222   28.67904   46.87865 
 P                     32.95976   32.18027   43.39856 
 F                     32.39717   31.53965   42.02594 
 F                     31.57285   32.97501   43.61759 
 F                     34.37207   31.37167   43.17522 
 F                     32.3835   30.91595   44.22553 
 F                     33.5634   33.42923   42.56992 
 F                     33.5499   32.80651   44.77038 
 
 Add virtual bond connecting atoms O2         and Na1        Dist= 4.40D+00.
 Add virtual bond connecting atoms O18        and Na1        Dist= 4.41D+00.
 Add virtual bond connecting atoms F54        and Na1        Dist= 4.41D+00.
 Add virtual bond connecting atoms F45        and Na1        Dist= 4.41D+00.
 Add virtual bond connecting atoms F46        and H30        Dist= 4.66D+00.
 Add virtual bond connecting atoms O31        and Na1        Dist= 4.44D+00.
 ITRead=  0  0  0  0  0  0  0  0  0  0  0  0  0  0  0  0  0  0  0  0
 ITRead=  0  0  0  0  0  0  0  0  0  0  0  0  0  0  0  0  0  0  0  0
 ITRead=  0  0  0  0  0  0  0  0  0  0  0  0  0  0  0  0  0
 MicOpt= -1 -1 -1 -1 -1 -1 -1 -1 -1 -1 -1 -1 -1 -1 -1 -1 -1 -1 -1 -1
 MicOpt= -1 -1 -1 -1 -1 -1 -1 -1 -1 -1 -1 -1 -1 -1 -1 -1 -1 -1 -1 -1
 MicOpt= -1 -1 -1 -1 -1 -1 -1 -1 -1 -1 -1 -1 -1 -1 -1 -1 -1
 NAtoms=     57 NQM=       57 NQMF=       0 NMMI=      0 NMMIF=      0
                NMic=       0 NMicF=      0.
                    Isotopes and Nuclear Properties:
 (Nuclear quadrupole moments (NQMom) in fm**2, nuclear magnetic moments (NMagM)
  in nuclear magnetons)

  Atom         1           2           3           4           5           6           7           8           9          10
 IAtWgt=          23          16          12          12          12          12          12           1           1           1
 AtmWgt=  22.9897697  15.9949146  12.0000000  12.0000000  12.0000000  12.0000000  12.0000000   1.0078250   1.0078250   1.0078250
 NucSpn=           3           0           0           0           0           0           0           1           1           1
 AtZEff=  -0.0000000  -0.0000000  -0.0000000  -0.0000000  -0.0000000  -0.0000000  -0.0000000  -0.0000000  -0.0000000  -0.0000000
 NQMom=   10.4000000   0.0000000   0.0000000   0.0000000   0.0000000   0.0000000   0.0000000   0.0000000   0.0000000   0.0000000
 NMagM=    2.2175200   0.0000000   0.0000000   0.0000000   0.0000000   0.0000000   0.0000000   2.7928460   2.7928460   2.7928460
 AtZNuc=  11.0000000   8.0000000   6.0000000   6.0000000   6.0000000   6.0000000   6.0000000   1.0000000   1.0000000   1.0000000

  Atom        11          12          13          14          15          16          17          18          19          20
 IAtWgt=           1           1           1           1           1           1           1          16          12          12
 AtmWgt=   1.0078250   1.0078250   1.0078250   1.0078250   1.0078250   1.0078250   1.0078250  15.9949146  12.0000000  12.0000000
 NucSpn=           1           1           1           1           1           1           1           0           0           0
 AtZEff=  -0.0000000  -0.0000000  -0.0000000  -0.0000000  -0.0000000  -0.0000000  -0.0000000  -0.0000000  -0.0000000  -0.0000000
 NQMom=    0.0000000   0.0000000   0.0000000   0.0000000   0.0000000   0.0000000   0.0000000   0.0000000   0.0000000   0.0000000
 NMagM=    2.7928460   2.7928460   2.7928460   2.7928460   2.7928460   2.7928460   2.7928460   0.0000000   0.0000000   0.0000000
 AtZNuc=   1.0000000   1.0000000   1.0000000   1.0000000   1.0000000   1.0000000   1.0000000   8.0000000   6.0000000   6.0000000

  Atom        21          22          23          24          25          26          27          28          29          30
 IAtWgt=          12          12           1           1           1           1           1           1           1           1
 AtmWgt=  12.0000000  12.0000000   1.0078250   1.0078250   1.0078250   1.0078250   1.0078250   1.0078250   1.0078250   1.0078250
 NucSpn=           0           0           1           1           1           1           1           1           1           1
 AtZEff=  -0.0000000  -0.0000000  -0.0000000  -0.0000000  -0.0000000  -0.0000000  -0.0000000  -0.0000000  -0.0000000  -0.0000000
 NQMom=    0.0000000   0.0000000   0.0000000   0.0000000   0.0000000   0.0000000   0.0000000   0.0000000   0.0000000   0.0000000
 NMagM=    0.0000000   0.0000000   2.7928460   2.7928460   2.7928460   2.7928460   2.7928460   2.7928460   2.7928460   2.7928460
 AtZNuc=   6.0000000   6.0000000   1.0000000   1.0000000   1.0000000   1.0000000   1.0000000   1.0000000   1.0000000   1.0000000

  Atom        31          32          33          34          35          36          37          38          39          40
 IAtWgt=          16          12          12          12          12           1           1           1           1           1
 AtmWgt=  15.9949146  12.0000000  12.0000000  12.0000000  12.0000000   1.0078250   1.0078250   1.0078250   1.0078250   1.0078250
 NucSpn=           0           0           0           0           0           1           1           1           1           1
 AtZEff=  -0.0000000  -0.0000000  -0.0000000  -0.0000000  -0.0000000  -0.0000000  -0.0000000  -0.0000000  -0.0000000  -0.0000000
 NQMom=    0.0000000   0.0000000   0.0000000   0.0000000   0.0000000   0.0000000   0.0000000   0.0000000   0.0000000   0.0000000
 NMagM=    0.0000000   0.0000000   0.0000000   0.0000000   0.0000000   2.7928460   2.7928460   2.7928460   2.7928460   2.7928460
 AtZNuc=   8.0000000   6.0000000   6.0000000   6.0000000   6.0000000   1.0000000   1.0000000   1.0000000   1.0000000   1.0000000

  Atom        41          42          43          44          45          46          47          48          49          50
 IAtWgt=           1           1           1          31          19          19          19          19          19          19
 AtmWgt=   1.0078250   1.0078250   1.0078250  30.9737634  18.9984032  18.9984032  18.9984032  18.9984032  18.9984032  18.9984032
 NucSpn=           1           1           1           1           1           1           1           1           1           1
 AtZEff=  -0.0000000  -0.0000000  -0.0000000  -0.0000000  -0.0000000  -0.0000000  -0.0000000  -0.0000000  -0.0000000  -0.0000000
 NQMom=    0.0000000   0.0000000   0.0000000   0.0000000   0.0000000   0.0000000   0.0000000   0.0000000   0.0000000   0.0000000
 NMagM=    2.7928460   2.7928460   2.7928460   1.1316000   2.6288670   2.6288670   2.6288670   2.6288670   2.6288670   2.6288670
 AtZNuc=   1.0000000   1.0000000   1.0000000  15.0000000   9.0000000   9.0000000   9.0000000   9.0000000   9.0000000   9.0000000

  Atom        51          52          53          54          55          56          57
 IAtWgt=          31          19          19          19          19          19          19
 AtmWgt=  30.9737634  18.9984032  18.9984032  18.9984032  18.9984032  18.9984032  18.9984032
 NucSpn=           1           1           1           1           1           1           1
 AtZEff=  -0.0000000  -0.0000000  -0.0000000  -0.0000000  -0.0000000  -0.0000000  -0.0000000
 NQMom=    0.0000000   0.0000000   0.0000000   0.0000000   0.0000000   0.0000000   0.0000000
 NMagM=    1.1316000   2.6288670   2.6288670   2.6288670   2.6288670   2.6288670   2.6288670
 AtZNuc=  15.0000000   9.0000000   9.0000000   9.0000000   9.0000000   9.0000000   9.0000000
 Leave Link  101 at Tue Mar 26 01:01:41 2024, MaxMem=  6442450944 cpu:              11.7 elap:               0.4
 (Enter /gpfs/software/gaussian/g16/l103.exe)

 GradGradGradGradGradGradGradGradGradGradGradGradGradGradGradGradGradGrad
 Berny optimization.
 Initialization pass.
                           ----------------------------
                           !    Initial Parameters    !
                           ! (Angstroms and Degrees)  !
 --------------------------                            --------------------------
 ! Name  Definition              Value          Derivative Info.                !
 --------------------------------------------------------------------------------
 ! R1    R(1,2)                  2.3282         estimate D2E/DX2                !
 ! R2    R(1,18)                 2.3319         estimate D2E/DX2                !
 ! R3    R(1,31)                 2.3491         estimate D2E/DX2                !
 ! R4    R(1,45)                 2.3339         estimate D2E/DX2                !
 ! R5    R(1,54)                 2.3321         estimate D2E/DX2                !
 ! R6    R(2,3)                  1.4435         estimate D2E/DX2                !
 ! R7    R(2,6)                  1.4324         estimate D2E/DX2                !
 ! R8    R(3,4)                  1.5254         estimate D2E/DX2                !
 ! R9    R(3,7)                  1.5121         estimate D2E/DX2                !
 ! R10   R(3,8)                  1.0959         estimate D2E/DX2                !
 ! R11   R(4,5)                  1.524          estimate D2E/DX2                !
 ! R12   R(4,9)                  1.0942         estimate D2E/DX2                !
 ! R13   R(4,10)                 1.0898         estimate D2E/DX2                !
 ! R14   R(5,6)                  1.5189         estimate D2E/DX2                !
 ! R15   R(5,11)                 1.0898         estimate D2E/DX2                !
 ! R16   R(5,12)                 1.0925         estimate D2E/DX2                !
 ! R17   R(6,13)                 1.0909         estimate D2E/DX2                !
 ! R18   R(6,14)                 1.0946         estimate D2E/DX2                !
 ! R19   R(7,15)                 1.0926         estimate D2E/DX2                !
 ! R20   R(7,16)                 1.0935         estimate D2E/DX2                !
 ! R21   R(7,17)                 1.0915         estimate D2E/DX2                !
 ! R22   R(18,21)                1.4255         estimate D2E/DX2                !
 ! R23   R(18,22)                1.4226         estimate D2E/DX2                !
 ! R24   R(19,20)                1.5425         estimate D2E/DX2                !
 ! R25   R(19,21)                1.5336         estimate D2E/DX2                !
 ! R26   R(19,23)                1.0901         estimate D2E/DX2                !
 ! R27   R(19,24)                1.09           estimate D2E/DX2                !
 ! R28   R(20,22)                1.5259         estimate D2E/DX2                !
 ! R29   R(20,25)                1.0905         estimate D2E/DX2                !
 ! R30   R(20,26)                1.0898         estimate D2E/DX2                !
 ! R31   R(21,27)                1.0897         estimate D2E/DX2                !
 ! R32   R(21,28)                1.0963         estimate D2E/DX2                !
 ! R33   R(22,29)                1.0993         estimate D2E/DX2                !
 ! R34   R(22,30)                1.0896         estimate D2E/DX2                !
 ! R35   R(30,46)                2.4634         estimate D2E/DX2                !
 ! R36   R(31,34)                1.4303         estimate D2E/DX2                !
 ! R37   R(31,35)                1.4375         estimate D2E/DX2                !
 ! R38   R(32,33)                1.5275         estimate D2E/DX2                !
 ! R39   R(32,34)                1.5165         estimate D2E/DX2                !
 ! R40   R(32,36)                1.0897         estimate D2E/DX2                !
 ! R41   R(32,37)                1.0928         estimate D2E/DX2                !
 ! R42   R(33,35)                1.5287         estimate D2E/DX2                !
 ! R43   R(33,38)                1.092          estimate D2E/DX2                !
 ! R44   R(33,39)                1.0896         estimate D2E/DX2                !
 ! R45   R(34,40)                1.0968         estimate D2E/DX2                !
 ! R46   R(34,41)                1.09           estimate D2E/DX2                !
 ! R47   R(35,42)                1.0931         estimate D2E/DX2                !
 ! R48   R(35,43)                1.0921         estimate D2E/DX2                !
 ! R49   R(44,45)                1.642          estimate D2E/DX2                !
 ! R50   R(44,46)                1.6207         estimate D2E/DX2                !
 ! R51   R(44,47)                1.6114         estimate D2E/DX2                !
 ! R52   R(44,48)                1.6169         estimate D2E/DX2                !
 ! R53   R(44,49)                1.6156         estimate D2E/DX2                !
 ! R54   R(44,50)                1.6165         estimate D2E/DX2                !
 ! R55   R(51,52)                1.6159         estimate D2E/DX2                !
 ! R56   R(51,53)                1.6134         estimate D2E/DX2                !
 ! R57   R(51,54)                1.6427         estimate D2E/DX2                !
 ! R58   R(51,55)                1.6169         estimate D2E/DX2                !
 ! R59   R(51,56)                1.6158         estimate D2E/DX2                !
 ! R60   R(51,57)                1.6194         estimate D2E/DX2                !
 ! A1    A(2,1,18)             103.0325         estimate D2E/DX2                !
 ! A2    A(2,1,45)              90.1342         estimate D2E/DX2                !
 ! A3    A(2,1,54)              88.7572         estimate D2E/DX2                !
 ! A4    A(18,1,31)             90.0715         estimate D2E/DX2                !
 ! A5    A(18,1,45)             86.7901         estimate D2E/DX2                !
 ! A6    A(18,1,54)             97.3666         estimate D2E/DX2                !
 ! A7    A(31,1,45)             91.3025         estimate D2E/DX2                !
 ! A8    A(31,1,54)             88.877          estimate D2E/DX2                !
 ! A9    A(1,2,3)              126.0836         estimate D2E/DX2                !
 ! A10   A(1,2,6)              122.8941         estimate D2E/DX2                !
 ! A11   A(3,2,6)              110.6295         estimate D2E/DX2                !
 ! A12   A(2,3,4)              105.127          estimate D2E/DX2                !
 ! A13   A(2,3,7)              109.7895         estimate D2E/DX2                !
 ! A14   A(2,3,8)              107.0933         estimate D2E/DX2                !
 ! A15   A(4,3,7)              114.8357         estimate D2E/DX2                !
 ! A16   A(4,3,8)              110.2684         estimate D2E/DX2                !
 ! A17   A(7,3,8)              109.3907         estimate D2E/DX2                !
 ! A18   A(3,4,5)              102.8819         estimate D2E/DX2                !
 ! A19   A(3,4,9)              109.817          estimate D2E/DX2                !
 ! A20   A(3,4,10)             111.9147         estimate D2E/DX2                !
 ! A21   A(5,4,9)              110.2303         estimate D2E/DX2                !
 ! A22   A(5,4,10)             113.6555         estimate D2E/DX2                !
 ! A23   A(9,4,10)             108.257          estimate D2E/DX2                !
 ! A24   A(4,5,6)              101.3924         estimate D2E/DX2                !
 ! A25   A(4,5,11)             113.524          estimate D2E/DX2                !
 ! A26   A(4,5,12)             110.5403         estimate D2E/DX2                !
 ! A27   A(6,5,11)             112.4074         estimate D2E/DX2                !
 ! A28   A(6,5,12)             110.4159         estimate D2E/DX2                !
 ! A29   A(11,5,12)            108.4484         estimate D2E/DX2                !
 ! A30   A(2,6,5)              105.2449         estimate D2E/DX2                !
 ! A31   A(2,6,13)             108.4491         estimate D2E/DX2                !
 ! A32   A(2,6,14)             109.1915         estimate D2E/DX2                !
 ! A33   A(5,6,13)             113.93           estimate D2E/DX2                !
 ! A34   A(5,6,14)             111.7022         estimate D2E/DX2                !
 ! A35   A(13,6,14)            108.1806         estimate D2E/DX2                !
 ! A36   A(3,7,15)             109.9567         estimate D2E/DX2                !
 ! A37   A(3,7,16)             110.2028         estimate D2E/DX2                !
 ! A38   A(3,7,17)             110.8069         estimate D2E/DX2                !
 ! A39   A(15,7,16)            108.6262         estimate D2E/DX2                !
 ! A40   A(15,7,17)            108.1663         estimate D2E/DX2                !
 ! A41   A(16,7,17)            109.025          estimate D2E/DX2                !
 ! A42   A(1,18,21)            127.5076         estimate D2E/DX2                !
 ! A43   A(1,18,22)            125.9059         estimate D2E/DX2                !
 ! A44   A(21,18,22)           106.1971         estimate D2E/DX2                !
 ! A45   A(20,19,21)           103.9953         estimate D2E/DX2                !
 ! A46   A(20,19,23)           110.8663         estimate D2E/DX2                !
 ! A47   A(20,19,24)           112.2879         estimate D2E/DX2                !
 ! A48   A(21,19,23)           111.0644         estimate D2E/DX2                !
 ! A49   A(21,19,24)           110.9234         estimate D2E/DX2                !
 ! A50   A(23,19,24)           107.7376         estimate D2E/DX2                !
 ! A51   A(19,20,22)           103.5963         estimate D2E/DX2                !
 ! A52   A(19,20,25)           110.8553         estimate D2E/DX2                !
 ! A53   A(19,20,26)           112.8124         estimate D2E/DX2                !
 ! A54   A(22,20,25)           109.6329         estimate D2E/DX2                !
 ! A55   A(22,20,26)           111.8312         estimate D2E/DX2                !
 ! A56   A(25,20,26)           108.0764         estimate D2E/DX2                !
 ! A57   A(18,21,19)           105.6309         estimate D2E/DX2                !
 ! A58   A(18,21,27)           107.7563         estimate D2E/DX2                !
 ! A59   A(18,21,28)           109.0065         estimate D2E/DX2                !
 ! A60   A(19,21,27)           114.6277         estimate D2E/DX2                !
 ! A61   A(19,21,28)           111.3264         estimate D2E/DX2                !
 ! A62   A(27,21,28)           108.3005         estimate D2E/DX2                !
 ! A63   A(18,22,20)           104.7455         estimate D2E/DX2                !
 ! A64   A(18,22,29)           109.2662         estimate D2E/DX2                !
 ! A65   A(18,22,30)           108.1671         estimate D2E/DX2                !
 ! A66   A(20,22,29)           111.2161         estimate D2E/DX2                !
 ! A67   A(20,22,30)           113.88           estimate D2E/DX2                !
 ! A68   A(29,22,30)           109.3595         estimate D2E/DX2                !
 ! A69   A(1,31,34)            125.6623         estimate D2E/DX2                !
 ! A70   A(1,31,35)            116.0767         estimate D2E/DX2                !
 ! A71   A(34,31,35)           109.7575         estimate D2E/DX2                !
 ! A72   A(33,32,34)           101.4479         estimate D2E/DX2                !
 ! A73   A(33,32,36)           113.2946         estimate D2E/DX2                !
 ! A74   A(33,32,37)           110.9461         estimate D2E/DX2                !
 ! A75   A(34,32,36)           112.6978         estimate D2E/DX2                !
 ! A76   A(34,32,37)           109.7984         estimate D2E/DX2                !
 ! A77   A(36,32,37)           108.5266         estimate D2E/DX2                !
 ! A78   A(32,33,35)           102.8572         estimate D2E/DX2                !
 ! A79   A(32,33,38)           110.0444         estimate D2E/DX2                !
 ! A80   A(32,33,39)           113.3356         estimate D2E/DX2                !
 ! A81   A(35,33,38)           110.5051         estimate D2E/DX2                !
 ! A82   A(35,33,39)           112.004          estimate D2E/DX2                !
 ! A83   A(38,33,39)           108.054          estimate D2E/DX2                !
 ! A84   A(31,34,32)           104.7648         estimate D2E/DX2                !
 ! A85   A(31,34,40)           109.5239         estimate D2E/DX2                !
 ! A86   A(31,34,41)           108.1438         estimate D2E/DX2                !
 ! A87   A(32,34,40)           111.0198         estimate D2E/DX2                !
 ! A88   A(32,34,41)           114.0003         estimate D2E/DX2                !
 ! A89   A(40,34,41)           109.2084         estimate D2E/DX2                !
 ! A90   A(31,35,33)           106.3835         estimate D2E/DX2                !
 ! A91   A(31,35,42)           107.7003         estimate D2E/DX2                !
 ! A92   A(31,35,43)           109.0586         estimate D2E/DX2                !
 ! A93   A(33,35,42)           112.3409         estimate D2E/DX2                !
 ! A94   A(33,35,43)           112.8107         estimate D2E/DX2                !
 ! A95   A(42,35,43)           108.3753         estimate D2E/DX2                !
 ! A96   A(45,44,46)            89.3594         estimate D2E/DX2                !
 ! A97   A(45,44,48)            89.2705         estimate D2E/DX2                !
 ! A98   A(45,44,49)            89.4332         estimate D2E/DX2                !
 ! A99   A(45,44,50)            89.4453         estimate D2E/DX2                !
 ! A100  A(46,44,47)            90.5253         estimate D2E/DX2                !
 ! A101  A(46,44,48)            89.8159         estimate D2E/DX2                !
 ! A102  A(46,44,50)            89.8773         estimate D2E/DX2                !
 ! A103  A(47,44,48)            90.6469         estimate D2E/DX2                !
 ! A104  A(47,44,49)            90.682          estimate D2E/DX2                !
 ! A105  A(47,44,50)            90.6367         estimate D2E/DX2                !
 ! A106  A(48,44,49)            90.139          estimate D2E/DX2                !
 ! A107  A(49,44,50)            90.1408         estimate D2E/DX2                !
 ! A108  A(30,46,44)           104.7134         estimate D2E/DX2                !
 ! A109  A(52,51,53)            90.6482         estimate D2E/DX2                !
 ! A110  A(52,51,54)            89.3523         estimate D2E/DX2                !
 ! A111  A(52,51,55)            90.0213         estimate D2E/DX2                !
 ! A112  A(52,51,56)            90.0502         estimate D2E/DX2                !
 ! A113  A(53,51,55)            90.5372         estimate D2E/DX2                !
 ! A114  A(53,51,56)            90.5732         estimate D2E/DX2                !
 ! A115  A(53,51,57)            90.4451         estimate D2E/DX2                !
 ! A116  A(54,51,55)            89.4872         estimate D2E/DX2                !
 ! A117  A(54,51,56)            89.4025         estimate D2E/DX2                !
 ! A118  A(54,51,57)            89.5544         estimate D2E/DX2                !
 ! A119  A(55,51,57)            89.9429         estimate D2E/DX2                !
 ! A120  A(56,51,57)            89.9644         estimate D2E/DX2                !
 ! A121  A(1,54,51)            149.7127         estimate D2E/DX2                !
 ! A122  L(2,1,31,18,-1)       193.104          estimate D2E/DX2                !
 ! A123  L(45,1,54,2,-1)       178.8913         estimate D2E/DX2                !
 ! A124  L(22,30,46,1,-1)      179.9932         estimate D2E/DX2                !
 ! A125  L(45,44,47,46,-1)     179.8847         estimate D2E/DX2                !
 ! A126  L(46,44,49,45,-1)     178.7927         estimate D2E/DX2                !
 ! A127  L(48,44,50,45,-1)     178.7158         estimate D2E/DX2                !
 ! A128  L(1,45,44,7,-1)       182.8714         estimate D2E/DX2                !
 ! A129  L(52,51,57,53,-1)     181.0933         estimate D2E/DX2                !
 ! A130  L(53,51,54,52,-1)     180.0005         estimate D2E/DX2                !
 ! A131  L(55,51,56,52,-1)     180.0715         estimate D2E/DX2                !
 ! A132  L(2,1,31,18,-2)       179.3053         estimate D2E/DX2                !
 ! A133  L(45,1,54,2,-2)       175.9896         estimate D2E/DX2                !
 ! A134  L(22,30,46,1,-2)      170.8292         estimate D2E/DX2                !
 ! A135  L(45,44,47,46,-2)     179.9178         estimate D2E/DX2                !
 ! A136  L(46,44,49,45,-2)     180.0298         estimate D2E/DX2                !
 ! A137  L(48,44,50,45,-2)     179.7075         estimate D2E/DX2                !
 ! A138  L(1,45,44,7,-2)       175.8766         estimate D2E/DX2                !
 ! A139  L(52,51,57,53,-2)     179.9745         estimate D2E/DX2                !
 ! A140  L(53,51,54,52,-2)     179.9756         estimate D2E/DX2                !
 ! A141  L(55,51,56,52,-2)     181.1112         estimate D2E/DX2                !
 ! D1    D(18,1,2,3)            62.6253         estimate D2E/DX2                !
 ! D2    D(18,1,2,6)          -125.2546         estimate D2E/DX2                !
 ! D3    D(45,1,2,3)           -24.1109         estimate D2E/DX2                !
 ! D4    D(45,1,2,6)           148.0091         estimate D2E/DX2                !
 ! D5    D(54,1,2,3)           159.8995         estimate D2E/DX2                !
 ! D6    D(54,1,2,6)           -27.9804         estimate D2E/DX2                !
 ! D7    D(2,1,18,21)           46.7431         estimate D2E/DX2                !
 ! D8    D(2,1,18,22)         -125.0884         estimate D2E/DX2                !
 ! D9    D(31,1,18,21)        -132.5623         estimate D2E/DX2                !
 ! D10   D(31,1,18,22)          55.6063         estimate D2E/DX2                !
 ! D11   D(45,1,18,21)         136.1372         estimate D2E/DX2                !
 ! D12   D(45,1,18,22)         -35.6942         estimate D2E/DX2                !
 ! D13   D(54,1,18,21)         -43.6853         estimate D2E/DX2                !
 ! D14   D(54,1,18,22)         144.4832         estimate D2E/DX2                !
 ! D15   D(18,1,31,34)         -98.6812         estimate D2E/DX2                !
 ! D16   D(18,1,31,35)          45.8461         estimate D2E/DX2                !
 ! D17   D(45,1,31,34)         -11.8903         estimate D2E/DX2                !
 ! D18   D(45,1,31,35)         132.637          estimate D2E/DX2                !
 ! D19   D(54,1,31,34)         163.9521         estimate D2E/DX2                !
 ! D20   D(54,1,31,35)         -51.5206         estimate D2E/DX2                !
 ! D21   D(2,1,44,46)          159.7869         estimate D2E/DX2                !
 ! D22   D(2,1,44,48)         -110.35           estimate D2E/DX2                !
 ! D23   D(2,1,44,49)          -20.2421         estimate D2E/DX2                !
 ! D24   D(2,1,44,50)           69.878          estimate D2E/DX2                !
 ! D25   D(18,1,44,46)          56.8653         estimate D2E/DX2                !
 ! D26   D(18,1,44,48)         146.7284         estimate D2E/DX2                !
 ! D27   D(18,1,44,49)        -123.1636         estimate D2E/DX2                !
 ! D28   D(18,1,44,50)         -33.0436         estimate D2E/DX2                !
 ! D29   D(31,1,44,46)         -33.2361         estimate D2E/DX2                !
 ! D30   D(31,1,44,48)          56.627          estimate D2E/DX2                !
 ! D31   D(31,1,44,49)         146.7349         estimate D2E/DX2                !
 ! D32   D(31,1,44,50)        -123.145          estimate D2E/DX2                !
 ! D33   D(2,1,54,51)          -76.7863         estimate D2E/DX2                !
 ! D34   D(18,1,54,51)          26.1947         estimate D2E/DX2                !
 ! D35   D(31,1,54,51)         116.1216         estimate D2E/DX2                !
 ! D36   D(1,2,3,4)            179.0163         estimate D2E/DX2                !
 ! D37   D(1,2,3,7)            -56.9506         estimate D2E/DX2                !
 ! D38   D(1,2,3,8)             61.7217         estimate D2E/DX2                !
 ! D39   D(6,2,3,4)              6.0819         estimate D2E/DX2                !
 ! D40   D(6,2,3,7)            130.1149         estimate D2E/DX2                !
 ! D41   D(6,2,3,8)           -111.2128         estimate D2E/DX2                !
 ! D42   D(1,2,6,5)           -155.099          estimate D2E/DX2                !
 ! D43   D(1,2,6,13)           -32.8153         estimate D2E/DX2                !
 ! D44   D(1,2,6,14)            84.8556         estimate D2E/DX2                !
 ! D45   D(3,2,6,5)             18.1019         estimate D2E/DX2                !
 ! D46   D(3,2,6,13)           140.3857         estimate D2E/DX2                !
 ! D47   D(3,2,6,14)          -101.9434         estimate D2E/DX2                !
 ! D48   D(2,3,4,5)            -27.5162         estimate D2E/DX2                !
 ! D49   D(2,3,4,9)             89.8364         estimate D2E/DX2                !
 ! D50   D(2,3,4,10)          -149.9048         estimate D2E/DX2                !
 ! D51   D(7,3,4,5)           -148.2849         estimate D2E/DX2                !
 ! D52   D(7,3,4,9)            -30.9323         estimate D2E/DX2                !
 ! D53   D(7,3,4,10)            89.3265         estimate D2E/DX2                !
 ! D54   D(8,3,4,5)             87.5968         estimate D2E/DX2                !
 ! D55   D(8,3,4,9)           -155.0506         estimate D2E/DX2                !
 ! D56   D(8,3,4,10)           -34.7918         estimate D2E/DX2                !
 ! D57   D(2,3,7,15)           179.4417         estimate D2E/DX2                !
 ! D58   D(2,3,7,16)           -60.8428         estimate D2E/DX2                !
 ! D59   D(2,3,7,17)            59.9156         estimate D2E/DX2                !
 ! D60   D(4,3,7,15)           -62.3855         estimate D2E/DX2                !
 ! D61   D(4,3,7,16)            57.33           estimate D2E/DX2                !
 ! D62   D(4,3,7,17)           178.0884         estimate D2E/DX2                !
 ! D63   D(8,3,7,15)            62.196          estimate D2E/DX2                !
 ! D64   D(8,3,7,16)          -178.0885         estimate D2E/DX2                !
 ! D65   D(8,3,7,17)           -57.3301         estimate D2E/DX2                !
 ! D66   D(3,4,5,6)             37.3626         estimate D2E/DX2                !
 ! D67   D(3,4,5,11)           158.1471         estimate D2E/DX2                !
 ! D68   D(3,4,5,12)           -79.7346         estimate D2E/DX2                !
 ! D69   D(9,4,5,6)            -79.697          estimate D2E/DX2                !
 ! D70   D(9,4,5,11)            41.0875         estimate D2E/DX2                !
 ! D71   D(9,4,5,12)           163.2058         estimate D2E/DX2                !
 ! D72   D(10,4,5,6)           158.5717         estimate D2E/DX2                !
 ! D73   D(10,4,5,11)          -80.6438         estimate D2E/DX2                !
 ! D74   D(10,4,5,12)           41.4745         estimate D2E/DX2                !
 ! D75   D(4,5,6,2)            -34.4003         estimate D2E/DX2                !
 ! D76   D(4,5,6,13)          -153.0722         estimate D2E/DX2                !
 ! D77   D(4,5,6,14)            83.9706         estimate D2E/DX2                !
 ! D78   D(11,5,6,2)          -155.9669         estimate D2E/DX2                !
 ! D79   D(11,5,6,13)           85.3612         estimate D2E/DX2                !
 ! D80   D(11,5,6,14)          -37.596          estimate D2E/DX2                !
 ! D81   D(12,5,6,2)            82.7875         estimate D2E/DX2                !
 ! D82   D(12,5,6,13)          -35.8844         estimate D2E/DX2                !
 ! D83   D(12,5,6,14)         -158.8416         estimate D2E/DX2                !
 ! D84   D(1,18,21,19)        -136.3056         estimate D2E/DX2                !
 ! D85   D(1,18,21,27)         -13.3519         estimate D2E/DX2                !
 ! D86   D(1,18,21,28)         103.9721         estimate D2E/DX2                !
 ! D87   D(22,18,21,19)         36.8113         estimate D2E/DX2                !
 ! D88   D(22,18,21,27)        159.7651         estimate D2E/DX2                !
 ! D89   D(22,18,21,28)        -82.911          estimate D2E/DX2                !
 ! D90   D(1,18,22,20)         132.3678         estimate D2E/DX2                !
 ! D91   D(1,18,22,29)        -108.3963         estimate D2E/DX2                !
 ! D92   D(1,18,22,30)          10.5691         estimate D2E/DX2                !
 ! D93   D(21,18,22,20)        -40.8918         estimate D2E/DX2                !
 ! D94   D(21,18,22,29)         78.3441         estimate D2E/DX2                !
 ! D95   D(21,18,22,30)       -162.6905         estimate D2E/DX2                !
 ! D96   D(21,19,20,22)         -6.0618         estimate D2E/DX2                !
 ! D97   D(21,19,20,25)        111.458          estimate D2E/DX2                !
 ! D98   D(21,19,20,26)       -127.1791         estimate D2E/DX2                !
 ! D99   D(23,19,20,22)       -125.4957         estimate D2E/DX2                !
 ! D100  D(23,19,20,25)         -7.9759         estimate D2E/DX2                !
 ! D101  D(23,19,20,26)        113.387          estimate D2E/DX2                !
 ! D102  D(24,19,20,22)        113.933          estimate D2E/DX2                !
 ! D103  D(24,19,20,25)       -128.5472         estimate D2E/DX2                !
 ! D104  D(24,19,20,26)         -7.1843         estimate D2E/DX2                !
 ! D105  D(20,19,21,18)        -17.7008         estimate D2E/DX2                !
 ! D106  D(20,19,21,27)       -136.1663         estimate D2E/DX2                !
 ! D107  D(20,19,21,28)        100.4813         estimate D2E/DX2                !
 ! D108  D(23,19,21,18)        101.5982         estimate D2E/DX2                !
 ! D109  D(23,19,21,27)        -16.8673         estimate D2E/DX2                !
 ! D110  D(23,19,21,28)       -140.2197         estimate D2E/DX2                !
 ! D111  D(24,19,21,18)       -138.6146         estimate D2E/DX2                !
 ! D112  D(24,19,21,27)        102.9199         estimate D2E/DX2                !
 ! D113  D(24,19,21,28)        -20.4326         estimate D2E/DX2                !
 ! D114  D(19,20,22,18)         27.9567         estimate D2E/DX2                !
 ! D115  D(19,20,22,29)        -89.959          estimate D2E/DX2                !
 ! D116  D(19,20,22,30)        145.9334         estimate D2E/DX2                !
 ! D117  D(25,20,22,18)        -90.413          estimate D2E/DX2                !
 ! D118  D(25,20,22,29)        151.6713         estimate D2E/DX2                !
 ! D119  D(25,20,22,30)         27.5637         estimate D2E/DX2                !
 ! D120  D(26,20,22,18)        149.7327         estimate D2E/DX2                !
 ! D121  D(26,20,22,29)         31.817          estimate D2E/DX2                !
 ! D122  D(26,20,22,30)        -92.2906         estimate D2E/DX2                !
 ! D123  D(18,22,46,44)         42.0408         estimate D2E/DX2                !
 ! D124  D(20,22,46,44)        -70.6497         estimate D2E/DX2                !
 ! D125  D(29,22,46,44)        164.0111         estimate D2E/DX2                !
 ! D126  D(1,31,34,32)         120.6277         estimate D2E/DX2                !
 ! D127  D(1,31,34,40)        -120.2272         estimate D2E/DX2                !
 ! D128  D(1,31,34,41)          -1.3105         estimate D2E/DX2                !
 ! D129  D(35,31,34,32)        -25.741          estimate D2E/DX2                !
 ! D130  D(35,31,34,40)         93.404          estimate D2E/DX2                !
 ! D131  D(35,31,34,41)       -147.6792         estimate D2E/DX2                !
 ! D132  D(1,31,35,33)        -147.0831         estimate D2E/DX2                !
 ! D133  D(1,31,35,42)         -26.4377         estimate D2E/DX2                !
 ! D134  D(1,31,35,43)          90.9721         estimate D2E/DX2                !
 ! D135  D(34,31,35,33)          2.8521         estimate D2E/DX2                !
 ! D136  D(34,31,35,42)        123.4976         estimate D2E/DX2                !
 ! D137  D(34,31,35,43)       -119.0926         estimate D2E/DX2                !
 ! D138  D(34,32,33,35)        -34.9613         estimate D2E/DX2                !
 ! D139  D(34,32,33,38)         82.7969         estimate D2E/DX2                !
 ! D140  D(34,32,33,39)       -156.0931         estimate D2E/DX2                !
 ! D141  D(36,32,33,35)       -156.0145         estimate D2E/DX2                !
 ! D142  D(36,32,33,38)        -38.2564         estimate D2E/DX2                !
 ! D143  D(36,32,33,39)         82.8536         estimate D2E/DX2                !
 ! D144  D(37,32,33,35)         81.6257         estimate D2E/DX2                !
 ! D145  D(37,32,33,38)       -160.6161         estimate D2E/DX2                !
 ! D146  D(37,32,33,39)        -39.5061         estimate D2E/DX2                !
 ! D147  D(33,32,34,31)         37.5842         estimate D2E/DX2                !
 ! D148  D(33,32,34,40)        -80.549          estimate D2E/DX2                !
 ! D149  D(33,32,34,41)        155.6093         estimate D2E/DX2                !
 ! D150  D(36,32,34,31)        159.0547         estimate D2E/DX2                !
 ! D151  D(36,32,34,40)         40.9215         estimate D2E/DX2                !
 ! D152  D(36,32,34,41)        -82.9203         estimate D2E/DX2                !
 ! D153  D(37,32,34,31)        -79.839          estimate D2E/DX2                !
 ! D154  D(37,32,34,40)        162.0277         estimate D2E/DX2                !
 ! D155  D(37,32,34,41)         38.186          estimate D2E/DX2                !
 ! D156  D(32,33,35,31)         20.7977         estimate D2E/DX2                !
 ! D157  D(32,33,35,42)        -96.8123         estimate D2E/DX2                !
 ! D158  D(32,33,35,43)        140.3281         estimate D2E/DX2                !
 ! D159  D(38,33,35,31)        -96.6349         estimate D2E/DX2                !
 ! D160  D(38,33,35,42)        145.7552         estimate D2E/DX2                !
 ! D161  D(38,33,35,43)         22.8956         estimate D2E/DX2                !
 ! D162  D(39,33,35,31)        142.8342         estimate D2E/DX2                !
 ! D163  D(39,33,35,42)         25.2243         estimate D2E/DX2                !
 ! D164  D(39,33,35,43)        -97.6354         estimate D2E/DX2                !
 ! D165  D(45,44,46,30)        -38.2894         estimate D2E/DX2                !
 ! D166  D(47,44,46,30)        141.7928         estimate D2E/DX2                !
 ! D167  D(48,44,46,30)       -127.5619         estimate D2E/DX2                !
 ! D168  D(50,44,46,30)         51.1573         estimate D2E/DX2                !
 ! D169  D(52,51,54,1)        -145.9614         estimate D2E/DX2                !
 ! D170  D(55,51,54,1)         -55.9343         estimate D2E/DX2                !
 ! D171  D(56,51,54,1)         123.9817         estimate D2E/DX2                !
 ! D172  D(57,51,54,1)          34.0127         estimate D2E/DX2                !
 --------------------------------------------------------------------------------
 Trust Radius=3.00D-01 FncErr=1.00D-07 GrdErr=1.00D-06 EigMax=2.50D+02 EigMin=1.00D-04
 Number of steps in this run=    342 maximum allowed number of steps=    342.
 GradGradGradGradGradGradGradGradGradGradGradGradGradGradGradGradGradGrad

 Leave Link  103 at Tue Mar 26 01:01:41 2024, MaxMem=  6442450944 cpu:               1.0 elap:               0.1
 (Enter /gpfs/software/gaussian/g16/l202.exe)
 Stoichiometry    C13H26F12NaO3P2(1-)
 Framework group  C1[X(C13H26F12NaO3P2)]
 Deg. of freedom   165
 Full point group                 C1      NOp   1
 Largest Abelian subgroup         C1      NOp   1
 Largest concise Abelian subgroup C1      NOp   1
                         Standard orientation:                         
 ---------------------------------------------------------------------
 Center     Atomic      Atomic             Coordinates (Angstroms)
 Number     Number       Type             X           Y           Z
 ---------------------------------------------------------------------
      1         11           0       -0.162430   -0.058454   -0.663668
      2          8           0       -0.427027    2.252761   -0.568825
      3          6           0        0.517902    3.194750   -0.018070
      4          6           0       -0.119962    4.565011   -0.224026
      5          6           0       -0.998158    4.350045   -1.450929
      6          6           0       -1.507300    2.939120   -1.211971
      7          6           0        0.812636    2.841413    1.422358
      8          1           0        1.437265    3.111351   -0.608587
      9          1           0       -0.736822    4.821065    0.642638
     10          1           0        0.628341    5.346720   -0.353417
     11          1           0       -1.807569    5.074447   -1.538804
     12          1           0       -0.398431    4.389379   -2.363254
     13          1           0       -1.763447    2.400523   -2.125363
     14          1           0       -2.381785    2.930440   -0.553743
     15          1           0        1.535305    3.546998    1.839041
     16          1           0       -0.103493    2.887463    2.017523
     17          1           0        1.235170    1.837790    1.496729
     18          8           0       -0.049144   -0.667473    1.584482
     19          6           0        0.019319    0.074717    3.821979
     20          6           0        1.341760   -0.632434    3.461015
     21          6           0       -0.906637   -0.245708    2.642219
     22          6           0        0.997684   -1.412271    2.195338
     23          1           0        0.168680    1.149904    3.922041
     24          1           0       -0.402563   -0.290492    4.758283
     25          1           0        2.123813    0.095188    3.241817
     26          1           0        1.701470   -1.286661    4.254936
     27          1           0       -1.489877    0.600469    2.279859
     28          1           0       -1.597932   -1.060343    2.887783
     29          1           0        0.632469   -2.420715    2.436349
     30          1           0        1.820909   -1.486351    1.485399
     31          8           0        0.056730   -2.312327   -1.288322
     32          6           0        1.477598   -4.071630   -0.707741
     33          6           0        0.043601   -4.546186   -0.480426
     34          6           0        1.268405   -2.948246   -1.704670
     35          6           0       -0.761762   -3.249877   -0.568932
     36          1           0        2.135222   -4.853398   -1.087045
     37          1           0        1.907940   -3.672950    0.214234
     38          1           0       -0.252720   -5.235541   -1.273813
     39          1           0       -0.097863   -5.050268    0.475192
     40          1           0        1.145271   -3.341964   -2.720903
     41          1           0        2.061790   -2.200860   -1.703334
     42          1           0       -0.970306   -2.822250    0.415219
     43          1           0       -1.709084   -3.375245   -1.097576
     44         15           0        3.793768    0.244684   -0.472795
     45          9           0        2.155635    0.197805   -0.575505
     46          9           0        3.789197   -1.300604    0.015752
     47          9           0        5.401551    0.286904   -0.373219
     48          9           0        3.883621   -0.247171   -2.010468
     49          9           0        3.764420    1.783893   -0.962736
     50          9           0        3.667863    0.727516    1.064718
     51         15           0       -3.977237   -0.239311   -0.254533
     52          9           0       -4.429713   -1.389008   -1.295904
     53          9           0       -5.455594   -0.216799    0.391284
     54          9           0       -2.472275   -0.261729   -0.912501
     55          9           0       -3.517152   -1.375057    0.800380
     56          9           0       -4.407632    0.896918   -1.319752
     57          9           0       -3.495253    0.911975    0.777233
 ---------------------------------------------------------------------
 Rotational constants (GHZ):           0.1575696           0.0873946           0.0728318
 Leave Link  202 at Tue Mar 26 01:01:41 2024, MaxMem=  6442450944 cpu:               0.9 elap:               0.1
 (Enter /gpfs/software/gaussian/g16/l301.exe)
 Standard basis: 6-311++G(d,p) (5D, 7F)
 Ernie: Thresh=  0.10000D-02 Tol=  0.10000D-05 Strict=F.
 There are   919 symmetry adapted cartesian basis functions of A   symmetry.
 There are   888 symmetry adapted basis functions of A   symmetry.
   888 basis functions,  1392 primitive gaussians,   919 cartesian basis functions
   139 alpha electrons      139 beta electrons
       nuclear repulsion energy      4786.7086975804 Hartrees.
 IExCor= 1009 DFT=T Ex+Corr=PBE1PBE ExCW=0 ScaHFX=  0.250000
 ScaDFX=  0.750000  0.750000  1.000000  1.000000 ScalE2=  1.000000  1.000000
 IRadAn=      5 IRanWt=     -1 IRanGd=            0 ICorTp=0 IEmpDi=  4
 NAtoms=   57 NActive=   57 NUniq=   57 SFac= 1.00D+00 NAtFMM=   60 NAOKFM=F Big=F
 Integral buffers will be    131072 words long.
 Raffenetti 2 integral format.
 Two-electron integral symmetry is turned on.
 Leave Link  301 at Tue Mar 26 01:01:41 2024, MaxMem=  6442450944 cpu:               1.7 elap:               0.1
 (Enter /gpfs/software/gaussian/g16/l302.exe)
 NPDir=0 NMtPBC=     1 NCelOv=     1 NCel=       1 NClECP=     1 NCelD=      1
         NCelK=      1 NCelE2=     1 NClLst=     1 CellRange=     0.0.
 One-electron integrals computed using PRISM.
 One-electron integral symmetry used in STVInt
 NBasis=   888 RedAO= T EigKep=  1.95D-06  NBF=   888
 NBsUse=   888 1.00D-06 EigRej= -1.00D+00 NBFU=   888
 Precomputing XC quadrature grid using
 IXCGrd= 4 IRadAn=           5 IRanWt=          -1 IRanGd=           0 AccXCQ= 0.00D+00.
 Generated NRdTot=       0 NPtTot=           0 NUsed=           0 NTot=          32
 NSgBfM=   900   900   900   900   900 MxSgAt=    57 MxSgA2=    57.
 Leave Link  302 at Tue Mar 26 01:01:43 2024, MaxMem=  6442450944 cpu:              43.5 elap:               1.6
 (Enter /gpfs/software/gaussian/g16/l303.exe)
 DipDrv:  MaxL=1.
 Leave Link  303 at Tue Mar 26 01:01:43 2024, MaxMem=  6442450944 cpu:               4.3 elap:               0.2
 (Enter /gpfs/software/gaussian/g16/l401.exe)
 ExpMin= 7.60D-03 ExpMax= 7.75D+04 ExpMxC= 2.65D+03 IAcc=3 IRadAn=         5 AccDes= 0.00D+00
 Harris functional with IExCor= 1009 and IRadAn=       5 diagonalized for initial guess.
 HarFok:  IExCor= 1009 AccDes= 0.00D+00 IRadAn=         5 IDoV= 1 UseB2=F ITyADJ=14
 ICtDFT=  3500011 ScaDFX=  1.000000  1.000000  1.000000  1.000000
 FoFCou: FMM=F IPFlag=           0 FMFlag=      100000 FMFlg1=           0
         NFxFlg=           0 DoJE=T BraDBF=F KetDBF=T FulRan=T
         wScrn=  0.000000 ICntrl=       500 IOpCl=  0 I1Cent=   200000004 NGrid=           0
         NMat0=    1 NMatS0=      1 NMatT0=    0 NMatD0=    1 NMtDS0=    0 NMtDT0=    0
 Petite list used in FoFCou.
 Harris En= -2779.03610644294    
 JPrj=0 DoOrth=F DoCkMO=F.
 Leave Link  401 at Tue Mar 26 01:01:47 2024, MaxMem=  6442450944 cpu:              99.0 elap:               3.6
 (Enter /gpfs/software/gaussian/g16/l502.exe)
 Integral symmetry usage will be decided dynamically.
 Closed shell SCF:
 Using DIIS extrapolation, IDIIS=  1040.
 NGot=  6442450944 LenX=  6440725879 LenY=  6439880399
 Requested convergence on RMS density matrix=1.00D-08 within 100 cycles.
 Requested convergence on MAX density matrix=1.00D-06.
 Requested convergence on             energy=1.00D-06.
 No special actions if energy rises.
 Fock matrices will be formed incrementally for  20 cycles.

 Cycle   1  Pass 1  IDiag  1:
 FoFJK:  IHMeth= 1 ICntrl=       0 DoSepK=F KAlg= 0 I1Cent=           0 FoldK=F
 IRaf= 770000000 NMat=       1 IRICut=       1 DoRegI=T DoRafI=F ISym2E= 0 IDoP0=0 IntGTp=1.
 FoFCou: FMM=F IPFlag=           0 FMFlag=      100000 FMFlg1=           0
         NFxFlg=           0 DoJE=F BraDBF=F KetDBF=F FulRan=T
         wScrn=  0.000000 ICntrl=         0 IOpCl=  0 I1Cent=           0 NGrid=           0
         NMat0=    1 NMatS0=      1 NMatT0=    0 NMatD0=    1 NMtDS0=    0 NMtDT0=    0
 Symmetry not used in FoFCou.
 E= -2777.83932004661    
 DIIS: error= 3.37D-02 at cycle   1 NSaved=   1.
 NSaved= 1 IEnMin= 1 EnMin= -2777.83932004661     IErMin= 1 ErrMin= 3.37D-02
 ErrMax= 3.37D-02  0.00D+00 EMaxC= 1.00D-01 BMatC= 1.22D+00 BMatP= 1.22D+00
 IDIUse=3 WtCom= 6.63D-01 WtEn= 3.37D-01
 Coeff-Com:  0.100D+01
 Coeff-En:   0.100D+01
 Coeff:      0.100D+01
 Gap=     0.251 Goal=   None    Shift=    0.000
 GapD=    0.251 DampG=1.000 DampE=0.500 DampFc=0.5000 IDamp=-1.
 Damping current iteration by 5.00D-01
 RMSDP=8.03D-03 MaxDP=1.83D+00              OVMax= 1.59D-01

 Cycle   2  Pass 1  IDiag  1:
 RMSU=  3.37D-03    CP:  1.11D+00
 E= -2778.17887410925     Delta-E=       -0.339554062633 Rises=F Damp=T
 DIIS: error= 5.52D-03 at cycle   2 NSaved=   2.
 NSaved= 2 IEnMin= 2 EnMin= -2778.17887410925     IErMin= 2 ErrMin= 5.52D-03
 ErrMax= 5.52D-03  0.00D+00 EMaxC= 1.00D-01 BMatC= 6.49D-02 BMatP= 1.22D+00
 IDIUse=3 WtCom= 9.45D-01 WtEn= 5.52D-02
 Coeff-Com:  0.777D-01 0.922D+00
 Coeff-En:   0.158D+00 0.842D+00
 Coeff:      0.821D-01 0.918D+00
 Gap=     0.256 Goal=   None    Shift=    0.000
 RMSDP=2.06D-03 MaxDP=3.46D-01 DE=-3.40D-01 OVMax= 9.80D-02

 Cycle   3  Pass 1  IDiag  1:
 RMSU=  1.73D-03    CP:  1.08D+00  7.18D-01
 E= -2778.63105927213     Delta-E=       -0.452185162882 Rises=F Damp=F
 DIIS: error= 3.27D-03 at cycle   3 NSaved=   3.
 NSaved= 3 IEnMin= 3 EnMin= -2778.63105927213     IErMin= 3 ErrMin= 3.27D-03
 ErrMax= 3.27D-03  0.00D+00 EMaxC= 1.00D-01 BMatC= 1.32D-02 BMatP= 6.49D-02
 IDIUse=3 WtCom= 9.67D-01 WtEn= 3.27D-02
 Coeff-Com: -0.241D-01 0.259D+00 0.765D+00
 Coeff-En:   0.000D+00 0.000D+00 0.100D+01
 Coeff:     -0.233D-01 0.250D+00 0.773D+00
 Gap=     0.240 Goal=   None    Shift=    0.000
 RMSDP=5.44D-04 MaxDP=6.47D-02 DE=-4.52D-01 OVMax= 1.53D-02

 Cycle   4  Pass 1  IDiag  1:
 RMSU=  3.79D-04    CP:  1.09D+00  7.85D-01  8.23D-01
 E= -2778.63705438390     Delta-E=       -0.005995111767 Rises=F Damp=F
 DIIS: error= 1.63D-03 at cycle   4 NSaved=   4.
 NSaved= 4 IEnMin= 4 EnMin= -2778.63705438390     IErMin= 4 ErrMin= 1.63D-03
 ErrMax= 1.63D-03  0.00D+00 EMaxC= 1.00D-01 BMatC= 3.81D-03 BMatP= 1.32D-02
 IDIUse=3 WtCom= 9.84D-01 WtEn= 1.63D-02
 Coeff-Com: -0.162D-01 0.797D-01 0.400D+00 0.536D+00
 Coeff-En:   0.000D+00 0.000D+00 0.203D+00 0.797D+00
 Coeff:     -0.159D-01 0.784D-01 0.397D+00 0.540D+00
 Gap=     0.248 Goal=   None    Shift=    0.000
 RMSDP=3.05D-04 MaxDP=6.01D-02 DE=-6.00D-03 OVMax= 8.93D-03

 Cycle   5  Pass 1  IDiag  1:
 RMSU=  2.23D-04    CP:  1.08D+00  7.79D-01  8.55D-01  7.23D-01
 E= -2778.63962904730     Delta-E=       -0.002574663404 Rises=F Damp=F
 DIIS: error= 6.18D-04 at cycle   5 NSaved=   5.
 NSaved= 5 IEnMin= 5 EnMin= -2778.63962904730     IErMin= 5 ErrMin= 6.18D-04
 ErrMax= 6.18D-04  0.00D+00 EMaxC= 1.00D-01 BMatC= 4.26D-04 BMatP= 3.81D-03
 IDIUse=3 WtCom= 9.94D-01 WtEn= 6.18D-03
 Coeff-Com: -0.620D-02 0.122D-01 0.129D+00 0.295D+00 0.570D+00
 Coeff-En:   0.000D+00 0.000D+00 0.000D+00 0.328D-01 0.967D+00
 Coeff:     -0.617D-02 0.121D-01 0.128D+00 0.294D+00 0.572D+00
 Gap=     0.245 Goal=   None    Shift=    0.000
 RMSDP=8.46D-05 MaxDP=1.27D-02 DE=-2.57D-03 OVMax= 2.63D-03

 Cycle   6  Pass 1  IDiag  1:
 RMSU=  3.32D-05    CP:  1.08D+00  7.80D-01  8.66D-01  7.39D-01  6.89D-01
 E= -2778.63990560963     Delta-E=       -0.000276562333 Rises=F Damp=F
 DIIS: error= 7.54D-05 at cycle   6 NSaved=   6.
 NSaved= 6 IEnMin= 6 EnMin= -2778.63990560963     IErMin= 6 ErrMin= 7.54D-05
 ErrMax= 7.54D-05  0.00D+00 EMaxC= 1.00D-01 BMatC= 1.30D-05 BMatP= 4.26D-04
 IDIUse=1 WtCom= 1.00D+00 WtEn= 0.00D+00
 Coeff-Com: -0.240D-02 0.341D-02 0.484D-01 0.124D+00 0.281D+00 0.546D+00
 Coeff:     -0.240D-02 0.341D-02 0.484D-01 0.124D+00 0.281D+00 0.546D+00
 Gap=     0.245 Goal=   None    Shift=    0.000
 RMSDP=1.10D-05 MaxDP=1.37D-03 DE=-2.77D-04 OVMax= 5.61D-04

 Cycle   7  Pass 1  IDiag  1:
 RMSU=  7.51D-06    CP:  1.08D+00  7.79D-01  8.68D-01  7.30D-01  6.91D-01
                    CP:  8.66D-01
 E= -2778.63991530162     Delta-E=       -0.000009691986 Rises=F Damp=F
 DIIS: error= 9.92D-06 at cycle   7 NSaved=   7.
 NSaved= 7 IEnMin= 7 EnMin= -2778.63991530162     IErMin= 7 ErrMin= 9.92D-06
 ErrMax= 9.92D-06  0.00D+00 EMaxC= 1.00D-01 BMatC= 2.92D-07 BMatP= 1.30D-05
 IDIUse=1 WtCom= 1.00D+00 WtEn= 0.00D+00
 Coeff-Com: -0.293D-03 0.159D-03 0.528D-02 0.171D-01 0.466D-01 0.167D+00
 Coeff-Com:  0.764D+00
 Coeff:     -0.293D-03 0.159D-03 0.528D-02 0.171D-01 0.466D-01 0.167D+00
 Coeff:      0.764D+00
 Gap=     0.245 Goal=   None    Shift=    0.000
 RMSDP=3.03D-06 MaxDP=5.96D-04 DE=-9.69D-06 OVMax= 7.66D-05

 Cycle   8  Pass 1  IDiag  1:
 RMSU=  1.96D-06    CP:  1.08D+00  7.79D-01  8.68D-01  7.34D-01  6.90D-01
                    CP:  8.54D-01  7.94D-01
 E= -2778.63991550921     Delta-E=       -0.000000207591 Rises=F Damp=F
 DIIS: error= 5.42D-06 at cycle   8 NSaved=   8.
 NSaved= 8 IEnMin= 8 EnMin= -2778.63991550921     IErMin= 8 ErrMin= 5.42D-06
 ErrMax= 5.42D-06  0.00D+00 EMaxC= 1.00D-01 BMatC= 4.13D-08 BMatP= 2.92D-07
 IDIUse=1 WtCom= 1.00D+00 WtEn= 0.00D+00
 Coeff-Com:  0.110D-04-0.127D-03-0.756D-03-0.253D-03 0.262D-02 0.384D-01
 Coeff-Com:  0.338D+00 0.622D+00
 Coeff:      0.110D-04-0.127D-03-0.756D-03-0.253D-03 0.262D-02 0.384D-01
 Coeff:      0.338D+00 0.622D+00
 Gap=     0.245 Goal=   None    Shift=    0.000
 RMSDP=1.09D-06 MaxDP=2.85D-04 DE=-2.08D-07 OVMax= 1.98D-05

 Cycle   9  Pass 1  IDiag  1:
 RMSU=  5.38D-07    CP:  1.08D+00  7.79D-01  8.68D-01  7.34D-01  6.92D-01
                    CP:  8.61D-01  8.65D-01  7.87D-01
 E= -2778.63991553281     Delta-E=       -0.000000023596 Rises=F Damp=F
 DIIS: error= 1.61D-06 at cycle   9 NSaved=   9.
 NSaved= 9 IEnMin= 9 EnMin= -2778.63991553281     IErMin= 9 ErrMin= 1.61D-06
 ErrMax= 1.61D-06  0.00D+00 EMaxC= 1.00D-01 BMatC= 4.76D-09 BMatP= 4.13D-08
 IDIUse=1 WtCom= 1.00D+00 WtEn= 0.00D+00
 Coeff-Com:  0.248D-04-0.696D-04-0.797D-03-0.145D-02-0.254D-02 0.523D-02
 Coeff-Com:  0.102D+00 0.313D+00 0.585D+00
 Coeff:      0.248D-04-0.696D-04-0.797D-03-0.145D-02-0.254D-02 0.523D-02
 Coeff:      0.102D+00 0.313D+00 0.585D+00
 Gap=     0.245 Goal=   None    Shift=    0.000
 RMSDP=2.83D-07 MaxDP=8.19D-05 DE=-2.36D-08 OVMax= 6.32D-06

 Cycle  10  Pass 1  IDiag  1:
 RMSU=  1.76D-07    CP:  1.08D+00  7.79D-01  8.68D-01  7.33D-01  6.92D-01
                    CP:  8.67D-01  8.65D-01  7.76D-01  9.10D-01
 E= -2778.63991553581     Delta-E=       -0.000000003003 Rises=F Damp=F
 DIIS: error= 2.75D-07 at cycle  10 NSaved=  10.
 NSaved=10 IEnMin=10 EnMin= -2778.63991553581     IErMin=10 ErrMin= 2.75D-07
 ErrMax= 2.75D-07  0.00D+00 EMaxC= 1.00D-01 BMatC= 2.46D-10 BMatP= 4.76D-09
 IDIUse=1 WtCom= 1.00D+00 WtEn= 0.00D+00
 Coeff-Com:  0.735D-05-0.174D-04-0.256D-03-0.503D-03-0.109D-02 0.152D-03
 Coeff-Com:  0.199D-01 0.908D-01 0.252D+00 0.639D+00
 Coeff:      0.735D-05-0.174D-04-0.256D-03-0.503D-03-0.109D-02 0.152D-03
 Coeff:      0.199D-01 0.908D-01 0.252D+00 0.639D+00
 Gap=     0.245 Goal=   None    Shift=    0.000
 RMSDP=9.01D-08 MaxDP=2.37D-05 DE=-3.00D-09 OVMax= 2.07D-06

 Cycle  11  Pass 1  IDiag  1:
 RMSU=  3.23D-08    CP:  1.08D+00  7.79D-01  8.68D-01  7.33D-01  6.92D-01
                    CP:  8.66D-01  8.65D-01  7.94D-01  8.71D-01  7.79D-01
