
Running Job 1 of 1 mol.qin
qchem mol.qin_64714.0 /tmp/scratch/ 0
/clusterfs/mp/software/qchem5.4/exe/qcprog.exe_s mol.qin_64714.0 /tmp/scratch/
                  Welcome to Q-Chem
     A Quantum Leap Into The Future Of Chemistry


 Q-Chem 5.4, Q-Chem, Inc., Pleasanton, CA (2021)

 E. Epifanovsky,  A. T. B. Gilbert,  Xintian Feng,  Joonho Lee,  Yuezhi Mao,  
 N. Mardirossian,  P. Pokhilko,  A. White,  M. Wormit,  M. P. Coons,  
 A. L. Dempwolff,  Zhengting Gan,  D. Hait,  P. R. Horn,  L. D. Jacobson,  
 I. Kaliman,  J. Kussmann,  A. W. Lange,  Ka Un Lao,  D. S. Levine,  Jie Liu,  
 S. C. McKenzie,  A. F. Morrison,  K. Nanda,  F. Plasser,  D. R. Rehn,  
 M. L. Vidal,  Zhi-Qiang You,  Ying Zhu,  B. Alam,  B. Albrecht,  
 A. Aldossary,  E. Alguire,  J. H. Andersen,  D. Barton,  K. Begam,  A. Behn,  
 Y. A. Bernard,  E. J. Berquist,  H. Burton,  A. Carreras,  K. Carter-Fenk,  
 Romit Chakraborty,  A. D. Chien,  K. D. Closser,  V. Cofer-Shabica,  
 S. Dasgupta,  Jia Deng,  M. de Wergifosse,  M. Diedenhofen,  Hainam Do,  
 S. Ehlert,  Po-Tung Fang,  S. Fatehi,  Qingguo Feng,  T. Friedhoff,  
 J. Gayvert,  Qinghui Ge,  G. Gidofalvi,  M. Goldey,  J. Gomes,  
 C. Gonzalez-Espinoza,  S. Gulania,  A. Gunina,  M. W. D. Hanson-Heine,  
 P. H. P. Harbach,  A. W. Hauser,  M. F. Herbst,  M. Hernandez Vera,  
 M. Hodecker,  Z. C. Holden,  S. Houck,  Xunkun Huang,  Kerwin Hui,  
 B. C. Huynh,  M. Ivanov,  Hyunjun Ji,  Hanjie Jiang,  B. Kaduk,  S. Kaehler,  
 K. Khistyaev,  Jaehoon Kim,  P. Klunzinger,  Z. Koczor-Benda,  
 Joong Hoon Koh,  D. Kosenkov,  L. Koulias,  T. Kowalczyk,  C. M. Krauter,  
 K. Kue,  A. Kunitsa,  T. Kus,  A. Landau,  K. V. Lawler,  D. Lefrancois,  
 S. Lehtola,  Rain Li,  Yi-Pei Li,  Jiashu Liang,  M. Liebenthal,  
 Hung-Hsuan Lin,  You-Sheng Lin,  Fenglai Liu,  Kuan-Yu Liu,  
 M. Loipersberger,  A. Luenser,  A. Manjanath,  P. Manohar,  E. Mansoor,  
 S. F. Manzer,  Shan-Ping Mao,  A. V. Marenich,  T. Markovich,  S. Mason,  
 S. A. Maurer,  P. F. McLaughlin,  M. F. S. J. Menger,  J.-M. Mewes,  
 S. A. Mewes,  P. Morgante,  J. W. Mullinax,  K. J. Oosterbaan,  G. Paran,  
 Alexander C. Paul,  Suranjan K. Paul,  F. Pavosevic,  Zheng Pei,  S. Prager,  
 E. I. Proynov,  E. Ramos,  B. Rana,  A. E. Rask,  A. Rettig,  R. M. Richard,  
 F. Rob,  E. Rossomme,  T. Scheele,  M. Scheurer,  M. Schneider,  
 N. Sergueev,  S. M. Sharada,  W. Skomorowski,  D. W. Small,  C. J. Stein,  
 Yu-Chuan Su,  E. J. Sundstrom,  Zhen Tao,  J. Thirman,  T. Tsuchimochi,  
 N. M. Tubman,  S. P. Veccham,  O. Vydrov,  J. Wenzel,  J. Witte,  A. Yamada,  
 Kun Yao,  S. Yeganeh,  S. R. Yost,  A. Zech,  Igor Ying Zhang,  Xing Zhang,  
 Yu Zhang,  D. Zuev,  A. Aspuru-Guzik,  A. T. Bell,  N. A. Besley,  
 K. B. Bravaya,  B. R. Brooks,  D. Casanova,  Jeng-Da Chai,  S. Coriani,  
 C. J. Cramer,  A. E. DePrince, III,  R. A. DiStasio Jr.,  A. Dreuw,  
 B. D. Dunietz,  T. R. Furlani,  W. A. Goddard III,  S. Grimme,  
 S. Hammes-Schiffer,  T. Head-Gordon,  W. J. Hehre,  Chao-Ping Hsu,  
 T.-C. Jagau,  Yousung Jung,  A. Klamt,  Jing Kong,  D. S. Lambrecht,  
 WanZhen Liang,  N. J. Mayhall,  C. W. McCurdy,  J. B. Neaton,  T. Neudecker,  
 C. Ochsenfeld,  J. A. Parkhill,  R. Peverati,  V. A. Rassolov,  Yihan Shao,  
 L. V. Slipchenko,  R. P. Steele,  J. E. Subotnik,  A. J. W. Thom,  
 A. Tkatchenko,  D. G. Truhlar,  T. Van Voorhis,  T. A. Wesolowski,  
 K. B. Whaley,  H. L. Woodcock III,  P. M. Zimmerman,  S. Faraji,  
 P. M. W. Gill,  M. Head-Gordon,  J. M. Herbert,  A. I. Krylov

 Additional authors since Version 5.4.0: 
 Chandrima Chakravarty,  L. Cunha,  R. Kang,  Yongbin Kim,  S. Kotaru,  
 Shaozhi Li,  Xiangyuan Li,  F. Matz,  A. Molle,  V. Parravicini,  
 Haisheng Ren,  Hengyuan Shen,  Yingli Su,  Hung-Yi Tsai,  C. Utku,  
 Fang Wang,  Jeff Yang,  F. Zeller

 Contributors to earlier versions of Q-Chem not listed above: 
 R. D. Adamson,  B. Austin,  R. Baer,  J. Baker,  G. J. O. Beran,  
 K. Brandhorst,  S. T. Brown,  E. F. C. Byrd,  Arup K. Chakraborty,  
 G. K. L. Chan,  Chun-Min Chang,  Yunqing Chen,  C.-L. Cheng,  
 Siu Hung Chien,  D. M. Chipman,  D. L. Crittenden,  H. Dachsel,  
 R. J. Doerksen,  A. D. Dutoi,  R. G. Edgar,  J. Fosso-Tande,  
 L. Fusti-Molnar,  D. Ghosh,  A. Ghysels,  A. Golubeva-Zadorozhnaya,  
 J. Gonthier,  M. S. Gordon,  S. R. Gwaltney,  G. Hawkins,  J. E. Herr,  
 A. Heyden,  S. Hirata,  E. G. Hohenstein,  G. Kedziora,  F. J. Keil,  
 C. Kelley,  Jihan Kim,  R. A. King,  R. Z. Khaliullin,  P. P. Korambath,  
 W. Kurlancheek,  A. Laurent,  A. M. Lee,  M. S. Lee,  S. V. Levchenko,  
 Ching Yeh Lin,  D. Liotard,  E. Livshits,  R. C. Lochan,  I. Lotan,  
 L. A. Martinez-Martinez,  P. E. Maslen,  N. Nair,  D. P. O'Neill,  
 D. Neuhauser,  E. Neuscamman,  C. M. Oana,  R. Olivares-Amaya,  R. Olson,  
 T. M. Perrine,  B. Peters,  P. A. Pieniazek,  A. Prociuk,  Y. M. Rhee,  
 J. Ritchie,  M. A. Rohrdanz,  E. Rosta,  N. J. Russ,  H. F. Schaefer III,  
 M. W. Schmidt,  N. E. Schultz,  S. Sharma,  N. Shenvi,  C. D. Sherrill,  
 A. C. Simmonett,  A. Sodt,  T. Stein,  D. Stuck,  K. S. Thanthiriwatte,  
 V. Vanovschi,  L. Vogt,  Tao Wang,  A. Warshel,  M. A. Watson,  
 C. F. Williams,  Q. Wu,  X. Xu,  Jun Yang,  W. Zhang,  Yan Zhao

   Please cite Q-Chem as follows:
  "Software for the frontiers of quantum chemistry:
   An overview of developments in the Q-Chem 5 package"
   J. Chem. Phys. 155, 084801 (2021)
   https://doi.org/10.1063/5.0055522 (open access)

 Q-Chem 5.4.2 for Intel X86 EM64T Linux

 Parts of Q-Chem use Armadillo 9.900.5 (Nocturnal Misbehaviour).
 http://arma.sourceforge.net/

 Q-Chem begins on Sat May 28 22:15:43 2022  

 Host: 
0

     Scratch files written to /tmp/scratch//
 Dec1321 |scratch|qcdevops|jenkins|workspace|build_RNUM 7600   
 Processing $rem in /clusterfs/mp/software/qchem5.4/config/preferences:
 Processing $rem in /global/home/users/smblau/.qchemrc:
 Symmetry turned off for PCM/SM12/SMD calculation

 Checking the input file for inconsistencies... 	...done.

--------------------------------------------------------------
User input:
--------------------------------------------------------------
$molecule
1 1
N      0.2961783956      0.1685044014     -0.1601269809
C      1.3287494163     -0.7628633125      0.4294500249
C     -0.7171943372      0.5188221537      0.9067196491
C     -0.3532998012     -0.5262252199     -1.3321516816
C      0.9343948987      1.4479445296     -0.6475037803
C      2.2298757499     -0.1748735909      1.5011038080
C     -1.9974599061      1.1765781655      0.4190377870
C     -1.0928199356     -1.8143139194     -1.0060292037
C      2.0600100819      1.2924761499     -1.6577741319
C      3.1939271177     -1.2501448920      2.0053521836
C     -2.8581152798      1.5961969298      1.6106702177
C     -1.9707165425     -2.2334676574     -2.1838344530
C      2.7014567252      2.6519569034     -1.9355959829
C      4.1302537428     -0.7307281109      3.0892058685
C     -4.1780516968      2.2229621845      1.1778064927
C     -2.6989117494     -3.5454532427     -1.9249591282
C      3.8146132951      2.5637818473     -2.9728213850
H      1.9247620910     -1.1197754037     -0.4146611413
H      0.7744512212     -1.6128023701      0.8387430788
H     -0.2012829783      1.1810269617      1.6086669062
H     -0.9485199900     -0.4072898531      1.4427060329
H      0.4445618267     -0.7292176845     -2.0519764509
H     -1.0311638048      0.2021285263     -1.7881548551
H      1.2919802117      1.9725512134      0.2438880361
H      0.1283832932      2.0489627905     -1.0795415573
H      1.6409890559      0.2070472881      2.3461742219
H      2.8155334903      0.6651011889      1.1038862987
H     -2.5748942069      0.4840042133     -0.2081273054
H     -1.7785128508      2.0623266387     -0.1931433651
H     -1.7279866342     -1.6973892314     -0.1175036043
H     -0.3826053832     -2.6210043493     -0.7764718094
H      1.6791494793      0.8777932107     -2.6002789470
H      2.8318068346      0.6029235886     -1.2914495278
H      3.7830861579     -1.6288673248      1.1560079617
H      2.6162130075     -2.1048335870      2.3893407601
H     -2.2930170231      2.3074376341      2.2319612898
H     -3.0538240286      0.7169322990      2.2436126364
H     -1.3511842882     -2.3186974460     -3.0896809897
H     -2.7030630949     -1.4365865795     -2.3848188006
H      3.1011647177      3.0603646536     -0.9947024878
H      1.9285979403      3.3571672395     -2.2778642797
H      3.5637594557     -0.3737761134      3.9611145047
H      4.7364003329      0.1070773473      2.7159157079
H      4.8152552564     -1.5180940767      3.4288084658
H     -4.7711622967      1.5173220687      0.5785160736
H     -4.0052832973      3.1200683322      0.5660175087
H     -4.7794698306      2.5171700576      2.0474935390
H     -3.3444496595     -3.4648356651     -1.0387214030
H     -1.9891319478     -4.3645377395     -1.7475468234
H     -3.3267068916     -3.8253193813     -2.7795752208
H      3.4282222868      2.1894381698     -3.9317136131
H      4.6081922078      1.8791786940     -2.6403814338
H      4.2677579689      3.5475699605     -3.1503905081
O      2.5389685539     -2.3098338313     -2.2925323642
H      2.7007050194     -3.7666615818     -0.1335954530
C      2.0471491376     -4.1535146299     -0.9158603026
C      1.9486490728     -3.3749867507     -2.1641219183
C      1.3456259709     -5.2838666899     -0.7465717235
H      1.3980160953     -5.8653424602      0.1755495951
C      1.0869576204     -3.9030026296     -3.2396595123
H      1.0414769166     -3.3277855463     -4.1650939591
C      0.4595464132     -5.8136171283     -1.8202278816
C      0.3870594802     -5.0368454882     -3.0808037828
O     -0.1691972264     -6.8444577655     -1.6772873698
H     -0.2598370885     -5.4097266212     -3.8762324205
C     -1.9245864220     -7.8669021513     -3.2929378285
O     -2.4685074844     -6.8536598564     -3.4526060665
O     -1.4431948628     -8.9150354600     -3.1898472153
$end

$rem
job_type = opt
basis = def2-svpd
max_scf_cycles = 500
gen_scfman = true
xc_grid = 3
thresh = 14
s2thresh = 16
scf_algorithm = gdm
resp_charges = true
symmetry = false
sym_ignore = true
method = wb97xd
geom_opt_max_cycles = 200
solvent_method = pcm
geom_opt2 = 3
$end

$pcm
heavypoints 194
hpoints 194
radii uff
theory cpcm
vdwscale 1.1
$end

$solvent
dielectric 38.88
$end

$geom_opt
maxiter = 200
$end
--------------------------------------------------------------
 ----------------------------------------------------------------
             Standard Nuclear Orientation (Angstroms)
    I     Atom           X                Y                Z
 ----------------------------------------------------------------
    1      N       0.2961783956     0.1685044014    -0.1601269809
    2      C       1.3287494163    -0.7628633125     0.4294500249
    3      C      -0.7171943372     0.5188221537     0.9067196491
    4      C      -0.3532998012    -0.5262252199    -1.3321516816
    5      C       0.9343948987     1.4479445296    -0.6475037803
    6      C       2.2298757499    -0.1748735909     1.5011038080
    7      C      -1.9974599061     1.1765781655     0.4190377870
    8      C      -1.0928199356    -1.8143139194    -1.0060292037
    9      C       2.0600100819     1.2924761499    -1.6577741319
   10      C       3.1939271177    -1.2501448920     2.0053521836
   11      C      -2.8581152798     1.5961969298     1.6106702177
   12      C      -1.9707165425    -2.2334676574    -2.1838344530
   13      C       2.7014567252     2.6519569034    -1.9355959829
   14      C       4.1302537428    -0.7307281109     3.0892058685
   15      C      -4.1780516968     2.2229621845     1.1778064927
   16      C      -2.6989117494    -3.5454532427    -1.9249591282
   17      C       3.8146132951     2.5637818473    -2.9728213850
   18      H       1.9247620910    -1.1197754037    -0.4146611413
   19      H       0.7744512212    -1.6128023701     0.8387430788
   20      H      -0.2012829783     1.1810269617     1.6086669062
   21      H      -0.9485199900    -0.4072898531     1.4427060329
   22      H       0.4445618267    -0.7292176845    -2.0519764509
   23      H      -1.0311638048     0.2021285263    -1.7881548551
   24      H       1.2919802117     1.9725512134     0.2438880361
   25      H       0.1283832932     2.0489627905    -1.0795415573
   26      H       1.6409890559     0.2070472881     2.3461742219
   27      H       2.8155334903     0.6651011889     1.1038862987
   28      H      -2.5748942069     0.4840042133    -0.2081273054
   29      H      -1.7785128508     2.0623266387    -0.1931433651
   30      H      -1.7279866342    -1.6973892314    -0.1175036043
   31      H      -0.3826053832    -2.6210043493    -0.7764718094
   32      H       1.6791494793     0.8777932107    -2.6002789470
   33      H       2.8318068346     0.6029235886    -1.2914495278
   34      H       3.7830861579    -1.6288673248     1.1560079617
   35      H       2.6162130075    -2.1048335870     2.3893407601
   36      H      -2.2930170231     2.3074376341     2.2319612898
   37      H      -3.0538240286     0.7169322990     2.2436126364
   38      H      -1.3511842882    -2.3186974460    -3.0896809897
   39      H      -2.7030630949    -1.4365865795    -2.3848188006
   40      H       3.1011647177     3.0603646536    -0.9947024878
   41      H       1.9285979403     3.3571672395    -2.2778642797
   42      H       3.5637594557    -0.3737761134     3.9611145047
   43      H       4.7364003329     0.1070773473     2.7159157079
   44      H       4.8152552564    -1.5180940767     3.4288084658
   45      H      -4.7711622967     1.5173220687     0.5785160736
   46      H      -4.0052832973     3.1200683322     0.5660175087
   47      H      -4.7794698306     2.5171700576     2.0474935390
   48      H      -3.3444496595    -3.4648356651    -1.0387214030
   49      H      -1.9891319478    -4.3645377395    -1.7475468234
   50      H      -3.3267068916    -3.8253193813    -2.7795752208
   51      H       3.4282222868     2.1894381698    -3.9317136131
   52      H       4.6081922078     1.8791786940    -2.6403814338
   53      H       4.2677579689     3.5475699605    -3.1503905081
   54      O       2.5389685539    -2.3098338313    -2.2925323642
   55      H       2.7007050194    -3.7666615818    -0.1335954530
   56      C       2.0471491376    -4.1535146299    -0.9158603026
   57      C       1.9486490728    -3.3749867507    -2.1641219183
   58      C       1.3456259709    -5.2838666899    -0.7465717235
   59      H       1.3980160953    -5.8653424602     0.1755495951
   60      C       1.0869576204    -3.9030026296    -3.2396595123
   61      H       1.0414769166    -3.3277855463    -4.1650939591
   62      C       0.4595464132    -5.8136171283    -1.8202278816
   63      C       0.3870594802    -5.0368454882    -3.0808037828
   64      O      -0.1691972264    -6.8444577655    -1.6772873698
   65      H      -0.2598370885    -5.4097266212    -3.8762324205
   66      C      -1.9245864220    -7.8669021513    -3.2929378285
   67      O      -2.4685074844    -6.8536598564    -3.4526060665
   68      O      -1.4431948628    -8.9150354600    -3.1898472153
 ----------------------------------------------------------------
 Nuclear Repulsion Energy =        2785.36544508 hartrees
 There are      108 alpha and      108 beta electrons
 Requested basis set is def2-SVPD
 There are 388 shells and 892 basis functions

 Total QAlloc Memory Limit  96000 MB
 Mega-Array Size       188 MB
 MEM_STATIC part       192 MB
 -----------------------------------------------------------------------
                STARTING GEOMETRY OPTIMIZER USING LIBOPT3
                by Peter F. McLaughlin, Yu Zhang, Evgeny Epifanovsky
 -----------------------------------------------------------------------
  Checking Topology for Ill-Behaving Coordinates
  Done Checking Topology
              Initial Energy and Gradient Calculation

	Performing Iterative Coordinate Back-Transformation

	  Starting from Previous Position
	  iter:	0	rms: 0.000000	maxdev: 0.000000	 Success!

	Finished Iterative Coordinate Back-Transformation
 ----------------------------------------------------------------
             Standard Nuclear Orientation (Angstroms)
    I     Atom           X                Y                Z
 ----------------------------------------------------------------
    1      N       0.2961783956     0.1685044014    -0.1601269809
    2      C       1.3287494163    -0.7628633125     0.4294500249
    3      C      -0.7171943372     0.5188221537     0.9067196491
    4      C      -0.3532998012    -0.5262252199    -1.3321516816
    5      C       0.9343948987     1.4479445296    -0.6475037803
    6      C       2.2298757499    -0.1748735909     1.5011038080
    7      C      -1.9974599061     1.1765781655     0.4190377870
    8      C      -1.0928199356    -1.8143139194    -1.0060292037
    9      C       2.0600100819     1.2924761499    -1.6577741319
   10      C       3.1939271177    -1.2501448920     2.0053521836
   11      C      -2.8581152798     1.5961969298     1.6106702177
   12      C      -1.9707165425    -2.2334676574    -2.1838344530
   13      C       2.7014567252     2.6519569034    -1.9355959829
   14      C       4.1302537428    -0.7307281109     3.0892058685
   15      C      -4.1780516968     2.2229621845     1.1778064927
   16      C      -2.6989117494    -3.5454532427    -1.9249591282
   17      C       3.8146132951     2.5637818473    -2.9728213850
   18      H       1.9247620910    -1.1197754037    -0.4146611413
   19      H       0.7744512212    -1.6128023701     0.8387430788
   20      H      -0.2012829783     1.1810269617     1.6086669062
   21      H      -0.9485199900    -0.4072898531     1.4427060329
   22      H       0.4445618267    -0.7292176845    -2.0519764509
   23      H      -1.0311638048     0.2021285263    -1.7881548551
   24      H       1.2919802117     1.9725512134     0.2438880361
   25      H       0.1283832932     2.0489627905    -1.0795415573
   26      H       1.6409890559     0.2070472881     2.3461742219
   27      H       2.8155334903     0.6651011889     1.1038862987
   28      H      -2.5748942069     0.4840042133    -0.2081273054
   29      H      -1.7785128508     2.0623266387    -0.1931433651
   30      H      -1.7279866342    -1.6973892314    -0.1175036043
   31      H      -0.3826053832    -2.6210043493    -0.7764718094
   32      H       1.6791494793     0.8777932107    -2.6002789470
   33      H       2.8318068346     0.6029235886    -1.2914495278
   34      H       3.7830861579    -1.6288673248     1.1560079617
   35      H       2.6162130075    -2.1048335870     2.3893407601
   36      H      -2.2930170231     2.3074376341     2.2319612898
   37      H      -3.0538240286     0.7169322990     2.2436126364
   38      H      -1.3511842882    -2.3186974460    -3.0896809897
   39      H      -2.7030630949    -1.4365865795    -2.3848188006
   40      H       3.1011647177     3.0603646536    -0.9947024878
   41      H       1.9285979403     3.3571672395    -2.2778642797
   42      H       3.5637594557    -0.3737761134     3.9611145047
   43      H       4.7364003329     0.1070773473     2.7159157079
   44      H       4.8152552564    -1.5180940767     3.4288084658
   45      H      -4.7711622967     1.5173220687     0.5785160736
   46      H      -4.0052832973     3.1200683322     0.5660175087
   47      H      -4.7794698306     2.5171700576     2.0474935390
   48      H      -3.3444496595    -3.4648356651    -1.0387214030
   49      H      -1.9891319478    -4.3645377395    -1.7475468234
   50      H      -3.3267068916    -3.8253193813    -2.7795752208
   51      H       3.4282222868     2.1894381698    -3.9317136131
   52      H       4.6081922078     1.8791786940    -2.6403814338
   53      H       4.2677579689     3.5475699605    -3.1503905081
   54      O       2.5389685539    -2.3098338313    -2.2925323642
   55      H       2.7007050194    -3.7666615818    -0.1335954530
   56      C       2.0471491376    -4.1535146299    -0.9158603026
   57      C       1.9486490728    -3.3749867507    -2.1641219183
   58      C       1.3456259709    -5.2838666899    -0.7465717235
   59      H       1.3980160953    -5.8653424602     0.1755495951
   60      C       1.0869576204    -3.9030026296    -3.2396595123
   61      H       1.0414769166    -3.3277855463    -4.1650939591
   62      C       0.4595464132    -5.8136171283    -1.8202278816
   63      C       0.3870594802    -5.0368454882    -3.0808037828
   64      O      -0.1691972264    -6.8444577655    -1.6772873698
   65      H      -0.2598370885    -5.4097266212    -3.8762324205
   66      C      -1.9245864220    -7.8669021513    -3.2929378285
   67      O      -2.4685074844    -6.8536598564    -3.4526060665
   68      O      -1.4431948628    -8.9150354600    -3.1898472153
 ----------------------------------------------------------------
 Nuclear Repulsion Energy =        2785.36544508 hartrees
 There are      108 alpha and      108 beta electrons
 Discretize the solute cavity surface with Lebedev spheres
	Using 194 Lebedev grid points for each H atom
	Using 194 Lebedev grid points for other atoms
	Atomic van der Waals radii will be scaled by 1.10
 Remove points where switching function is < 1.0e-08
 Keep 4765 surface tesserae and discard 8427 interior tesserae
 Molecular Surface Area = 543.893 Angst**2
 Requested basis set is def2-SVPD
 There are 388 shells and 892 basis functions
 A cutoff of  1.0D-16 yielded  62605 shell pairs
 There are    327807 function pairs (    369902 Cartesian)
 Smallest overlap matrix eigenvalue = 5.98E-06

 Scale SEOQF with 1.000000e-01/1.000000e-02/1.000000e-01

 Standard Electronic Orientation quadrupole field applied
 Nucleus-field energy     =    -0.0000000393 hartrees
 Guess from superposition of atomic densities
 Warning:  Energy on first SCF cycle will be non-variational
 SAD guess density has 217.000000 electrons

 -----------------------------------------------------------------------
  General SCF calculation program by
  Eric Jon Sundstrom, Paul Horn, Yuezhi Mao, Dmitri Zuev, Alec White,
  David Stuck, Shaama M.S., Shane Yost, Joonho Lee, David Small,
  Daniel Levine, Susi Lehtola, Hugh Burton, Evgeny Epifanovsky,
  Bang C. Huynh
 -----------------------------------------------------------------------
 Exchange:     0.2220 Hartree-Fock + 1.0000 wB97X-D + LR-HF
 Correlation:  1.0000 wB97X-D
 Using SG-3 standard quadrature grid
 Dispersion:   Grimme D
 using 40 threads for integral computing
 -------------------------------------------------------
 OpenMP Integral computing Module                
 Release: version 1.0, May 2013, Q-Chem Inc. Pittsburgh 
 -------------------------------------------------------
 A restricted SCF calculation will be
 performed using Roothaan-Hall, GDM, DIIS
 SCF converges when DIIS error is below 1.0e-08
 ---------------------------------------
  Cycle       Energy         DIIS error
 ---------------------------------------
    1   -1262.4674059939      2.05e-02  Roothaan Step
 ---------------------------------------
  Cycle       Energy        RMS Gradient
 ---------------------------------------
    1   -1254.4224351268      1.65e-01   Descent step
    2   -1254.7952011557      2.12e-02   Normal BFGS step
    3   -1254.8372940495      3.36e-02   Normal BFGS step
    4   -1254.8458401055      1.84e-02   Normal BFGS step
    5   -1254.8479140711      5.47e-03   Normal BFGS step
    6   -1254.8481989575      2.17e-03   Normal BFGS step
    7   -1254.8482896594      2.62e-04   Normal BFGS step
    8   -1254.8482908834      1.85e-04   Normal BFGS step
    9   -1254.8482913610      1.11e-04   Normal BFGS step
   10   -1254.8482914712      7.84e-05  Done GDM. Switching to DIIS
 ---------------------------------------
  Cycle       Energy         DIIS error
 ---------------------------------------
    1   -1254.8482914712      1.27e-07  
    2   -1254.8482914175      1.31e-07  
    3   -1254.8482912013      2.64e-08  
    4   -1254.8482914810      8.87e-09  Convergence criterion met
 ---------------------------------------
 SCF time:   CPU 26232.86s  wall 1419.00s 

************** Final PCM Free Energy Summary **************
 G_electrostatic  =      -0.07379540 hartree =     -46.30730991 kcal/mol
 G_cavitation     =       0.00000000 hartree =       0.00000000 kcal/mol
 G_dispersion     =       0.00000000 hartree =       0.00000000 kcal/mol
 G_repulsion      =       0.00000000 hartree =       0.00000000 kcal/mol
 --------------------------------------------------
 Non-electrostatic Free Energy =       0.00000000 hartree =       0.00000000 kcal/mol
 Total                         =      -0.07379540 hartree =     -46.30730991 kcal/mol
 --------------------------------------------------
 SCF Energy (H0 + V/2)                       =   -1254.84829148 
 Solute Internal Energy (H0)                 =   -1254.77449609 
 Total Free Energy (H0 + V/2 + non-elec)     =   -1254.84829148 hartree
                                             = -787429.18757253 kcal/mol
***********************************************************

 SCF   energy in the final basis set =    -1254.8482914810
 Total energy in the final basis set =    -1254.8482914810
 
 --------------------------------------------------------------
 
                    Orbital Energies (a.u.)
 --------------------------------------------------------------
 
 Alpha MOs
 -- Occupied --
-19.3418 -19.3417 -19.2988 -19.2984 -14.5921 -10.4966 -10.4315 -10.4309
-10.3662 -10.3661 -10.3656 -10.3634 -10.3527 -10.3513 -10.3509 -10.3501
-10.3211 -10.3179 -10.3172 -10.3164 -10.3087 -10.3073 -10.3065 -10.3061
-10.2942 -10.2928 -10.2926 -10.2923  -1.2541  -1.2129  -1.1785  -1.1741
 -1.1293  -0.9709  -0.9277  -0.9217  -0.9202  -0.9022  -0.8969  -0.8535
 -0.8517  -0.8489  -0.8134  -0.8091  -0.7681  -0.7663  -0.7462  -0.7458
 -0.7108  -0.6963  -0.6919  -0.6897  -0.6887  -0.6770  -0.6510  -0.6382
 -0.6303  -0.6216  -0.6140  -0.6133  -0.6125  -0.6116  -0.6064  -0.6021
 -0.5860  -0.5810  -0.5732  -0.5683  -0.5587  -0.5526  -0.5477  -0.5399
 -0.5352  -0.5283  -0.5253  -0.5245  -0.5221  -0.5176  -0.5157  -0.5108
 -0.5085  -0.5020  -0.5004  -0.4894  -0.4794  -0.4784  -0.4689  -0.4604
 -0.4598  -0.4579  -0.4574  -0.4485  -0.4439  -0.4398  -0.4386  -0.4354
 -0.4340  -0.4281  -0.4269  -0.4268  -0.4233  -0.4208  -0.4199  -0.4172
 -0.4008  -0.3939  -0.3901  -0.3765
 -- Virtual --
 -0.0851   0.0284   0.0572   0.0664   0.0764   0.0824   0.0829   0.0876
  0.1008   0.1017   0.1029   0.1072   0.1090   0.1108   0.1137   0.1151
  0.1195   0.1232   0.1246   0.1264   0.1306   0.1381   0.1414   0.1430
  0.1468   0.1474   0.1520   0.1554   0.1557   0.1604   0.1650   0.1676
  0.1690   0.1708   0.1756   0.1783   0.1806   0.1822   0.1841   0.1867
  0.1870   0.1911   0.1941   0.1962   0.1973   0.1988   0.1997   0.2014
  0.2024   0.2066   0.2082   0.2119   0.2129   0.2159   0.2176   0.2197
  0.2229   0.2241   0.2264   0.2281   0.2317   0.2324   0.2350   0.2398
  0.2444   0.2452   0.2468   0.2484   0.2518   0.2542   0.2563   0.2572
  0.2583   0.2611   0.2633   0.2651   0.2700   0.2718   0.2736   0.2768
  0.2789   0.2807   0.2845   0.2847   0.2901   0.2910   0.2924   0.2948
  0.2981   0.3030   0.3051   0.3066   0.3081   0.3097   0.3128   0.3188
  0.3216   0.3231   0.3262   0.3324   0.3338   0.3357   0.3377   0.3399
  0.3446   0.3459   0.3502   0.3533   0.3549   0.3566   0.3598   0.3621
  0.3637   0.3662   0.3712   0.3714   0.3742   0.3769   0.3798   0.3820
  0.3835   0.3854   0.3897   0.3907   0.3931   0.3941   0.3950   0.3977
  0.4015   0.4032   0.4048   0.4068   0.4085   0.4119   0.4131   0.4167
  0.4184   0.4197   0.4211   0.4226   0.4237   0.4251   0.4260   0.4289
  0.4299   0.4324   0.4335   0.4347   0.4378   0.4395   0.4443   0.4455
  0.4467   0.4473   0.4486   0.4499   0.4507   0.4522   0.4556   0.4578
  0.4586   0.4610   0.4620   0.4646   0.4658   0.4691   0.4701   0.4717
  0.4745   0.4768   0.4776   0.4791   0.4818   0.4829   0.4860   0.4873
  0.4903   0.4907   0.4961   0.4983   0.5002   0.5032   0.5042   0.5065
  0.5083   0.5099   0.5135   0.5165   0.5168   0.5216   0.5232   0.5250
  0.5267   0.5276   0.5299   0.5318   0.5365   0.5385   0.5397   0.5424
  0.5436   0.5465   0.5466   0.5503   0.5526   0.5544   0.5557   0.5596
  0.5606   0.5627   0.5641   0.5646   0.5667   0.5716   0.5737   0.5755
  0.5769   0.5808   0.5833   0.5868   0.5889   0.5920   0.5937   0.5941
  0.5968   0.5988   0.5998   0.6013   0.6020   0.6072   0.6087   0.6120
  0.6154   0.6170   0.6188   0.6206   0.6230   0.6255   0.6286   0.6313
  0.6334   0.6360   0.6385   0.6388   0.6423   0.6454   0.6466   0.6480
  0.6499   0.6519   0.6547   0.6560   0.6617   0.6654   0.6664   0.6683
  0.6705   0.6738   0.6779   0.6813   0.6815   0.6842   0.6861   0.6892
  0.6917   0.6931   0.6967   0.6991   0.7013   0.7036   0.7056   0.7085
  0.7110   0.7125   0.7145   0.7160   0.7184   0.7235   0.7284   0.7305
  0.7321   0.7339   0.7373   0.7380   0.7408   0.7444   0.7482   0.7505
  0.7506   0.7577   0.7598   0.7618   0.7644   0.7660   0.7686   0.7724
  0.7744   0.7790   0.7812   0.7846   0.7884   0.7913   0.7929   0.7946
  0.7976   0.7999   0.8060   0.8099   0.8134   0.8164   0.8195   0.8219
  0.8248   0.8269   0.8319   0.8330   0.8381   0.8406   0.8429   0.8463
  0.8479   0.8501   0.8547   0.8579   0.8628   0.8662   0.8688   0.8720
  0.8764   0.8786   0.8807   0.8828   0.8892   0.8911   0.8939   0.8974
  0.9038   0.9049   0.9054   0.9081   0.9125   0.9192   0.9209   0.9233
  0.9269   0.9292   0.9327   0.9359   0.9385   0.9440   0.9460   0.9544
  0.9559   0.9598   0.9666   0.9683   0.9698   0.9766   0.9810   0.9850
  0.9924   0.9969   0.9996   1.0022   1.0043   1.0133   1.0243   1.0264
  1.0328   1.0355   1.0371   1.0392   1.0459   1.0537   1.0551   1.0587
  1.0633   1.0683   1.0764   1.0795   1.0835   1.0892   1.0901   1.0944
  1.0950   1.0988   1.1027   1.1071   1.1099   1.1159   1.1164   1.1195
  1.1233   1.1265   1.1288   1.1345   1.1364   1.1452   1.1474   1.1523
  1.1548   1.1565   1.1594   1.1633   1.1702   1.1717   1.1757   1.1803
  1.1870   1.1933   1.1951   1.1972   1.2016   1.2065   1.2085   1.2133
  1.2240   1.2291   1.2328   1.2386   1.2419   1.2426   1.2513   1.2572
  1.2636   1.2683   1.2718   1.2803   1.2867   1.2897   1.2923   1.3011
  1.3115   1.3149   1.3210   1.3245   1.3275   1.3310   1.3367   1.3395
  1.3478   1.3505   1.3576   1.3614   1.3644   1.3693   1.3738   1.3772
  1.3829   1.3927   1.3961   1.4042   1.4112   1.4188   1.4209   1.4229
  1.4320   1.4340   1.4432   1.4471   1.4557   1.4603   1.4632   1.4661
  1.4773   1.4839   1.4927   1.4966   1.5024   1.5093   1.5102   1.5168
  1.5232   1.5301   1.5337   1.5425   1.5459   1.5480   1.5513   1.5539
  1.5613   1.5662   1.5686   1.5752   1.5784   1.5852   1.5876   1.5934
  1.6072   1.6120   1.6196   1.6242   1.6251   1.6392   1.6454   1.6538
  1.6555   1.6716   1.6786   1.6810   1.6856   1.6874   1.6952   1.7009
  1.7082   1.7120   1.7170   1.7215   1.7308   1.7387   1.7514   1.7529
  1.7565   1.7651   1.7728   1.7796   1.7824   1.7856   1.7946   1.7978
  1.8027   1.8063   1.8148   1.8169   1.8270   1.8323   1.8369   1.8434
  1.8447   1.8491   1.8550   1.8620   1.8630   1.8664   1.8723   1.8769
  1.8788   1.8882   1.8923   1.9005   1.9035   1.9099   1.9117   1.9181
  1.9192   1.9271   1.9313   1.9326   1.9398   1.9418   1.9460   1.9583
  1.9629   1.9638   1.9685   1.9701   1.9743   1.9805   1.9843   1.9884
  1.9946   1.9961   2.0022   2.0031   2.0057   2.0163   2.0253   2.0311
  2.0332   2.0350   2.0375   2.0398   2.0433   2.0463   2.0511   2.0549
  2.0570   2.0627   2.0647   2.0746   2.0777   2.0857   2.0904   2.0940
  2.0994   2.1046   2.1053   2.1094   2.1153   2.1166   2.1255   2.1303
  2.1354   2.1368   2.1403   2.1456   2.1470   2.1506   2.1551   2.1589
  2.1669   2.1679   2.1742   2.1793   2.1863   2.1914   2.1957   2.2000
  2.2090   2.2168   2.2222   2.2266   2.2416   2.2440   2.2495   2.2587
  2.2741   2.2770   2.2843   2.2935   2.3010   2.3066   2.3117   2.3118
  2.3167   2.3218   2.3260   2.3272   2.3383   2.3459   2.3482   2.3499
  2.3600   2.3691   2.3761   2.3787   2.3853   2.3900   2.3963   2.4038
  2.4104   2.4138   2.4141   2.4170   2.4272   2.4344   2.4429   2.4452
  2.4611   2.4694   2.4737   2.4796   2.4922   2.4954   2.5069   2.5111
  2.5231   2.5273   2.5303   2.5374   2.5523   2.5572   2.5645   2.5698
  2.5775   2.5858   2.5885   2.5976   2.6057   2.6204   2.6241   2.6353
  2.6378   2.6404   2.6503   2.6578   2.6596   2.6655   2.6674   2.6789
  2.6837   2.6879   2.7017   2.7102   2.7206   2.7270   2.7326   2.7402
  2.7416   2.7497   2.7523   2.7570   2.7643   2.7705   2.7707   2.7780
  2.7862   2.7934   2.8027   2.8108   2.8185   2.8224   2.8310   2.8328
  2.8463   2.8574   2.8897   2.8966   2.9014   2.9026   2.9090   2.9140
  2.9220   2.9288   2.9309   2.9354   2.9441   2.9497   2.9556   2.9666
  2.9770   2.9833   2.9880   2.9966   3.0067   3.0069   3.0134   3.0217
  3.0301   3.0403   3.0649   3.0691   3.0783   3.0869   3.1108   3.1197
  3.1256   3.1346   3.1413   3.1465   3.1562   3.1584   3.1728   3.1771
  3.1843   3.1934   3.2006   3.2119   3.2208   3.2296   3.2448   3.2552
  3.2618   3.2679   3.2703   3.2809   3.2851   3.2883   3.2969   3.3134
  3.3216   3.3236   3.3336   3.3347   3.3467   3.3495   3.3671   3.3713
  3.4013   3.4135   3.4441   3.4487   3.5126   3.5222   3.5320   3.5810
  3.5850   3.6285   3.7081   3.7217   3.8013   3.9224   3.9539   4.2287
 --------------------------------------------------------------
 
          Ground-State Mulliken Net Atomic Charges

     Atom                 Charge (a.u.)
  ----------------------------------------
      1 N                    -2.310695
      2 C                    -0.116357
      3 C                     0.298565
      4 C                     0.460744
      5 C                     0.497514
      6 C                     0.452139
      7 C                     0.233672
      8 C                     0.114396
      9 C                    -0.032000
     10 C                    -0.086999
     11 C                    -0.100930
     12 C                    -0.060088
     13 C                    -0.022523
     14 C                     0.708026
     15 C                     0.595722
     16 C                     1.120862
     17 C                     0.622725
     18 H                    -0.469014
     19 H                    -0.174188
     20 H                    -0.251610
     21 H                     0.015017
     22 H                    -0.269701
     23 H                    -0.256144
     24 H                    -0.091518
     25 H                    -0.335499
     26 H                     0.020609
     27 H                    -0.132964
     28 H                     0.002515
     29 H                     0.038559
     30 H                    -0.053083
     31 H                     0.035323
     32 H                     0.123600
     33 H                    -0.140400
     34 H                     0.086692
     35 H                     0.034471
     36 H                    -0.018132
     37 H                     0.051497
     38 H                     0.000310
     39 H                     0.020292
     40 H                     0.057443
     41 H                     0.014939
     42 H                     0.090826
     43 H                     0.102706
     44 H                    -0.009464
     45 H                     0.076293
     46 H                     0.090142
     47 H                     0.004330
     48 H                     0.139865
     49 H                    -0.381562
     50 H                     0.055302
     51 H                     0.104313
     52 H                     0.084696
     53 H                    -0.001417
     54 O                    -0.408494
     55 H                    -0.210397
     56 C                     0.569626
     57 C                     0.105048
     58 C                    -0.373649
     59 H                     0.181451
     60 C                    -0.000329
     61 H                     0.125914
     62 C                     0.414219
     63 C                     0.025001
     64 O                    -0.481989
     65 H                     0.041208
     66 C                     0.956579
     67 O                    -0.489476
     68 O                    -0.494528
  ----------------------------------------
  Sum of atomic charges =     1.000000

  Building new vdw surfaces
         Merz-Kollman RESP Net Atomic Charges

     Atom                 Charge (a.u.)
  ----------------------------------------
      1 N                     0.881271
      2 C                    -0.280390
      3 C                    -0.440546
      4 C                    -0.312482
      5 C                    -0.372402
      6 C                    -0.090373
      7 C                    -0.085311
      8 C                    -0.241368
      9 C                     0.066533
     10 C                     0.254749
     11 C                     0.141766
     12 C                     0.198909
     13 C                     0.109317
     14 C                    -0.635120
     15 C                    -0.506720
     16 C                    -0.546658
     17 C                    -0.511475
     18 H                     0.073748
     19 H                     0.072216
     20 H                     0.147537
     21 H                     0.147537
     22 H                     0.103075
     23 H                     0.103075
     24 H                     0.103075
     25 H                     0.103075
     26 H                     0.058128
     27 H                     0.058128
     28 H                     0.091608
     29 H                     0.091608
     30 H                     0.109789
     31 H                     0.109789
     32 H                     0.045081
     33 H                     0.045081
     34 H                     0.019319
     35 H                     0.019319
     36 H                     0.032705
     37 H                     0.032705
     38 H                     0.022622
     39 H                     0.022622
     40 H                     0.032705
     41 H                     0.032705
     42 H                     0.157074
     43 H                     0.157074
     44 H                     0.157074
     45 H                     0.129219
     46 H                     0.129219
     47 H                     0.129219
     48 H                     0.145771
     49 H                     0.145771
     50 H                     0.145771
     51 H                     0.130661
     52 H                     0.130661
     53 H                     0.130661
     54 O                    -0.585111
     55 H                     0.122075
     56 C                    -0.076010
     57 C                     0.698908
     58 C                    -0.407442
     59 H                     0.232186
     60 C                    -0.313048
     61 H                     0.211680
     62 C                     0.688896
     63 C                    -0.210670
     64 O                    -0.519360
     65 H                     0.197060
     66 C                     0.778288
     67 O                    -0.414691
     68 O                    -0.397894
  ----------------------------------------
  Sum of atomic charges =     1.000000

  Related Dipole Moment =     1.9911 (X  1.7604 Y  0.6190 Z -0.6945)

 -----------------------------------------------------------------
                    Cartesian Multipole Moments
 -----------------------------------------------------------------
    Charge (ESU x 10^10)
                 4.8032
    Dipole Moment (Debye)
         X       1.8038      Y       0.5403      Z      -0.6889
       Tot       2.0051
    Quadrupole Moments (Debye-Ang)
        XX    -160.9558     XY      -9.9057     YY    -178.4327
        XZ       2.4529     YZ       0.3676     ZZ    -153.4526
    Octopole Moments (Debye-Ang^2)
       XXX    -163.6906    XXY     309.3496    XYY      20.3622
       YYY    1236.1182    XXZ     185.1088    XYZ      -5.6401
       YYZ     189.4549    XZZ     -55.8228    YZZ     271.7668
       ZZZ     421.9811
    Hexadecapole Moments (Debye-Ang^3)
      XXXX   -5606.9241   XXXY    -356.3539   XXYY   -3210.4602
      XYYY    -749.0847   YYYY  -17837.7182   XXXZ     -20.8218
      XXYZ    -843.9159   XYYZ     -82.7336   YYYZ   -3052.4080
      XXZZ   -1741.8254   XYZZ    -141.1565   YYZZ   -3036.4633
      XZZZ     -64.7070   YZZZ   -2139.9037   ZZZZ   -4357.8575
 -----------------------------------------------------------------
 Calculating analytic gradient of the SCF energy
 Gradient of SCF Energy
            1           2           3           4           5           6
    1  -0.0065707   0.0015885  -0.0015364   0.0140105   0.0149603   0.0105508
    2  -0.0200353   0.0147479  -0.0040405   0.0021556  -0.0265421  -0.0604184
    3  -0.0002202  -0.0028165  -0.0249326   0.0303030   0.0111551   0.0102756
            7           8           9          10          11          12
    1  -0.0119943  -0.0155533  -0.0056657  -0.0033791   0.0002985   0.0022488
    2   0.0215932   0.0041704   0.0609651   0.0249601   0.0059417  -0.0116364
    3   0.0515364  -0.0613008  -0.0014017  -0.0002169  -0.0225114   0.0242583
           13          14          15          16          17          18
    1   0.0114698   0.0246976  -0.0232713  -0.0363048   0.0184773   0.0237762
    2  -0.0256698  -0.0095320   0.0142703  -0.0233848   0.0159744   0.0062078
    3  -0.0033960   0.0228018   0.0137980  -0.0242632  -0.0132427  -0.0189462
           19          20          21          22          23          24
    1  -0.0167084   0.0181732  -0.0180854  -0.0015946  -0.0091105   0.0152552
    2  -0.0247025   0.0344160  -0.0442223  -0.0208405   0.0209782   0.0208346
    3   0.0127255   0.0246908   0.0086023  -0.0104344  -0.0262426   0.0354219
           25          26          27          28          29          30
    1  -0.0210191  -0.0421356   0.0333841  -0.0294271   0.0177181  -0.0265449
    2   0.0172299   0.0050055   0.0283120  -0.0571314   0.0488390  -0.0041590
    3  -0.0450567   0.0339598  -0.0282353  -0.0120078  -0.0110423   0.0342912
           31          32          33          34          35          36
    1   0.0622600  -0.0380763   0.0365796   0.0192949  -0.0369147   0.0298149
    2  -0.0261944  -0.0070750  -0.0155243   0.0047754  -0.0261257   0.0267937
    3  -0.0064805  -0.0376844   0.0163187  -0.0356884   0.0096071   0.0159468
           37          38          39          40          41          42
    1  -0.0008459   0.0322441  -0.0200470   0.0104175  -0.0360603  -0.0196106
    2  -0.0405091   0.0036371   0.0397557   0.0033736   0.0177595   0.0099529
    3   0.0171106  -0.0288102   0.0040932   0.0405741  -0.0124511   0.0236202
           43          44          45          46          47          48
    1   0.0167402   0.0194971  -0.0159503   0.0103969  -0.0169680  -0.0199642
    2   0.0248448  -0.0274703  -0.0264516   0.0284420   0.0084271   0.0053738
    3  -0.0164185   0.0108430  -0.0164426  -0.0181158   0.0281884   0.0231035
           49          50          51          52          53          54
    1   0.0398059  -0.0210503  -0.0156552   0.0199008   0.0121033   0.0158135
    2  -0.0177211  -0.0030245  -0.0094515  -0.0196142   0.0296676   0.0499870
    3   0.0118803  -0.0210128  -0.0253418   0.0145212  -0.0033550   0.0015154
           55          56          57          58          59          60
    1   0.0449848   0.0251052  -0.0253934  -0.0210667   0.0068925   0.0251382
    2  -0.0096317   0.0783040  -0.0385904  -0.0413947  -0.0295228   0.0598141
    3   0.0375564   0.0174396   0.0231526  -0.0476902   0.0543990   0.0074450
           61          62          63          64          65          66
    1   0.0016423  -0.0087848  -0.0345717  -0.0240380  -0.0134667   0.0076919
    2   0.0342363   0.0217807  -0.0661008  -0.0382621  -0.0201215  -0.0057497
    3  -0.0622939   0.0155480   0.0063443  -0.0048508  -0.0529739   0.0025699
           67          68
    1  -0.0239132   0.0183461
    2   0.0459063  -0.0385830
    3  -0.0047442   0.0050245
 Max gradient component =       7.830E-02
 RMS gradient           =       2.644E-02
 Computing fast CPCM-SWIG gradient
 Updating gradient with PCM contributions...
 -- total gradient after adding PCM contribution --
---------------------------------------------------
  Atom         X              Y              Z     
---------------------------------------------------
   1      -0.000181       0.000532       0.000088
   2      -0.000057      -0.001097       0.000480
   3       0.000030       0.000104      -0.000315
   4       0.000437      -0.000212      -0.000341
   5      -0.000083      -0.000312       0.000344
   6       0.000033       0.000039      -0.000278
   7      -0.000184      -0.000083       0.000127
   8       0.000481      -0.000138      -0.000589
   9       0.000398       0.000231      -0.000119
  10       0.000349       0.000162       0.000311
  11       0.000044      -0.000081      -0.000105
  12       0.000024      -0.000083       0.000356
  13      -0.000135      -0.000088       0.000039
  14      -0.000171      -0.000063      -0.000060
  15      -0.000014      -0.000015       0.000049
  16       0.000082      -0.000527       0.000173
  17       0.000034       0.000028       0.000070
  18      -0.000988       0.001091      -0.000556
  19       0.000036       0.000260       0.000054
  20      -0.000001       0.000091      -0.000037
  21       0.000029       0.000037       0.000060
  22       0.000255      -0.000149       0.000061
  23      -0.000402      -0.000058       0.000227
  24       0.000045      -0.000065      -0.000000
  25      -0.000037       0.000027      -0.000075
  26       0.000070       0.000102       0.000137
  27       0.000089      -0.000018       0.000058
  28       0.000084       0.000008      -0.000069
  29       0.000051       0.000052       0.000008
  30      -0.000134       0.000235       0.000135
  31       0.000200      -0.000425      -0.000224
  32      -0.000064      -0.000052       0.000140
  33      -0.000172      -0.000014      -0.000126
  34      -0.000179      -0.000058       0.000020
  35       0.000030      -0.000103      -0.000229
  36      -0.000014       0.000026       0.000010
  37       0.000003      -0.000002       0.000022
  38       0.000175       0.000111       0.000083
  39      -0.000257       0.000191       0.000023
  40      -0.000012       0.000031       0.000030
  41       0.000016       0.000028      -0.000071
  42      -0.000001       0.000032       0.000045
  43       0.000037       0.000028      -0.000001
  44       0.000034      -0.000015       0.000055
  45      -0.000000      -0.000002      -0.000022
  46       0.000007       0.000000      -0.000026
  47      -0.000011       0.000018      -0.000004
  48      -0.000176       0.000269       0.000022
  49       0.000137       0.000261      -0.000266
  50      -0.000103       0.000078       0.000069
  51      -0.000002      -0.000002      -0.000008
  52       0.000013      -0.000008       0.000001
  53       0.000031       0.000014      -0.000029
  54       0.003202       0.005463      -0.000217
  55      -0.000184      -0.000761       0.000673
  56       0.001073       0.005175      -0.005839
  57      -0.004725      -0.009487       0.001956
  58       0.000403       0.000797      -0.001077
  59       0.000198      -0.000464       0.000712
  60       0.003534       0.003796       0.003621
  61      -0.000303      -0.000467      -0.000722
  62      -0.003767      -0.002499       0.000638
  63      -0.000549      -0.005152       0.004212
  64      -0.001733      -0.000426      -0.004209
  65      -0.000179       0.001086      -0.001970
  66       0.006690       0.001044       0.004833
  67      -0.001840       0.000376      -0.001278
  68      -0.001692       0.001101      -0.001081
---------------------------------------------------
 Number of fixed atoms: 0
 Gradient time:  CPU 5095.86 s  wall 329.63 s
Initial Energy: -1.25484829e+03

 *****************************************************
             Starting BFGS Algorithm
 *****************************************************
            LIBOPT3 RUN PARAMETERS

  Geometry Optimization Coordinates :
	Internal Coordinates

  Step Length Selection Method :
	Eigenvector Following Algorithm

  Convergence Criteria :
	Max Gradient Component    	3.00000000e-04
	Max Displacement Component	1.20000000e-03
	Absolute Energy Difference	1.00000000e-06

  Initial Hessian :
	Approximate Hessian - Simple Internal Coordinate Scaled

  Type of Verification :
	Verify with final updated Hessian
 *****************************************************

	OPTIMIZATION CYCLE:	1

 All Eigenvalues from Projected Hessian
   0.10000000   0.10000000   0.10000000   0.10000000   0.10000000
   0.10000000   0.10000000   0.10000000   0.10000000   0.10000000
   0.10000000   0.10000000   0.10000000   0.10000000   0.10000000
   0.10000000   0.10000000   0.10000000   0.10000000   0.10000000
   0.10000000   0.10000000   0.10000000   0.10000000   0.10000000
   0.10000000   0.10000000   0.10000000   0.10000000   0.10000000
   0.10000000   0.10000000   0.10000000   0.10000000   0.10000000
   0.10000000   0.10000000   0.10000000   0.10000000   0.10000000
   0.10000000   0.10000000   0.10000000   0.10000000   0.10000000
   0.10000000   0.10000000   0.10000000   0.10000000   0.10000000
   0.10000000   0.10000000   0.10000000   0.10000000   0.10000000
   0.10000000   0.10000000   0.10000000   0.10000000   0.10000000
   0.10000000   0.10000000   0.10000000   0.10000000   0.10000000
   0.10000000   0.10000000   0.10000000   0.10000000   0.10000000
   0.10000000   0.10000000   0.10000000   0.10000000   0.10000000
   0.10000000   0.10000000   0.10000000   0.10000000   0.10000000
   0.10000000   0.10000000   0.10000000   0.10000000   0.10000000
   0.10000000   0.10000000   0.10000000   0.10000000   0.10000000
   0.10000000   0.10000000   0.10000000   0.10000000   0.10000000
   0.10000000   0.10000000   0.10000000   0.10000000   0.10000000
   0.10000000   0.10000000   0.10000000   0.10000000   0.10000000
   0.10000000   0.10000000   0.10000000   0.10000000   0.10000000
   0.10000000   0.10000000   0.10000000   0.10000000   0.10000000
   0.10000000   0.10000000   0.10000000   0.10000000   0.10000000
   0.10000000   0.10000000   0.10000000   0.10000000   0.10000000
   0.10000000   0.10000000   0.10000000   0.10000000   0.10000000
   0.10000000   0.10000000   0.10000000   0.10000000   0.10000000
   0.10000000   0.10000000   0.10000000   0.10000000   0.10000000
   0.10000000   0.10000000   0.10000000   0.10000000   0.10000000
   0.10000000   0.10000000   0.10000000   0.10000000   0.10000000
   0.10000000   0.10000000   0.10000000   0.10000000   0.10000000
   0.10000000   0.10000000   0.10000000   0.10000000   0.10000000
   0.10000000   0.10000000   0.10000000   0.10000000   0.10000000
   0.10000000   0.10000000   0.10000000   0.10000000   0.10000000
   0.10000000   0.10000000   0.10000000   0.10000000   0.10000000
   0.10000000   0.10000000   0.10000000   0.10000000   0.10000000
   0.10000000   0.10000000   0.10000000   0.20000000   0.20000000
   0.20000000   0.20000000   0.20000000   0.20000000   0.20000000
   0.20000000   0.20000000   0.20000000   0.20000000   0.20000000
   0.20000000   0.20000000   0.20000000   0.20000000   0.20000000
   0.20000000   0.20000000   0.20000000   0.20000000   0.20000000
   0.20000000   0.20000000   0.20000000   0.20000000   0.20000000
   0.20000000   0.20000000   0.20000000   0.20000000   0.20000000
   0.20000000   0.20000000   0.20000000   0.20000000   0.20000000
   0.20000000   0.20000000   0.20000000   0.20000000   0.20000000
   0.20000000   0.20000000   0.20000000   0.20000000   0.20000000
   0.20000000   0.20000000   0.20000000   0.20000000   0.20000000
   0.20000000   0.20000000   0.20000000   0.20000000   0.20000000
   0.20000000   0.20000000   0.20000000   0.20000000   0.20000000
   0.20000000   0.20000000   0.20000000   0.20000000   0.20000000
   0.20000000   0.20000000   0.20000000   0.20000000   0.20000000
   0.20000000   0.20000000   0.20000000   0.20000000   0.20000000
   0.20000000   0.20000000   0.20000000   0.20000000   0.20000000
   0.20000000   0.20000000   0.20000000   0.20000000   0.20000000
   0.20000000   0.20000000   0.20000000   0.20000000   0.20000000
   0.20000000   0.20000000   0.20000000   0.20000000   0.20000000
   0.20000000   0.20000000   0.20000000   0.20000000   0.20000000
   0.20000000   0.20000000   0.20000000   0.20000000   0.20000000
   0.20000000   0.20000000   0.20000000   0.20000000   0.20000000
   0.20000000   0.20000000   0.20000000   0.20000000   0.20000000
   0.20000000   0.20000000   0.20000000   0.20000000   0.20000000
   0.20000000   0.20000000   0.20000000   0.20000000   0.20000000
   0.20000000   0.50000000   0.50000000   0.50000000   0.50000000
   0.50000000   0.50000000   0.50000000   0.50000000   0.50000000
   0.50000000   0.50000000   0.50000000   0.50000000   0.50000000
   0.50000000   0.50000000   0.50000000   0.50000000   0.50000000
   0.50000000   0.50000000   0.50000000   0.50000000   0.50000000
   0.50000000   0.50000000   0.50000000   0.50000000   0.50000000
   0.50000000   0.50000000   0.50000000   0.50000000   0.50000000
   0.50000000   0.50000000   0.50000000   0.50000000   0.50000000
   0.50000000   0.50000000   0.50000000   0.50000000   0.50000000
   0.50000000   0.50000000   0.50000000   0.50000000   0.50000000
   0.50000000   0.50000000   0.50000000   0.50000000   0.50000000
   0.50000000   0.50000000   0.50000000   0.50000000   0.50000000
   0.50000000   0.50000000   0.50000000   0.50000000   0.50000000
   0.50000000   0.50000000   0.50000000   0.50000000   0.50000000


 Scaling Magnitute of eigenvalues
 Minimum: -25.00000000
 Maximum: 25.00000000
 380 Hessian Eigenvalues to form next step
   0.10000000   0.10000000   0.10000000   0.10000000   0.10000000
   0.10000000   0.10000000   0.10000000   0.10000000   0.10000000
   0.10000000   0.10000000   0.10000000   0.10000000   0.10000000
   0.10000000   0.10000000   0.10000000   0.10000000   0.10000000
   0.10000000   0.10000000   0.10000000   0.10000000   0.10000000
   0.10000000   0.10000000   0.10000000   0.10000000   0.10000000
   0.10000000   0.10000000   0.10000000   0.10000000   0.10000000
   0.10000000   0.10000000   0.10000000   0.10000000   0.10000000
   0.10000000   0.10000000   0.10000000   0.10000000   0.10000000
   0.10000000   0.10000000   0.10000000   0.10000000   0.10000000
   0.10000000   0.10000000   0.10000000   0.10000000   0.10000000
   0.10000000   0.10000000   0.10000000   0.10000000   0.10000000
   0.10000000   0.10000000   0.10000000   0.10000000   0.10000000
   0.10000000   0.10000000   0.10000000   0.10000000   0.10000000
   0.10000000   0.10000000   0.10000000   0.10000000   0.10000000
   0.10000000   0.10000000   0.10000000   0.10000000   0.10000000
   0.10000000   0.10000000   0.10000000   0.10000000   0.10000000
   0.10000000   0.10000000   0.10000000   0.10000000   0.10000000
   0.10000000   0.10000000   0.10000000   0.10000000   0.10000000
   0.10000000   0.10000000   0.10000000   0.10000000   0.10000000
   0.10000000   0.10000000   0.10000000   0.10000000   0.10000000
   0.10000000   0.10000000   0.10000000   0.10000000   0.10000000
   0.10000000   0.10000000   0.10000000   0.10000000   0.10000000
   0.10000000   0.10000000   0.10000000   0.10000000   0.10000000
   0.10000000   0.10000000   0.10000000   0.10000000   0.10000000
   0.10000000   0.10000000   0.10000000   0.10000000   0.10000000
   0.10000000   0.10000000   0.10000000   0.10000000   0.10000000
   0.10000000   0.10000000   0.10000000   0.10000000   0.10000000
   0.10000000   0.10000000   0.10000000   0.10000000   0.10000000
   0.10000000   0.10000000   0.10000000   0.10000000   0.10000000
   0.10000000   0.10000000   0.10000000   0.10000000   0.10000000
   0.10000000   0.10000000   0.10000000   0.10000000   0.10000000
   0.10000000   0.10000000   0.10000000   0.10000000   0.10000000
   0.10000000   0.10000000   0.10000000   0.10000000   0.10000000
   0.10000000   0.10000000   0.10000000   0.10000000   0.10000000
   0.10000000   0.10000000   0.10000000   0.10000000   0.10000000
   0.10000000   0.10000000   0.10000000   0.20000000   0.20000000
   0.20000000   0.20000000   0.20000000   0.20000000   0.20000000
   0.20000000   0.20000000   0.20000000   0.20000000   0.20000000
   0.20000000   0.20000000   0.20000000   0.20000000   0.20000000
   0.20000000   0.20000000   0.20000000   0.20000000   0.20000000
   0.20000000   0.20000000   0.20000000   0.20000000   0.20000000
   0.20000000   0.20000000   0.20000000   0.20000000   0.20000000
   0.20000000   0.20000000   0.20000000   0.20000000   0.20000000
   0.20000000   0.20000000   0.20000000   0.20000000   0.20000000
   0.20000000   0.20000000   0.20000000   0.20000000   0.20000000
   0.20000000   0.20000000   0.20000000   0.20000000   0.20000000
   0.20000000   0.20000000   0.20000000   0.20000000   0.20000000
   0.20000000   0.20000000   0.20000000   0.20000000   0.20000000
   0.20000000   0.20000000   0.20000000   0.20000000   0.20000000
   0.20000000   0.20000000   0.20000000   0.20000000   0.20000000
   0.20000000   0.20000000   0.20000000   0.20000000   0.20000000
   0.20000000   0.20000000   0.20000000   0.20000000   0.20000000
   0.20000000   0.20000000   0.20000000   0.20000000   0.20000000
   0.20000000   0.20000000   0.20000000   0.20000000   0.20000000
   0.20000000   0.20000000   0.20000000   0.20000000   0.20000000
   0.20000000   0.20000000   0.20000000   0.20000000   0.20000000
   0.20000000   0.20000000   0.20000000   0.20000000   0.20000000
   0.20000000   0.20000000   0.20000000   0.20000000   0.20000000
   0.20000000   0.20000000   0.20000000   0.20000000   0.20000000
   0.20000000   0.20000000   0.20000000   0.20000000   0.20000000
   0.20000000   0.20000000   0.20000000   0.20000000   0.20000000
   0.20000000   0.50000000   0.50000000   0.50000000   0.50000000
   0.50000000   0.50000000   0.50000000   0.50000000   0.50000000
   0.50000000   0.50000000   0.50000000   0.50000000   0.50000000
   0.50000000   0.50000000   0.50000000   0.50000000   0.50000000
   0.50000000   0.50000000   0.50000000   0.50000000   0.50000000
   0.50000000   0.50000000   0.50000000   0.50000000   0.50000000
   0.50000000   0.50000000   0.50000000   0.50000000   0.50000000
   0.50000000   0.50000000   0.50000000   0.50000000   0.50000000
   0.50000000   0.50000000   0.50000000   0.50000000   0.50000000
   0.50000000   0.50000000   0.50000000   0.50000000   0.50000000
   0.50000000   0.50000000   0.50000000   0.50000000   0.50000000
   0.50000000   0.50000000   0.50000000   0.50000000   0.50000000
   0.50000000   0.50000000   0.50000000   0.50000000   0.50000000
   0.50000000   0.50000000   0.50000000   0.50000000   0.50000000


 Minimum Search taking a RFO step
 Searching for Lambda that minimizes along all modes
 Value of Lambda  -0.00058736
 Norm of Stepsize  0.04915520

	Performing Iterative Coordinate Back-Transformation

	  Starting from Previous Position
	  iter:	0	rms: 0.03711581	maxdev: 0.13061480
	  iter:	1	rms: 0.00028265	maxdev: 0.00167869
	  iter:	2	rms: 0.00000027	maxdev: 0.00000238	 Success!

	Finished Iterative Coordinate Back-Transformation
 ----------------------------------------------------------------
             Standard Nuclear Orientation (Angstroms)
    I     Atom           X                Y                Z
 ----------------------------------------------------------------
    1      N       0.2885928229     0.1695681495    -0.1638303357
    2      C       1.3187564058    -0.7693982145     0.4185564467
    3      C      -0.7214675542     0.5171885540     0.9072935265
    4      C      -0.3679865604    -0.5120797710    -1.3394517123
    5      C       0.9340359700     1.4483945961    -0.6439014377
    6      C       2.2202727340    -0.1879512928     1.4930645446
    7      C      -1.9989318658     1.1855060900     0.4265748639
    8      C      -1.1166579541    -1.7970460052    -1.0209406949
    9      C       2.0570186982     1.2903875815    -1.6565228294
   10      C       3.1821418221    -1.2672434178     1.9924759668
   11      C      -2.8551506912     1.6012031971     1.6228559851
   12      C      -1.9955272866    -2.2040572966    -2.2027966778
   13      C       2.7082307501     2.6466201712    -1.9275823475
   14      C       4.1194319713    -0.7544793747     3.0787208579
   15      C      -4.1723044016     2.2385011128     1.1969687761
   16      C      -2.7320635526    -3.5132444143    -1.9533223575
   17      C       3.8191567041     2.5558817007    -2.9669247092
   18      H       1.9159197909    -1.1239314514    -0.4263823190
   19      H       0.7628845758    -1.6205846327     0.8236722860
   20      H      -0.2008873917     1.1713889645     1.6132346735
   21      H      -0.9567965341    -0.4116438194     1.4368080285
   22      H       0.4278225082    -0.7148861294    -2.0613216324
   23      H      -1.0405414603     0.2238702768    -1.7908018148
   24      H       1.2963618887     1.9653160484     0.2500854377
   25      H       0.1314104644     2.0574186234    -1.0708045300
   26      H       1.6313614315     0.1909526164     2.3393376260
   27      H       2.8069980836     0.6529740896     1.0994978104
   28      H      -2.5816135300     0.5008650281    -0.2044566247
   29      H      -1.7763181938     2.0744972255    -0.1794655861
   30      H      -1.7510190730    -1.6820507204    -0.1318678924
   31      H      -0.4117701756    -2.6090092874    -0.7955912082
   32      H       1.6723190931     0.8840788101    -2.6012060502
   33      H       2.8246875778     0.5934814186    -1.2949758030
   34      H       3.7713991836    -1.6430806503     1.1418005930
   35      H       2.6028760514    -2.1223883579     2.3731555961
   36      H      -2.2849190954     2.3046274699     2.2483076020
   37      H      -3.0546518221     0.7183870963     2.2496114019
   38      H      -1.3757118510    -2.2882667887    -3.1085217339
   39      H      -2.7223758744    -1.4017586695    -2.4003965084
   40      H       3.1122681870     3.0466774649    -0.9849867146
   41      H       1.9400607108     3.3593887950    -2.2646011049
   42      H       3.5534508112    -0.4004748149     3.9521086712
   43      H       4.7271639614     0.0837978580     2.7092376604
   44      H       4.8027569715    -1.5448127914     3.4146198516
   45      H      -4.7704374190     1.5406199618     0.5936176319
   46      H      -3.9956719361     3.1391566420     0.5915546292
   47      H      -4.7704691864     2.5295548428     2.0699401613
   48      H      -3.3787026832    -3.4355126620    -1.0678196956
   49      H      -2.0288340858    -4.3388338865    -1.7790341551
   50      H      -3.3595841583    -3.7839810364    -2.8110984297
   51      H       3.4286634363     2.1898514576    -3.9273455600
   52      H       4.6080476251     1.8635285882    -2.6394467432
   53      H       4.2792795449     3.5372915467    -3.1394447787
   54      O       2.5351980137    -2.3062858048    -2.3074059724
   55      H       2.7204746013    -3.7378733750    -0.1421781151
   56      C       2.0674349748    -4.1407918304    -0.9165748335
   57      C       1.9564406348    -3.3692703169    -2.1753761810
   58      C       1.3788342655    -5.2748137342    -0.7394934195
   59      H       1.4359127510    -5.8521135724     0.1839001730
   60      C       1.0946647601    -3.9098115567    -3.2512214786
   61      H       1.0428279061    -3.3365409202    -4.1770562896
   62      C       0.4998281569    -5.8122007394    -1.8123403359
   63      C       0.4086189112    -5.0474828551    -3.0813779322
   64      O      -0.1168724840    -6.8501737405    -1.6504454697
   65      H      -0.2410367950    -5.4426254442    -3.8624564057
   66      C      -1.8746169828    -7.9215895767    -3.2388627636
   67      O      -2.4250750002    -6.9141296451    -3.4039280137
   68      O      -1.3758791521    -8.9620773807    -3.1205716041
 ----------------------------------------------------------------
 Nuclear Repulsion Energy =        2783.23674829 hartrees
 There are      108 alpha and      108 beta electrons
 Discretize the solute cavity surface with Lebedev spheres
	Using 194 Lebedev grid points for each H atom
	Using 194 Lebedev grid points for other atoms
	Atomic van der Waals radii will be scaled by 1.10
 Remove points where switching function is < 1.0e-08
 Keep 4793 surface tesserae and discard 8399 interior tesserae
 Molecular Surface Area = 545.119 Angst**2
 Applying Cartesian multipole field
    Component          Value
    ---------          -----
     (2,0,0)        1.00000E-11
     (0,2,0)        2.00000E-12
     (0,0,2)       -3.00000E-11
 Nucleus-field energy     =    -0.0000000385 hartrees
 Requested basis set is def2-SVPD
 There are 388 shells and 892 basis functions
 A cutoff of  1.0D-16 yielded  62580 shell pairs
 There are    327558 function pairs (    369594 Cartesian)
 Smallest overlap matrix eigenvalue = 5.98E-06
 Guess MOs from SCF MO coefficient file

 -----------------------------------------------------------------------
  General SCF calculation program by
  Eric Jon Sundstrom, Paul Horn, Yuezhi Mao, Dmitri Zuev, Alec White,
  David Stuck, Shaama M.S., Shane Yost, Joonho Lee, David Small,
  Daniel Levine, Susi Lehtola, Hugh Burton, Evgeny Epifanovsky,
  Bang C. Huynh
 -----------------------------------------------------------------------
 Exchange:     0.2220 Hartree-Fock + 1.0000 wB97X-D + LR-HF
 Correlation:  1.0000 wB97X-D
 Using SG-3 standard quadrature grid
 Dispersion:   Grimme D
 A restricted SCF calculation will be
 performed using Roothaan-Hall, GDM, DIIS
 SCF converges when DIIS error is below 1.0e-08
 ---------------------------------------
  Cycle       Energy         DIIS error
 ---------------------------------------
    1   -1254.7704154423      3.46e-04  Roothaan Step
 ---------------------------------------
  Cycle       Energy        RMS Gradient
 ---------------------------------------
    1   -1254.8424647851      1.91e-02   Normal BFGS step
    2   -1254.8446358695      1.65e-02   Normal BFGS step
    3   -1254.8483589111      3.17e-03   Normal BFGS step
    4   -1254.8485112175      2.98e-03   Normal BFGS step
    5   -1254.8485896906      6.10e-04   Normal BFGS step
    6   -1254.8485940797      4.83e-04   Normal BFGS step
    7   -1254.8485970432      1.29e-04   Normal BFGS step
    8   -1254.8485970668      1.09e-04   Normal BFGS step
    9   -1254.8485972102      3.15e-05  Done GDM. Switching to DIIS
 ---------------------------------------
  Cycle       Energy         DIIS error
 ---------------------------------------
    1   -1254.8485972102      2.13e-07  
    2   -1254.8485971709      1.84e-07  
    3   -1254.8485975875      4.60e-08  
    4   -1254.8485970967      1.25e-08  
    5   -1254.8485973609      6.30e-09  Convergence criterion met
 ---------------------------------------
 SCF time:   CPU 26938.73s  wall 1445.00s 

************** Final PCM Free Energy Summary **************
 G_electrostatic  =      -0.07387806 hartree =     -46.35918395 kcal/mol
 G_cavitation     =       0.00000000 hartree =       0.00000000 kcal/mol
 G_dispersion     =       0.00000000 hartree =       0.00000000 kcal/mol
 G_repulsion      =       0.00000000 hartree =       0.00000000 kcal/mol
 --------------------------------------------------
 Non-electrostatic Free Energy =       0.00000000 hartree =       0.00000000 kcal/mol
 Total                         =      -0.07387806 hartree =     -46.35918395 kcal/mol
 --------------------------------------------------
 SCF Energy (H0 + V/2)                       =   -1254.84859736 
 Solute Internal Energy (H0)                 =   -1254.77471930 
 Total Free Energy (H0 + V/2 + non-elec)     =   -1254.84859736 hartree
                                             = -787429.37951502 kcal/mol
***********************************************************

 SCF   energy in the final basis set =    -1254.8485973609
 Total energy in the final basis set =    -1254.8485973609
 
 --------------------------------------------------------------
 
                    Orbital Energies (a.u.)
 --------------------------------------------------------------
 
 Alpha MOs
 -- Occupied --
-19.3423 -19.3415 -19.2982 -19.2975 -14.5922 -10.4967 -10.4308 -10.4307
-10.3662 -10.3661 -10.3656 -10.3636 -10.3515 -10.3512 -10.3502 -10.3501
-10.3210 -10.3179 -10.3172 -10.3165 -10.3087 -10.3075 -10.3065 -10.3061
-10.2941 -10.2928 -10.2926 -10.2923  -1.2539  -1.2128  -1.1784  -1.1757
 -1.1293  -0.9700  -0.9278  -0.9216  -0.9203  -0.9022  -0.8973  -0.8534
 -0.8517  -0.8490  -0.8110  -0.8091  -0.7680  -0.7663  -0.7461  -0.7457
 -0.7101  -0.6963  -0.6920  -0.6898  -0.6888  -0.6770  -0.6511  -0.6381
 -0.6300  -0.6213  -0.6140  -0.6132  -0.6125  -0.6115  -0.6063  -0.6021
 -0.5861  -0.5812  -0.5727  -0.5683  -0.5596  -0.5529  -0.5470  -0.5396
 -0.5352  -0.5281  -0.5253  -0.5245  -0.5223  -0.5176  -0.5158  -0.5108
 -0.5087  -0.5022  -0.5005  -0.4894  -0.4795  -0.4784  -0.4688  -0.4603
 -0.4598  -0.4580  -0.4574  -0.4485  -0.4439  -0.4398  -0.4387  -0.4354
 -0.4341  -0.4281  -0.4269  -0.4268  -0.4232  -0.4207  -0.4200  -0.4172
 -0.4009  -0.3946  -0.3895  -0.3756
 -- Virtual --
 -0.0831   0.0291   0.0575   0.0665   0.0764   0.0824   0.0829   0.0875
  0.1009   0.1017   0.1029   0.1071   0.1090   0.1108   0.1135   0.1152
  0.1194   0.1230   0.1245   0.1263   0.1305   0.1380   0.1413   0.1431
  0.1467   0.1471   0.1520   0.1551   0.1555   0.1603   0.1649   0.1676
  0.1683   0.1709   0.1755   0.1781   0.1804   0.1819   0.1839   0.1863
  0.1871   0.1910   0.1941   0.1962   0.1971   0.1985   0.1996   0.2013
  0.2023   0.2066   0.2080   0.2119   0.2132   0.2153   0.2176   0.2193
  0.2228   0.2242   0.2264   0.2277   0.2317   0.2319   0.2349   0.2394
  0.2441   0.2452   0.2468   0.2482   0.2514   0.2540   0.2561   0.2568
  0.2578   0.2608   0.2633   0.2648   0.2702   0.2715   0.2734   0.2767
  0.2788   0.2806   0.2844   0.2845   0.2902   0.2908   0.2922   0.2944
  0.2976   0.3024   0.3052   0.3062   0.3081   0.3095   0.3125   0.3186
  0.3213   0.3231   0.3260   0.3324   0.3334   0.3355   0.3377   0.3402
  0.3448   0.3459   0.3502   0.3535   0.3548   0.3566   0.3593   0.3622
  0.3636   0.3660   0.3707   0.3715   0.3742   0.3763   0.3790   0.3822
  0.3836   0.3854   0.3896   0.3906   0.3930   0.3945   0.3949   0.3978
  0.4013   0.4036   0.4044   0.4068   0.4089   0.4119   0.4132   0.4168
  0.4185   0.4198   0.4210   0.4227   0.4237   0.4249   0.4259   0.4288
  0.4299   0.4323   0.4334   0.4350   0.4380   0.4394   0.4442   0.4454
  0.4467   0.4473   0.4482   0.4499   0.4503   0.4528   0.4556   0.4570
  0.4583   0.4610   0.4620   0.4650   0.4651   0.4684   0.4703   0.4718
  0.4739   0.4764   0.4777   0.4787   0.4821   0.4827   0.4858   0.4871
  0.4901   0.4910   0.4956   0.4977   0.5003   0.5032   0.5041   0.5059
  0.5081   0.5094   0.5131   0.5156   0.5164   0.5208   0.5235   0.5239
  0.5263   0.5265   0.5297   0.5310   0.5362   0.5382   0.5393   0.5423
  0.5434   0.5451   0.5468   0.5495   0.5526   0.5546   0.5556   0.5596
  0.5605   0.5627   0.5633   0.5646   0.5661   0.5712   0.5731   0.5754
  0.5762   0.5804   0.5831   0.5865   0.5884   0.5918   0.5939   0.5943
  0.5960   0.5983   0.5999   0.6014   0.6023   0.6069   0.6075   0.6109
  0.6147   0.6163   0.6186   0.6208   0.6229   0.6251   0.6275   0.6305
  0.6332   0.6356   0.6379   0.6381   0.6416   0.6440   0.6462   0.6479
  0.6484   0.6525   0.6542   0.6562   0.6613   0.6645   0.6664   0.6682
  0.6700   0.6737   0.6775   0.6808   0.6811   0.6840   0.6860   0.6893
  0.6909   0.6934   0.6957   0.6989   0.7025   0.7036   0.7052   0.7080
  0.7109   0.7122   0.7139   0.7165   0.7176   0.7233   0.7280   0.7293
  0.7314   0.7337   0.7376   0.7382   0.7398   0.7444   0.7480   0.7502
  0.7508   0.7577   0.7595   0.7612   0.7639   0.7659   0.7690   0.7712
  0.7740   0.7783   0.7814   0.7848   0.7870   0.7896   0.7913   0.7938
  0.7963   0.8004   0.8048   0.8092   0.8141   0.8155   0.8191   0.8224
  0.8248   0.8263   0.8315   0.8333   0.8367   0.8402   0.8424   0.8455
  0.8465   0.8499   0.8547   0.8569   0.8629   0.8657   0.8680   0.8704
  0.8765   0.8783   0.8803   0.8815   0.8874   0.8901   0.8935   0.8956
  0.9039   0.9049   0.9055   0.9080   0.9106   0.9179   0.9203   0.9224
  0.9258   0.9293   0.9317   0.9358   0.9380   0.9428   0.9450   0.9539
  0.9555   0.9585   0.9667   0.9691   0.9698   0.9765   0.9807   0.9848
  0.9917   0.9952   0.9984   1.0021   1.0038   1.0122   1.0239   1.0257
  1.0289   1.0357   1.0368   1.0393   1.0454   1.0528   1.0546   1.0584
  1.0634   1.0691   1.0763   1.0785   1.0829   1.0891   1.0895   1.0937
  1.0948   1.0982   1.1017   1.1052   1.1099   1.1151   1.1162   1.1191
  1.1219   1.1261   1.1285   1.1338   1.1366   1.1435   1.1451   1.1516
  1.1542   1.1557   1.1573   1.1632   1.1698   1.1711   1.1753   1.1786
  1.1867   1.1901   1.1928   1.1959   1.2011   1.2055   1.2077   1.2131
  1.2236   1.2305   1.2314   1.2381   1.2416   1.2424   1.2509   1.2564
  1.2618   1.2679   1.2707   1.2800   1.2845   1.2889   1.2925   1.3008
  1.3112   1.3139   1.3199   1.3247   1.3270   1.3313   1.3367   1.3387
  1.3459   1.3482   1.3558   1.3608   1.3642   1.3689   1.3733   1.3791
  1.3820   1.3911   1.3963   1.4042   1.4099   1.4188   1.4203   1.4228
  1.4320   1.4344   1.4424   1.4459   1.4553   1.4586   1.4626   1.4660
  1.4766   1.4826   1.4925   1.4956   1.5026   1.5085   1.5102   1.5163
  1.5226   1.5293   1.5312   1.5414   1.5448   1.5488   1.5503   1.5533
  1.5597   1.5665   1.5685   1.5752   1.5755   1.5846   1.5857   1.5906
  1.6037   1.6116   1.6161   1.6231   1.6237   1.6398   1.6445   1.6517
  1.6540   1.6715   1.6775   1.6782   1.6835   1.6866   1.6943   1.6999
  1.7087   1.7116   1.7162   1.7209   1.7299   1.7376   1.7502   1.7519
  1.7563   1.7627   1.7714   1.7785   1.7825   1.7861   1.7923   1.8002
  1.8027   1.8072   1.8135   1.8144   1.8262   1.8300   1.8372   1.8419
  1.8440   1.8494   1.8556   1.8614   1.8629   1.8644   1.8703   1.8761
  1.8791   1.8883   1.8905   1.8994   1.9032   1.9094   1.9112   1.9171
  1.9189   1.9267   1.9294   1.9317   1.9386   1.9404   1.9454   1.9555
  1.9620   1.9628   1.9671   1.9708   1.9736   1.9787   1.9835   1.9879
  1.9927   1.9946   2.0015   2.0021   2.0056   2.0167   2.0252   2.0302
  2.0334   2.0340   2.0349   2.0374   2.0423   2.0454   2.0488   2.0528
  2.0555   2.0608   2.0631   2.0744   2.0752   2.0851   2.0879   2.0917
  2.0991   2.1035   2.1056   2.1091   2.1146   2.1169   2.1241   2.1312
  2.1356   2.1367   2.1395   2.1451   2.1465   2.1478   2.1559   2.1593
  2.1661   2.1674   2.1737   2.1795   2.1851   2.1904   2.1943   2.1994
  2.2075   2.2165   2.2217   2.2265   2.2402   2.2442   2.2483   2.2575
  2.2731   2.2763   2.2835   2.2929   2.2994   2.3066   2.3106   2.3126
  2.3168   2.3215   2.3245   2.3272   2.3386   2.3454   2.3477   2.3514
  2.3594   2.3690   2.3759   2.3769   2.3846   2.3905   2.3957   2.4029
  2.4091   2.4133   2.4165   2.4196   2.4271   2.4342   2.4402   2.4456
  2.4610   2.4684   2.4731   2.4809   2.4930   2.4944   2.5060   2.5107
  2.5221   2.5264   2.5308   2.5373   2.5520   2.5572   2.5644   2.5696
  2.5766   2.5854   2.5895   2.5974   2.6056   2.6196   2.6229   2.6343
  2.6369   2.6392   2.6502   2.6571   2.6587   2.6645   2.6675   2.6779
  2.6829   2.6875   2.7001   2.7090   2.7198   2.7265   2.7321   2.7400
  2.7413   2.7496   2.7518   2.7570   2.7636   2.7697   2.7703   2.7781
  2.7861   2.7930   2.8025   2.8107   2.8178   2.8216   2.8291   2.8319
  2.8465   2.8569   2.8893   2.8963   2.9020   2.9042   2.9094   2.9154
  2.9225   2.9290   2.9310   2.9361   2.9448   2.9495   2.9550   2.9640
  2.9761   2.9823   2.9869   2.9960   3.0059   3.0068   3.0121   3.0186
  3.0260   3.0375   3.0569   3.0657   3.0757   3.0862   3.1110   3.1200
  3.1262   3.1346   3.1408   3.1463   3.1557   3.1581   3.1727   3.1791
  3.1850   3.1936   3.2006   3.2103   3.2186   3.2294   3.2446   3.2550
  3.2599   3.2677   3.2704   3.2794   3.2860   3.2887   3.2970   3.3133
  3.3218   3.3257   3.3356   3.3373   3.3457   3.3484   3.3672   3.3719
  3.4001   3.4143   3.4433   3.4492   3.5130   3.5223   3.5319   3.5804
  3.5897   3.6304   3.7075   3.7222   3.7984   3.9244   3.9562   4.2287
 --------------------------------------------------------------
 
          Ground-State Mulliken Net Atomic Charges

     Atom                 Charge (a.u.)
  ----------------------------------------
      1 N                    -2.299749
      2 C                    -0.100307
      3 C                     0.298943
      4 C                     0.457363
      5 C                     0.500023
      6 C                     0.443198
      7 C                     0.233991
      8 C                     0.111524
      9 C                    -0.034553
     10 C                    -0.085261
     11 C                    -0.101804
     12 C                    -0.063470
     13 C                    -0.020756
     14 C                     0.713584
     15 C                     0.595887
     16 C                     1.064425
     17 C                     0.623651
     18 H                    -0.480456
     19 H                    -0.168860
     20 H                    -0.253835
     21 H                     0.013467
     22 H                    -0.271172
     23 H                    -0.254696
     24 H                    -0.089740
     25 H                    -0.342070
     26 H                     0.016737
     27 H                    -0.134078
     28 H                     0.002611
     29 H                     0.038328
     30 H                    -0.054752
     31 H                     0.038891
     32 H                     0.121355
     33 H                    -0.140341
     34 H                     0.086400
     35 H                     0.029399
     36 H                    -0.018022
     37 H                     0.051600
     38 H                     0.005569
     39 H                     0.027608
     40 H                     0.057691
     41 H                     0.014459
     42 H                     0.090278
     43 H                     0.103089
     44 H                    -0.010114
     45 H                     0.076293
     46 H                     0.090091
     47 H                     0.004374
     48 H                     0.133621
     49 H                    -0.336618
     50 H                     0.061380
     51 H                     0.104672
     52 H                     0.084625
     53 H                    -0.001654
     54 O                    -0.394836
     55 H                    -0.218593
     56 C                     0.588979
     57 C                     0.091169
     58 C                    -0.389290
     59 H                     0.178084
     60 C                     0.016251
     61 H                     0.114477
     62 C                     0.411836
     63 C                     0.045035
     64 O                    -0.480404
     65 H                     0.032858
     66 C                     0.957046
     67 O                    -0.486645
     68 O                    -0.498788
  ----------------------------------------
  Sum of atomic charges =     1.000000

  Building new vdw surfaces
         Merz-Kollman RESP Net Atomic Charges

     Atom                 Charge (a.u.)
  ----------------------------------------
      1 N                     0.883916
      2 C                    -0.283174
      3 C                    -0.438783
      4 C                    -0.324703
      5 C                    -0.378190
      6 C                    -0.089585
      7 C                    -0.081432
      8 C                    -0.211007
      9 C                     0.066779
     10 C                     0.251108
     11 C                     0.142475
[...]
      XXYZ    -804.9686   XYYZ     -32.1702   YYYZ   -2520.1359
      XXZZ   -1721.4146   XYZZ    -140.6595   YYZZ   -2868.2975
      XZZZ     -55.1516   YZZZ   -2039.7535   ZZZZ   -4302.2026
 -----------------------------------------------------------------
 Calculating analytic gradient of the SCF energy
 Gradient of SCF Energy
            1           2           3           4           5           6
    1   0.0007277   0.0028958  -0.0020326   0.0097098   0.0173050   0.0124418
    2  -0.0227392   0.0194859  -0.0045983  -0.0018829  -0.0262235  -0.0569750
    3  -0.0013503  -0.0026385  -0.0259872   0.0322034   0.0080793   0.0095266
            7           8           9          10          11          12
    1  -0.0108841  -0.0052779  -0.0079124  -0.0048209  -0.0021355  -0.0032654
    2   0.0118955   0.0086735   0.0631992   0.0196427   0.0064836  -0.0160120
    3   0.0575943  -0.0688028  -0.0020337  -0.0045144  -0.0242485   0.0279319
           13          14          15          16          17          18
    1   0.0111564   0.0257531  -0.0236475  -0.0334009   0.0181119   0.0245618
    2  -0.0255202  -0.0074325   0.0138062  -0.0231227   0.0162156   0.0032031
    3  -0.0044649   0.0245383   0.0143284  -0.0260258  -0.0131402  -0.0202302
           19          20          21          22          23          24
    1  -0.0212419   0.0148375  -0.0200573  -0.0016746  -0.0140259   0.0156930
    2  -0.0255811   0.0333288  -0.0467242  -0.0193144   0.0253950   0.0186117
    3   0.0126657   0.0264888   0.0052432  -0.0144055  -0.0190280   0.0376421
           25          26          27          28          29          30
    1  -0.0206501  -0.0429287   0.0316449  -0.0284577   0.0208470  -0.0299258
    2   0.0183045   0.0016385   0.0307930  -0.0481794   0.0510181   0.0034950
    3  -0.0434184   0.0336414  -0.0240619  -0.0178595  -0.0073207   0.0284463
           31          32          33          34          35          36
    1   0.0591859  -0.0364002   0.0361810   0.0216318  -0.0377825   0.0314315
    2  -0.0335995  -0.0067160  -0.0147138   0.0106196  -0.0258277   0.0252415
    3   0.0010363  -0.0381724   0.0179644  -0.0328073   0.0112113   0.0175757
           37          38          39          40          41          42
    1  -0.0019227   0.0386211  -0.0192092   0.0101241  -0.0363384  -0.0189248
    2  -0.0412044   0.0043975   0.0390696   0.0029290   0.0175519   0.0091344
    3   0.0142681  -0.0260735  -0.0001602   0.0405134  -0.0121849   0.0237937
           43          44          45          46          47          48
    1   0.0161551   0.0199316  -0.0164094   0.0111240  -0.0169128  -0.0225675
    2   0.0257661  -0.0284225  -0.0248901   0.0292836   0.0069066   0.0056651
    3  -0.0152935   0.0095439  -0.0180635  -0.0162277   0.0284992   0.0185486
           49          50          51          52          53          54
    1   0.0367535  -0.0177112  -0.0156330   0.0200695   0.0118252   0.0112900
    2  -0.0192845  -0.0038023  -0.0094512  -0.0190862   0.0296484   0.0428961
    3   0.0192822  -0.0240080  -0.0253649   0.0142078  -0.0030726  -0.0000696
           55          56          57          58          59          60
    1   0.0414859   0.0217675  -0.0164815  -0.0219918   0.0080686   0.0165582
    2  -0.0109199   0.0868081  -0.0299406  -0.0506040  -0.0244872   0.0507611
    3   0.0308711   0.0292779   0.0213327  -0.0556171   0.0556217   0.0006349
           61          62          63          64          65          66
    1   0.0023507  -0.0025597  -0.0333926  -0.0212107  -0.0109670  -0.0017673
    2   0.0274019   0.0273892  -0.0604405  -0.0353361  -0.0225859  -0.0076399
    3  -0.0610477   0.0132674   0.0045235   0.0041457  -0.0462498  -0.0019323
           67          68
    1  -0.0155511   0.0158320
    2   0.0460154  -0.0394171
    3  -0.0142406   0.0156674
 Max gradient component =       8.681E-02
 RMS gradient           =       2.630E-02
 Computing fast CPCM-SWIG gradient
 Updating gradient with PCM contributions...
 -- total gradient after adding PCM contribution --
---------------------------------------------------
  Atom         X              Y              Z     
---------------------------------------------------
   1       0.000105      -0.000063       0.000052
   2      -0.000053      -0.000205       0.000204
   3      -0.000085       0.000127      -0.000004
   4       0.000137      -0.000088      -0.000021
   5       0.000021       0.000014      -0.000064
   6       0.000036       0.000020       0.000020
   7       0.000038       0.000024      -0.000035
   8       0.000093      -0.000025      -0.000035
   9       0.000003       0.000016      -0.000042
  10      -0.000008       0.000025      -0.000005
  11       0.000005       0.000012       0.000010
  12       0.000089      -0.000048      -0.000002
  13       0.000007      -0.000004       0.000002
  14      -0.000008      -0.000014      -0.000012
  15       0.000006       0.000008      -0.000008
  16      -0.000020      -0.000028      -0.000012
  17      -0.000004       0.000006      -0.000002
  18      -0.000011       0.000203      -0.000280
  19      -0.000022       0.000006      -0.000048
  20       0.000007      -0.000069       0.000045
  21      -0.000035      -0.000031      -0.000057
  22      -0.000078       0.000112      -0.000074
  23      -0.000117      -0.000017       0.000123
  24       0.000029      -0.000007      -0.000009
  25      -0.000009      -0.000016       0.000025
  26      -0.000017       0.000008      -0.000024
  27       0.000021      -0.000023       0.000002
  28      -0.000006      -0.000040       0.000020
  29      -0.000015      -0.000015      -0.000025
  30      -0.000053       0.000082      -0.000045
  31      -0.000071       0.000004       0.000111
  32       0.000015       0.000021      -0.000002
  33      -0.000007      -0.000007       0.000016
  34      -0.000003      -0.000004       0.000009
  35      -0.000004      -0.000004       0.000026
  36       0.000006      -0.000005      -0.000004
  37      -0.000012       0.000003      -0.000002
  38       0.000001       0.000046      -0.000025
  39      -0.000028      -0.000018       0.000018
  40       0.000010      -0.000009       0.000002
  41       0.000000       0.000001       0.000014
  42      -0.000003      -0.000004       0.000003
  43      -0.000003       0.000003       0.000008
  44       0.000001       0.000004       0.000004
  45       0.000003       0.000001      -0.000008
  46      -0.000001       0.000004       0.000006
  47      -0.000005      -0.000009      -0.000003
  48       0.000018       0.000002      -0.000001
  49      -0.000013       0.000036      -0.000000
  50      -0.000014       0.000010      -0.000000
  51       0.000004      -0.000001       0.000005
  52       0.000002       0.000002       0.000006
  53       0.000003       0.000000       0.000005
  54      -0.000016       0.000086       0.000111
  55      -0.000073      -0.000098       0.000079
  56       0.000124       0.000117      -0.000155
  57      -0.000005      -0.000095       0.000104
  58      -0.000138      -0.000199       0.000031
  59       0.000041       0.000072      -0.000026
  60      -0.000004       0.000113       0.000080
  61       0.000015      -0.000120      -0.000039
  62       0.000231      -0.000004      -0.000099
  63       0.000126       0.000016      -0.000215
  64      -0.000206       0.000120       0.000111
  65      -0.000093       0.000035       0.000188
  66      -0.000308       0.000054       0.000293
  67       0.000127      -0.000084      -0.000144
  68       0.000223      -0.000062      -0.000205
---------------------------------------------------
 Number of fixed atoms: 0
 Gradient time:  CPU 5067.29 s  wall 326.28 s

     Step 17	:	Energy -1254.8501098356
                            Maximum         Tolerance       Converged?
         Gradient           3.96816183e-04	3.00000000e-04	false
         Displacement       5.52996398e-03	1.20000000e-03	false
         Energy change      4.49864001e-06	1.00000000e-06	false


	OPTIMIZATION CYCLE:	18

 All Eigenvalues from Projected Hessian
   0.00302852   0.01452128   0.02074239   0.04746188   0.09256753
   0.09710907   0.10000000   0.10000000   0.10000000   0.10000000
   0.10000000   0.10000000   0.10000000   0.10000000   0.10000000
   0.10000000   0.10000000   0.10000000   0.10000000   0.10000000
   0.10000000   0.10000000   0.10000000   0.10000000   0.10000000
   0.10000000   0.10000000   0.10000000   0.10000000   0.10000000
   0.10000000   0.10000000   0.10000000   0.10000000   0.10000000
   0.10000000   0.10000000   0.10000000   0.10000000   0.10000000
   0.10000000   0.10000000   0.10000000   0.10000000   0.10000000
   0.10000000   0.10000000   0.10000000   0.10000000   0.10000000
   0.10000000   0.10000000   0.10000000   0.10000000   0.10000000
   0.10000000   0.10000000   0.10000000   0.10000000   0.10000000
   0.10000000   0.10000000   0.10000000   0.10000000   0.10000000
   0.10000000   0.10000000   0.10000000   0.10000000   0.10000000
   0.10000000   0.10000000   0.10000000   0.10000000   0.10000000
   0.10000000   0.10000000   0.10000000   0.10000000   0.10000000
   0.10000000   0.10000000   0.10000000   0.10000000   0.10000000
   0.10000000   0.10000000   0.10000000   0.10000000   0.10000000
   0.10000000   0.10000000   0.10000000   0.10000000   0.10000000
   0.10000000   0.10000000   0.10000000   0.10000000   0.10000000
   0.10000000   0.10000000   0.10000000   0.10000000   0.10000000
   0.10000000   0.10000000   0.10000000   0.10000000   0.10000000
   0.10000000   0.10000000   0.10000000   0.10000000   0.10000000
   0.10000000   0.10000000   0.10000000   0.10000000   0.10000000
   0.10000000   0.10000000   0.10000000   0.10000000   0.10000000
   0.10000000   0.10000000   0.10000000   0.10000000   0.10000000
   0.10000000   0.10000000   0.10000000   0.10000000   0.10000000
   0.10000000   0.10000000   0.10000000   0.10000000   0.10000000
   0.10000000   0.10000000   0.10000000   0.10000000   0.10000000
   0.10000000   0.10000000   0.10000000   0.10000000   0.10000000
   0.10000000   0.10000000   0.10000000   0.10000000   0.10000000
   0.10000000   0.10000000   0.10000000   0.10000000   0.10000000
   0.10000000   0.10000000   0.10000000   0.10000000   0.10000000
   0.10000000   0.10000000   0.10000000   0.10000000   0.10000000
   0.10000000   0.10001037   0.10006813   0.10009574   0.10017450
   0.10032222   0.10039718   0.10151304   0.10259385   0.10406216
   0.10792436   0.10987420   0.13005687   0.14057188   0.14970956
   0.15668324   0.17655386   0.18390861   0.19439938   0.20000000
   0.20000000   0.20000000   0.20000000   0.20000000   0.20000000
   0.20000000   0.20000000   0.20000000   0.20000000   0.20000000
   0.20000000   0.20000000   0.20000000   0.20000000   0.20000000
   0.20000000   0.20000000   0.20000000   0.20000000   0.20000000
   0.20000000   0.20000000   0.20000000   0.20000000   0.20000000
   0.20000000   0.20000000   0.20000000   0.20000000   0.20000000
   0.20000000   0.20000000   0.20000000   0.20000000   0.20000000
   0.20000000   0.20000000   0.20000000   0.20000000   0.20000000
   0.20000000   0.20000000   0.20000000   0.20000000   0.20000000
   0.20000000   0.20000000   0.20000000   0.20000000   0.20000000
   0.20000000   0.20000000   0.20000000   0.20000000   0.20000000
   0.20000000   0.20000000   0.20000000   0.20000000   0.20000000
   0.20000000   0.20000000   0.20000000   0.20000000   0.20000000
   0.20000000   0.20000000   0.20000000   0.20000000   0.20000000
   0.20000000   0.20000000   0.20000000   0.20000000   0.20000000
   0.20000000   0.20000000   0.20000000   0.20000000   0.20000000
   0.20000000   0.20000000   0.20000000   0.20000000   0.20000000
   0.20000000   0.20000000   0.20000000   0.20000000   0.20000000
   0.20000000   0.20000000   0.20000000   0.20000000   0.20000000
   0.20000000   0.20000000   0.20000000   0.20000000   0.20000000
   0.20000000   0.20000000   0.20000000   0.20000000   0.20000000
   0.20000000   0.20000000   0.20000000   0.20000000   0.20017878
   0.20061050   0.20076318   0.20184929   0.20308421   0.20457021
   0.20838771   0.21400830   0.23350888   0.23930182   0.29663758
   0.33982555   0.42970049   0.47286615   0.48996022   0.49481960
   0.49521168   0.49834014   0.50000000   0.50000000   0.50000000
   0.50000000   0.50000000   0.50000000   0.50000000   0.50000000
   0.50000000   0.50000000   0.50000000   0.50000000   0.50000000
   0.50000000   0.50000000   0.50000000   0.50000000   0.50000000
   0.50000000   0.50000000   0.50000000   0.50000000   0.50000000
   0.50000000   0.50000000   0.50000000   0.50000000   0.50000000
   0.50000000   0.50000000   0.50000000   0.50000000   0.50000000
   0.50000000   0.50000000   0.50000000   0.50000000   0.50000000
   0.50000000   0.50000000   0.50000000   0.50000000   0.50000000
   0.50000000   0.50000000   0.50000000   0.50000000   0.50000000
   0.50000000   0.50000000   0.50000000   0.50019428   0.50033230
   0.50076926   0.50187825   0.50497151   0.51590153   0.52662099
   0.53092381   0.80267339   0.94096183   1.31651912   1.46467337


 Scaling Magnitute of eigenvalues
 Minimum: -25.00000000
 Maximum: 25.00000000
 380 Hessian Eigenvalues to form next step
   0.00302852   0.01452128   0.02074239   0.04746188   0.09256753
   0.09710907   0.10000000   0.10000000   0.10000000   0.10000000
   0.10000000   0.10000000   0.10000000   0.10000000   0.10000000
   0.10000000   0.10000000   0.10000000   0.10000000   0.10000000
   0.10000000   0.10000000   0.10000000   0.10000000   0.10000000
   0.10000000   0.10000000   0.10000000   0.10000000   0.10000000
   0.10000000   0.10000000   0.10000000   0.10000000   0.10000000
   0.10000000   0.10000000   0.10000000   0.10000000   0.10000000
   0.10000000   0.10000000   0.10000000   0.10000000   0.10000000
   0.10000000   0.10000000   0.10000000   0.10000000   0.10000000
   0.10000000   0.10000000   0.10000000   0.10000000   0.10000000
   0.10000000   0.10000000   0.10000000   0.10000000   0.10000000
   0.10000000   0.10000000   0.10000000   0.10000000   0.10000000
   0.10000000   0.10000000   0.10000000   0.10000000   0.10000000
   0.10000000   0.10000000   0.10000000   0.10000000   0.10000000
   0.10000000   0.10000000   0.10000000   0.10000000   0.10000000
   0.10000000   0.10000000   0.10000000   0.10000000   0.10000000
   0.10000000   0.10000000   0.10000000   0.10000000   0.10000000
   0.10000000   0.10000000   0.10000000   0.10000000   0.10000000
   0.10000000   0.10000000   0.10000000   0.10000000   0.10000000
   0.10000000   0.10000000   0.10000000   0.10000000   0.10000000
   0.10000000   0.10000000   0.10000000   0.10000000   0.10000000
   0.10000000   0.10000000   0.10000000   0.10000000   0.10000000
   0.10000000   0.10000000   0.10000000   0.10000000   0.10000000
   0.10000000   0.10000000   0.10000000   0.10000000   0.10000000
   0.10000000   0.10000000   0.10000000   0.10000000   0.10000000
   0.10000000   0.10000000   0.10000000   0.10000000   0.10000000
   0.10000000   0.10000000   0.10000000   0.10000000   0.10000000
   0.10000000   0.10000000   0.10000000   0.10000000   0.10000000
   0.10000000   0.10000000   0.10000000   0.10000000   0.10000000
   0.10000000   0.10000000   0.10000000   0.10000000   0.10000000
   0.10000000   0.10000000   0.10000000   0.10000000   0.10000000
   0.10000000   0.10000000   0.10000000   0.10000000   0.10000000
   0.10000000   0.10000000   0.10000000   0.10000000   0.10000000
   0.10000000   0.10001037   0.10006813   0.10009574   0.10017450
   0.10032222   0.10039718   0.10151304   0.10259385   0.10406216
   0.10792436   0.10987420   0.13005687   0.14057188   0.14970956
   0.15668324   0.17655386   0.18390861   0.19439938   0.20000000
   0.20000000   0.20000000   0.20000000   0.20000000   0.20000000
   0.20000000   0.20000000   0.20000000   0.20000000   0.20000000
   0.20000000   0.20000000   0.20000000   0.20000000   0.20000000
   0.20000000   0.20000000   0.20000000   0.20000000   0.20000000
   0.20000000   0.20000000   0.20000000   0.20000000   0.20000000
   0.20000000   0.20000000   0.20000000   0.20000000   0.20000000
   0.20000000   0.20000000   0.20000000   0.20000000   0.20000000
   0.20000000   0.20000000   0.20000000   0.20000000   0.20000000
   0.20000000   0.20000000   0.20000000   0.20000000   0.20000000
   0.20000000   0.20000000   0.20000000   0.20000000   0.20000000
   0.20000000   0.20000000   0.20000000   0.20000000   0.20000000
   0.20000000   0.20000000   0.20000000   0.20000000   0.20000000
   0.20000000   0.20000000   0.20000000   0.20000000   0.20000000
   0.20000000   0.20000000   0.20000000   0.20000000   0.20000000
   0.20000000   0.20000000   0.20000000   0.20000000   0.20000000
   0.20000000   0.20000000   0.20000000   0.20000000   0.20000000
   0.20000000   0.20000000   0.20000000   0.20000000   0.20000000
   0.20000000   0.20000000   0.20000000   0.20000000   0.20000000
   0.20000000   0.20000000   0.20000000   0.20000000   0.20000000
   0.20000000   0.20000000   0.20000000   0.20000000   0.20000000
   0.20000000   0.20000000   0.20000000   0.20000000   0.20000000
   0.20000000   0.20000000   0.20000000   0.20000000   0.20017878
   0.20061050   0.20076318   0.20184929   0.20308421   0.20457021
   0.20838771   0.21400830   0.23350888   0.23930182   0.29663758
   0.33982555   0.42970049   0.47286615   0.48996022   0.49481960
   0.49521168   0.49834014   0.50000000   0.50000000   0.50000000
   0.50000000   0.50000000   0.50000000   0.50000000   0.50000000
   0.50000000   0.50000000   0.50000000   0.50000000   0.50000000
   0.50000000   0.50000000   0.50000000   0.50000000   0.50000000
   0.50000000   0.50000000   0.50000000   0.50000000   0.50000000
   0.50000000   0.50000000   0.50000000   0.50000000   0.50000000
   0.50000000   0.50000000   0.50000000   0.50000000   0.50000000
   0.50000000   0.50000000   0.50000000   0.50000000   0.50000000
   0.50000000   0.50000000   0.50000000   0.50000000   0.50000000
   0.50000000   0.50000000   0.50000000   0.50000000   0.50000000
   0.50000000   0.50000000   0.50000000   0.50019428   0.50033230
   0.50076926   0.50187825   0.50497151   0.51590153   0.52662099
   0.53092381   0.80267339   0.94096183   1.31651912   1.46467337


 Minimum Search taking a RFO step
 Searching for Lambda that minimizes along all modes
 Value of Lambda  -0.00000818
 Norm of Stepsize  0.01977270

	Performing Iterative Coordinate Back-Transformation

	  Starting from Previous Position
	  iter:	0	rms: 0.00582350	maxdev: 0.05218432
	  iter:	1	rms: 0.00396581	maxdev: 0.03953461
	  iter:	2	rms: 0.00470853	maxdev: 0.04735114
	  iter:	3	rms: 0.00560359	maxdev: 0.05682418
	  iter:	4	rms: 0.00668068	maxdev: 0.06829617
	  iter:	5	rms: 0.00798145	maxdev: 0.08220772
	  iter:	6	rms: 0.00955855	maxdev: 0.09905037
	  iter:	7	rms: 0.01147887	maxdev: 0.11933654
	  iter:	8	rms: 0.01382752	maxdev: 0.14350120
	  iter:	9	rms: 0.01671199	maxdev: 0.17167388
	  iter:	10	rms: 0.02026514	maxdev: 0.20320193
	  iter:	11	rms: 0.02464323	maxdev: 0.23575302
	  iter:	12	rms: 0.03000958	maxdev: 0.26389710
	  iter:	13	rms: 0.03648285	maxdev: 0.30651548
	  iter:	14	rms: 0.04401116	maxdev: 0.43860477
	  iter:	15	rms: 0.05221616	maxdev: 0.58867463
	  iter:	16	rms: 0.06113391	maxdev: 0.75268420
	  iter:	17	rms: 0.07528316	maxdev: 0.82763547
	  iter:	18	rms: 0.07929018	maxdev: 0.61382960
	  iter:	19	rms: 0.14990884	maxdev: 1.19856254
	  iter:	20	rms: 0.34001804	maxdev: 4.27471606
*Error in back_transform*
Could not find a iterative internal coordinate within  the number of maximum iterations at double precision threshold
 *****************************************************
             End of BFGS Algorithm
 *****************************************************
	**Error within run_minimization with minimization method:bfgs

 Q-Chem error occurred in module libopt3/qchem/opt3_main.C, line 411:

 	**  OPTIMIZATION DID NOT CONVERGE  **

