
Running Job 1 of 1 mol.qin
qchem mol.qin_4554.0 /tmp/qchem952637684/chain_scratch/ 0
/global/project/projectdirs/jcesr/qchem_sblau/qc521_exe/qcprog.LINUX_Ix86_64.20190628.exe mol.qin_4554.0 /tmp/qchem952637684/chain_scratch/
                  Welcome to Q-Chem
     A Quantum Leap Into The Future Of Chemistry


 Q-Chem 5.2, Q-Chem, Inc., Pleasanton, CA (2019)

 License issued to: National Energy Research Scientific Computing Center

 Yihan Shao,  Zhengting Gan,  E. Epifanovsky,  A. T. B. Gilbert,  M. Wormit,  
 J. Kussmann,  A. W. Lange,  A. Behn,  Jia Deng,  Xintian Feng,  D. Ghosh,  
 M. Goldey,  P. R. Horn,  L. D. Jacobson,  I. Kaliman,  T. Kus,  A. Landau,  
 Jie Liu,  E. I. Proynov,  R. M. Richard,  R. P. Steele,  E. J. Sundstrom,  
 H. L. Woodcock III,  P. M. Zimmerman,  D. Zuev,  B. Albrecht,  E. Alguire,  
 S. A. Baeppler,  D. Barton,  Z. Benda,  Y. A. Bernard,  E. J. Berquist,  
 K. B. Bravaya,  H. Burton,  D. Casanova,  Chun-Min Chang,  Yunqing Chen,  
 A. Chien,  K. D. Closser,  M. P. Coons,  S. Coriani,  S. Dasgupta,  
 A. L. Dempwolff,  M. Diedenhofen,  Hainam Do,  R. G. Edgar,  Po-Tung Fang,  
 S. Faraji,  S. Fatehi,  Qingguo Feng,  K. D. Fenk,  J. Fosso-Tande,  
 J. Gayvert,  Qinghui Ge,  A. Ghysels,  G. Gidofalvi,  J. Gomes,  
 J. Gonthier,  A. Gunina,  D. Hait,  M. W. D. Hanson-Heine,  
 P. H. P. Harbach,  A. W. Hauser,  M. F. Herbst,  J. E. Herr,  
 E. G. Hohenstein,  Z. C. Holden,  Kerwin Hui,  B. C. Huynh,  T.-C. Jagau,  
 Hyunjun Ji,  B. Kaduk,  K. Khistyaev,  Jaehoon Kim,  P. Klunzinger,  K. Koh,  
 D. Kosenkov,  L. Koulias,  T. Kowalczyk,  C. M. Krauter,  A. Kunitsa,  
 Ka Un Lao,  A. Laurent,  K. V. Lawler,  Joonho Lee,  D. Lefrancois,  
 S. Lehtola,  D. S. Levine,  Yi-Pei Li,  You-Sheng Lin,  Fenglai Liu,  
 E. Livshits,  A. Luenser,  P. Manohar,  E. Mansoor,  S. F. Manzer,  
 Shan-Ping Mao,  Yuezhi Mao,  N. Mardirossian,  A. V. Marenich,  
 T. Markovich,  L. A. Martinez-Martinez,  S. A. Maurer,  N. J. Mayhall,  
 S. C. McKenzie,  J.-M. Mewes,  P. Morgante,  A. F. Morrison,  
 J. W. Mullinax,  K. Nanda,  T. S. Nguyen-Beck,  R. Olivares-Amaya,  
 J. A. Parkhill,  Zheng Pei,  T. M. Perrine,  F. Plasser,  P. Pokhilko,  
 S. Prager,  A. Prociuk,  E. Ramos,  D. R. Rehn,  F. Rob,  M. Scheurer,  
 M. Schneider,  N. Sergueev,  S. M. Sharada,  S. Sharma,  D. W. Small,  
 T. Stauch,  T. Stein,  Yu-Chuan Su,  A. J. W. Thom,  A. Tkatchenko,  
 T. Tsuchimochi,  N. M. Tubman,  L. Vogt,  M. L. Vidal,  O. Vydrov,  
 M. A. Watson,  J. Wenzel,  M. de Wergifosse,  T. A. Wesolowski,  A. White,  
 J. Witte,  A. Yamada,  Jun Yang,  K. Yao,  S. Yeganeh,  S. R. Yost,  
 Zhi-Qiang You,  A. Zech,  Igor Ying Zhang,  Xing Zhang,  Yan Zhao,  
 Ying Zhu,  B. R. Brooks,  G. K. L. Chan,  C. J. Cramer,  M. S. Gordon,  
 W. J. Hehre,  A. Klamt,  M. W. Schmidt,  C. D. Sherrill,  D. G. Truhlar,  
 A. Aspuru-Guzik,  R. Baer,  A. T. Bell,  N. A. Besley,  Jeng-Da Chai,  
 A. E. DePrince, III,  R. A. DiStasio Jr.,  A. Dreuw,  B. D. Dunietz,  
 T. R. Furlani,  Chao-Ping Hsu,  Yousung Jung,  Jing Kong,  D. S. Lambrecht,  
 WanZhen Liang,  C. Ochsenfeld,  V. A. Rassolov,  L. V. Slipchenko,  
 J. E. Subotnik,  T. Van Voorhis,  J. M. Herbert,  A. I. Krylov,  
 P. M. W. Gill,  M. Head-Gordon

 Contributors to earlier versions of Q-Chem not listed above: 
 R. D. Adamson,  B. Austin,  J. Baker,  G. J. O. Beran,  K. Brandhorst,  
 S. T. Brown,  E. F. C. Byrd,  A. K. Chakraborty,  C.-L. Cheng,  
 Siu Hung Chien,  D. M. Chipman,  D. L. Crittenden,  H. Dachsel,  
 R. J. Doerksen,  A. D. Dutoi,  L. Fusti-Molnar,  W. A. Goddard III,  
 A. Golubeva-Zadorozhnaya,  S. R. Gwaltney,  G. Hawkins,  A. Heyden,  
 S. Hirata,  G. Kedziora,  F. J. Keil,  C. Kelley,  Jihan Kim,  R. A. King,  
 R. Z. Khaliullin,  P. P. Korambath,  W. Kurlancheek,  A. M. Lee,  M. S. Lee,  
 S. V. Levchenko,  Ching Yeh Lin,  D. Liotard,  R. C. Lochan,  I. Lotan,  
 P. E. Maslen,  N. Nair,  D. P. O'Neill,  D. Neuhauser,  E. Neuscamman,  
 C. M. Oana,  R. Olson,  B. Peters,  R. Peverati,  P. A. Pieniazek,  
 Y. M. Rhee,  J. Ritchie,  M. A. Rohrdanz,  E. Rosta,  N. J. Russ,  
 H. F. Schaefer III,  N. E. Schultz,  N. Shenvi,  A. C. Simmonett,  A. Sodt,  
 D. Stuck,  K. S. Thanthiriwatte,  V. Vanovschi,  Tao Wang,  A. Warshel,  
 C. F. Williams,  Q. Wu,  X. Xu,  W. Zhang

 Please cite Q-Chem as follows:
 Y. Shao et al., Mol. Phys. 113, 184-215 (2015)
 DOI: 10.1080/00268976.2014.952696

 Q-Chem 5.2.0 for Intel X86 EM64T Linux

 Parts of Q-Chem use Armadillo 8.300.2 (Tropical Shenanigans).
 http://arma.sourceforge.net/

 Q-Chem begins on Wed Jul 17 03:52:35 2019  

Host: cori09
0

     Scratch files written to /tmp/qchem952637684/chain_scratch//
 Jun2719 |scratch|qcdevops|jenkins|workspace|build_RNUM -1
Processing $rem in /global/common/cori/software/qchem/5.2/config/preferences:
	 MEM_TOTAL  96000 
NAlpha2: 68
NElect   68
Mult     1
Symmetry turned off for PCM/SM12/SMD calculation

Checking the input file for inconsistencies... 	...done.

--------------------------------------------------------------
User input:
--------------------------------------------------------------
$molecule
1 1
O      3.6455655602     -2.6896774726      0.0000000000
C      3.3292335956     -1.3920109952      0.0000000000
O      4.1213856625     -0.4831894401      0.0000000000
O      2.0062123125     -1.2798036573      0.0000000000
O     -0.5062123124      1.2798036575      0.0000000000
C     -1.8292335956      1.3920109951      0.0000000000
O     -2.1455655605      2.6896774724      0.0000000000
C     -0.0039292894     -0.0675705565      0.0000000000
C      1.5039292894      0.0675705567      0.0000000000
H     -3.1121811367      2.7513639680      0.0000000000
H     -0.3539808425     -0.5912434211     -0.8919878498
H     -0.3539808425     -0.5912434211      0.8919878499
H      1.8539808425      0.5912434213      0.8919878499
H      1.8539808425      0.5912434213     -0.8919878499
$end

$rem
job_type = opt
basis = def2-tzvppd
max_scf_cycles = 200
gen_scfman = true
xc_grid = 3
scf_algorithm = diis
resp_charges = true
symmetry = false
sym_ignore = true
method = wb97xv
geom_opt_max_cycles = 100
solvent_method = smd
ideriv = 1
thresh = 14
$end

$smx
solvent other
$end
--------------------------------------------------------------
 ----------------------------------------------------------------
             Standard Nuclear Orientation (Angstroms)
    I     Atom           X                Y                Z
 ----------------------------------------------------------------
    1      O       3.6455655602    -2.6896774726     0.0000000000
    2      C       3.3292335956    -1.3920109952     0.0000000000
    3      O       4.1213856625    -0.4831894401     0.0000000000
    4      O       2.0062123125    -1.2798036573     0.0000000000
    5      O      -0.5062123124     1.2798036575     0.0000000000
    6      C      -1.8292335956     1.3920109951     0.0000000000
    7      O      -2.1455655605     2.6896774724     0.0000000000
    8      C      -0.0039292894    -0.0675705565     0.0000000000
    9      C       1.5039292894     0.0675705567     0.0000000000
   10      H      -3.1121811367     2.7513639680     0.0000000000
   11      H      -0.3539808425    -0.5912434211    -0.8919878498
   12      H      -0.3539808425    -0.5912434211     0.8919878499
   13      H       1.8539808425     0.5912434213     0.8919878499
   14      H       1.8539808425     0.5912434213    -0.8919878499
 ----------------------------------------------------------------
 Nuclear Repulsion Energy =         425.51075060 hartrees
 There are       34 alpha and       34 beta electrons
 Requested basis set is def2-TZVPPD
 There are 157 shells and 433 basis functions

 Total QAlloc Memory Limit  96000 MB
 Mega-Array Size       188 MB
 MEM_STATIC part       192 MB
 
 Citation of the SMD model:
 Marenich, A.V.; Cramer, C.J.; Truhlar, D.G.
 J. Phys. Chem. B 2009, 113, 6378-6396.
 iSolventCode=           0
 Solvent: other                                                           
 
 vradii
            1           2           3           4           5           6
    1   2.2940000   1.8500000   2.2940000   2.2940000   2.2940000   1.8500000
            7           8           9          10          11          12
    1   2.2940000   1.8500000   1.8500000   1.2000000   1.2000000   1.2000000
           13          14
    1   1.2000000   1.2000000
 Changing PCM_VDW_RADII to SMD_RADIUS
 Discretize the solute cavity surface with Lebedev spheres
	Using 110 Lebedev grid points for each H atom
	Using 194 Lebedev grid points for other atoms
	Atomic van der Waals radii will be scaled by 1.20
 Remove points where switching function is < 1.0e-08
 Keep 981 surface tesserae and discard 1315 interior tesserae
 Molecular Surface Area = 204.950 Angst**2
 A cutoff of  1.0D-14 yielded  10938 shell pairs
 There are     82734 function pairs (    106001 Cartesian)
 Smallest overlap matrix eigenvalue = 5.51E-06

 Scale SEOQF with 1.000000e-01/1.000000e-01/1.000000e-01

 Standard Electronic Orientation quadrupole field applied
 Nucleus-field energy     =     0.0000000276 hartrees
 Guess from superposition of atomic densities
 Warning:  Energy on first SCF cycle will be non-variational
 SAD guess density has 68.075651 electrons

 -----------------------------------------------------------------------
  General SCF calculation program by
  Eric Jon Sundstrom, Paul Horn, Yuezhi Mao, Dmitri Zuev, Alec White,
  David Stuck, Shaama M.S., Shane Yost, Joonho Lee, David Small,
  Daniel Levine, Susi Lehtola, Hugh Burton, Evgeny Epifanovsky,
  Bang C. Huynh
 -----------------------------------------------------------------------
 Exchange:     0.1670 Hartree-Fock + 1.0000 wB97X-V + LR-HF
 Correlation:  1.0000 wB97X-V
 Using SG-3 standard quadrature grid
 Nonlocal Correlation:  VV10 with C = 0.0100 and b = 6.00 and scale = 1.00000
 Grid used for NLC:  SG-1 standard quadrature
 
 Citation of the SMD model:
 Marenich, A.V.; Cramer, C.J.; Truhlar, D.G.
 J. Phys. Chem. B 2009, 113, 6378-6396.
 iSolventCode=           0
 Solvent: other                                                           
 
 vradii
            1           2           3           4           5           6
    1   2.2940000   1.8500000   2.2940000   2.2940000   2.2940000   1.8500000
            7           8           9          10          11          12
    1   2.2940000   1.8500000   1.8500000   1.2000000   1.2000000   1.2000000
           13          14
    1   1.2000000   1.2000000
 using 32 threads for integral computing
 -------------------------------------------------------
 OpenMP Integral computing Module                
 Release: version 1.0, May 2013, Q-Chem Inc. Pittsburgh 
 -------------------------------------------------------
 using 32 threads for integral computing
 -------------------------------------------------------
 OpenMP Integral computing Module                
 Release: version 1.0, May 2013, Q-Chem Inc. Pittsburgh 
 -------------------------------------------------------
 -------------------------------------------------------
 OpenMP BLAS3 based DFT computing Module                
 Release: version 1.0, May 2013, Q-Chem Inc. Pittsburgh 
 -------------------------------------------------------
 -------------------------------------------------------
 OpenMP BLAS3 based DFT computing Module                
 Release: version 1.0, May 2013, Q-Chem Inc. Pittsburgh 
 -------------------------------------------------------
 -------------------------------------------------------
 OpenMP BLAS3 based DFT computing Module                
 Release: version 1.0, May 2013, Q-Chem Inc. Pittsburgh 
 -------------------------------------------------------
 A restricted SCF calculation will be
 performed using DIIS
 SCF converges when DIIS error is below 1.0e-08
 ---------------------------------------
  Cycle       Energy         DIIS error
 ---------------------------------------
    1    -530.3631181411      2.40e-02  
    2    -529.5705862824      9.28e-03  
    3    -525.8491728224      1.28e-02  
    4    -530.3521873881      5.58e-03  
    5    -530.8801915658      1.94e-03  
    6    -530.6862664925      3.95e-03  
    7    -530.7302046420      3.71e-03  
    8    -530.8024019207      3.27e-03  
    9    -530.9021531878      2.58e-03  
   10    -531.0177599355      1.50e-03  
   11    -531.0816064020      4.67e-04  
   12    -531.0940832266      1.67e-04  
   13    -531.0944349834      1.30e-04  
   14    -531.0938311840      2.23e-04  
   15    -531.0935149245      2.54e-04  
   16    -531.0944726095      1.48e-04  
   17    -531.0949211530      5.46e-05  
   18    -531.0949924756      1.27e-05  
   19    -531.0950004377      3.65e-06  
   20    -531.0950020065      8.01e-06  
   21    -531.0950040021      1.07e-06  
   22    -531.0950041135      4.07e-07  
   23    -531.0950041325      1.22e-07  
   24    -531.0950041337      1.66e-07  
   25    -531.0950041345      5.62e-08  
   26    -531.0950041346      2.14e-08  
   27    -531.0950041346      5.91e-09  Convergence criterion met
 ---------------------------------------
 SCF time:   CPU 6225.92s  wall 246.00s 
(3)  G-ENP(liq) elect-nuc-pol free energy of system     -531.095004135 a.u.
(4)  G-CDS(liq) cavity-dispersion-solvent structure 
     free energy                                               -3.0313 kcal/mol
(6)  G-S(liq) free energy of system                     -531.099834811 a.u.
 SCF   energy in the final basis set =     -531.0950041346
 Total energy in the final basis set =     -531.0998348111
 
 --------------------------------------------------------------
 
                    Orbital Energies (a.u.)
 --------------------------------------------------------------
 
 Alpha MOs
 -- Occupied --
-19.3765 -19.3711 -19.3661 -19.3496 -19.3486 -10.5342 -10.5150 -10.3826
-10.3812  -1.3626  -1.3450  -1.2741  -1.2630  -1.2204  -0.9826  -0.8841
 -0.7951  -0.7704  -0.7266  -0.7091  -0.7048  -0.6879  -0.6758  -0.6757
 -0.6201  -0.6190  -0.5805  -0.5718  -0.5282  -0.5196  -0.5153  -0.5030
 -0.4777  -0.3840
 -- Virtual --
 -0.2971  -0.0165   0.0413   0.0453   0.0547   0.0681   0.0717   0.0806
  0.0890   0.0955   0.1000   0.1122   0.1162   0.1260   0.1287   0.1291
  0.1428   0.1490   0.1516   0.1668   0.1777   0.1845   0.1898   0.1972
  0.2057   0.2120   0.2147   0.2177   0.2370   0.2479   0.2524   0.2555
  0.2661   0.2718   0.2839   0.2850   0.2872   0.2880   0.2985   0.3134
  0.3181   0.3218   0.3219   0.3269   0.3354   0.3400   0.3472   0.3547
  0.3563   0.3637   0.3648   0.3725   0.3841   0.3867   0.3880   0.3909
  0.3916   0.3954   0.4173   0.4187   0.4265   0.4352   0.4377   0.4474
  0.4566   0.4599   0.4659   0.4800   0.4820   0.4875   0.4919   0.5014
  0.5015   0.5113   0.5303   0.5320   0.5434   0.5466   0.5509   0.5554
  0.5654   0.5720   0.5768   0.5880   0.5883   0.6043   0.6145   0.6241
  0.6293   0.6407   0.6435   0.6446   0.6656   0.6710   0.6742   0.6836
  0.6979   0.7124   0.7261   0.7324   0.7374   0.7431   0.7442   0.7543
  0.7608   0.7654   0.7670   0.7870   0.8028   0.8111   0.8163   0.8245
  0.8373   0.8507   0.8610   0.8613   0.8738   0.8860   0.8968   0.9183
  0.9355   0.9503   0.9520   0.9625   0.9689   0.9809   0.9839   0.9861
  1.0033   1.0154   1.0159   1.0616   1.0631   1.0855   1.0934   1.1078
  1.1210   1.1310   1.1394   1.1502   1.1607   1.1607   1.1715   1.1956
  1.2030   1.2165   1.2214   1.2456   1.2670   1.2693   1.2706   1.2923
  1.2933   1.3064   1.3316   1.3448   1.3853   1.3914   1.4038   1.4057
  1.4165   1.4573   1.4608   1.4803   1.5126   1.5158   1.5474   1.5899
  1.6295   1.6560   1.6844   1.6874   1.7091   1.7235   1.7371   1.7650
  1.7695   1.7745   1.7890   1.7941   1.8218   1.8581   1.8912   1.9212
  1.9513   1.9547   1.9642   1.9705   1.9838   2.0226   2.0473   2.0783
  2.0795   2.0907   2.1209   2.1393   2.1483   2.1739   2.2016   2.2290
  2.2322   2.2693   2.2960   2.3065   2.3127   2.3390   2.3614   2.3907
  2.4102   2.4535   2.4828   2.5060   2.5216   2.5651   2.5768   2.6998
  2.7464   2.7505   2.7906   2.8098   2.8186   2.8314   2.8469   2.8676
  2.8729   2.8908   2.9488   2.9540   2.9645   2.9944   3.0216   3.0248
  3.0535   3.0854   3.1259   3.1370   3.1419   3.1475   3.1795   3.1898
  3.2011   3.2040   3.2167   3.2365   3.2387   3.2492   3.2640   3.2714
  3.2810   3.2835   3.3119   3.3324   3.3376   3.3384   3.3591   3.3732
  3.3951   3.4288   3.4463   3.4504   3.4600   3.4769   3.4869   3.5001
  3.5063   3.5182   3.5592   3.5659   3.5765   3.5952   3.6186   3.6389
  3.6958   3.7385   3.7472   3.7634   3.7881   3.8218   3.8245   3.8935
  3.8975   3.9155   3.9551   3.9585   4.0269   4.0358   4.0553   4.0806
  4.1024   4.1160   4.1422   4.1858   4.2283   4.2624   4.3142   4.3317
  4.3753   4.3925   4.4021   4.4358   4.4444   4.5028   4.5407   4.5665
  4.5936   4.6479   4.6805   4.6850   4.7132   4.7396   4.7632   4.8195
  4.8463   4.8570   4.8956   5.0024   5.0617   5.0636   5.0762   5.0837
  5.1263   5.1370   5.1532   5.1619   5.1707   5.1914   5.2727   5.2855
  5.3946   5.4247   5.4576   5.4686   5.4814   5.4922   5.5073   5.5417
  5.5529   5.5811   5.6392   5.6534   5.6685   5.6877   5.7524   5.7734
  5.8082   5.8256   5.8432   5.9421   5.9818   6.0292   6.0517   6.0609
  6.1819   6.1890   6.2142   6.2733   6.3058   6.3814   6.4169   6.4445
  6.4684   6.4878   6.5343   6.5481   6.5716   6.6136   6.6213   6.7581
  6.7673   6.7713   6.7825   6.7929   6.8099   6.8108   6.8654   6.8950
  6.9742   7.0159   7.0259   7.1311   7.1707   7.1739   7.2602   7.3466
  7.3510   7.4320   7.4768   7.5995   7.6270   7.7074  22.7530  23.5432
 23.6291  23.7200  44.0205  44.1163  44.1554  44.4419  44.6060
 --------------------------------------------------------------
 
          Ground-State Mulliken Net Atomic Charges

     Atom                 Charge (a.u.)
  ----------------------------------------
      1 O                    -0.177922
      2 C                     0.551840
      3 O                    -0.199310
      4 O                    -0.126748
      5 O                    -0.046657
      6 C                     0.167950
      7 O                    -0.111486
      8 C                     0.022429
      9 C                    -0.097117
     10 H                     0.293535
     11 H                     0.158281
     12 H                     0.158281
     13 H                     0.203463
     14 H                     0.203463
  ----------------------------------------
  Sum of atomic charges =     1.000000

  Building new vdw surfaces
         Merz-Kollman RESP Net Atomic Charges

     Atom                 Charge (a.u.)
  ----------------------------------------
      1 O                    -0.231049
      2 C                     0.695690
      3 O                    -0.231049
      4 O                    -0.126210
      5 O                     0.087172
      6 C                     0.137934
      7 O                    -0.291631
      8 C                     0.010701
      9 C                    -0.196311
     10 H                     0.488486
     11 H                     0.152951
     12 H                     0.152951
     13 H                     0.175183
     14 H                     0.175183
  ----------------------------------------
  Sum of atomic charges =     1.000000

  Related Dipole Moment =     5.0388 (X -3.2499 Y  3.8506 Z  0.0000)

 -----------------------------------------------------------------
                    Cartesian Multipole Moments
 -----------------------------------------------------------------
    Charge (ESU x 10^10)
                 4.8032
    Dipole Moment (Debye)
         X      -3.2257      Y       3.7492      Z       0.0000
       Tot       4.9459
    Quadrupole Moments (Debye-Ang)
        XX     -26.6569     XY     -13.9646     YY     -41.2572
        XZ      -0.0000     YZ      -0.0000     ZZ     -46.0379
    Octopole Moments (Debye-Ang^2)
       XXX    -220.3659    XXY      50.5148    XYY     -93.9152
       YYY      33.2603    XXZ      -0.0000    XYZ       0.0000
       YYZ      -0.0000    XZZ     -49.8246    YZZ       1.2998
       ZZZ      -0.0000
    Hexadecapole Moments (Debye-Ang^3)
      XXXX   -1723.6326   XXXY     280.2530   XXYY    -321.8318
      XYYY     374.3361   YYYY    -716.5051   XXXZ       0.0000
      XXYZ       0.0000   XYYZ       0.0000   YYYZ       0.0000
      XXZZ    -304.5880   XYZZ     147.2117   YYZZ    -133.6053
      XZZZ       0.0000   YZZZ       0.0000   ZZZZ     -50.5784
 -----------------------------------------------------------------
 Calculating analytic gradient of the SCF energy
 Gradient of CDS energy
            1           2           3           4           5           6
    1   0.0000299   0.0007285  -0.0003392  -0.0006327   0.0006327  -0.0010069
    2  -0.0017605   0.0009792   0.0005713   0.0003723  -0.0003723  -0.0012414
    3   0.0000000  -0.0000000  -0.0000000   0.0000000   0.0000000  -0.0000000
            7           8           9          10          11          12
    1  -0.0001617  -0.0004499   0.0004169   0.0001495   0.0002842   0.0002842
    2   0.0009499  -0.0002692   0.0002532   0.0005092   0.0000346   0.0000346
    3   0.0000000  -0.0000000   0.0000000  -0.0000000   0.0001572  -0.0001572
           13          14
    1   0.0000322   0.0000322
    2  -0.0000305  -0.0000305
    3  -0.0001483   0.0001483
 Gradient of SCF Energy
            1           2           3           4           5           6
    1  -0.0041313   0.0393508   0.0067392  -0.0519845   0.0923523  -0.0826986
    2  -0.0926821   0.0565112   0.0402762   0.0087340   0.0194268  -0.1061970
    3   0.0000000   0.0000000  -0.0000000  -0.0000000   0.0000000   0.0000000
            7           8           9          10          11          12
    1   0.0367509  -0.0141412   0.0066727  -0.0296963  -0.0145142  -0.0145142
    2   0.0847786   0.0651517  -0.0704012  -0.0008419  -0.0227634  -0.0227634
    3   0.0000000  -0.0000000  -0.0000000  -0.0000000  -0.0476901   0.0476901
           13          14
    1   0.0149072   0.0149072
    2   0.0203853   0.0203853
    3   0.0454644  -0.0454644
 Max gradient component =       1.062E-01
 RMS gradient           =       4.229E-02
 Computing fast CPCM-SWIG gradient
 Updating gradient with PCM contributions...
 -- total gradient after adding PCM contribution --
---------------------------------------------------
  Atom         X              Y              Z     
---------------------------------------------------
   1      -0.009521      -0.062415       0.000000
   2       0.052063       0.063770       0.000000
   3      -0.020258       0.008816       0.000000
   4      -0.031156       0.004256      -0.000000
   5       0.055772       0.011658       0.000000
   6      -0.053927      -0.072359       0.000000
   7      -0.004025       0.058443       0.000000
   8      -0.009031       0.019467      -0.000000
   9       0.008835      -0.022979       0.000000
  10       0.010661      -0.005409      -0.000000
  11      -0.000204      -0.002786       0.000508
  12      -0.000204      -0.002786      -0.000508
  13       0.000497       0.001163      -0.000683
  14       0.000497       0.001163       0.000683
---------------------------------------------------
 Number of fixed atoms: 0
 Gradient time:  CPU 705.44 s  wall 33.08 s
 Geometry Optimization Parameters
   NAtoms,    NIC,     NZ,  NCons,   NDum,   NFix, NCnnct, MaxDiis
       14      79       0       0       0       0       0       0


** GEOMETRY OPTIMIZATION IN DELOCALIZED INTERNAL COORDINATES **
   Searching for a Minimum

   Optimization Cycle:   1

                       Coordinates (Angstroms)
     ATOM                X               Y               Z
      1  O         3.6455655602   -2.6896774726    0.0000000000
      2  C         3.3292335956   -1.3920109952    0.0000000000
      3  O         4.1213856625   -0.4831894401    0.0000000000
      4  O         2.0062123125   -1.2798036573    0.0000000000
      5  O        -0.5062123124    1.2798036575    0.0000000000
      6  C        -1.8292335956    1.3920109951    0.0000000000
      7  O        -2.1455655605    2.6896774724    0.0000000000
      8  C        -0.0039292894   -0.0675705565    0.0000000000
      9  C         1.5039292894    0.0675705567    0.0000000000
     10  H        -3.1121811367    2.7513639680    0.0000000000
     11  H        -0.3539808425   -0.5912434211   -0.8919878498
     12  H        -0.3539808425   -0.5912434211    0.8919878499
     13  H         1.8539808425    0.5912434213    0.8919878499
     14  H         1.8539808425    0.5912434213   -0.8919878499
   Point Group: c1    Number of degrees of freedom:    36


   Energy is   -531.099834811


 Attempting to generate delocalized internal coordinates
 Initial Hessian constructed with Jon Baker's OPTIMIZE code

 25 Hessian modes will be used to form the next step
  Hessian Eigenvalues:
     0.059200    0.059200    0.109120    0.109120    0.160000    0.219718
     0.219718    0.250000    0.250000    0.250000    0.250000    0.250000
     0.309615    0.345853    0.345853    0.345853    0.345853    0.398677
     0.398677    0.536677    0.581872    0.581872    0.600352    0.600352
     1.020608

 Minimum search - taking simple RFO step
 Searching for Lamda that Minimizes Along All modes
 Value Taken    Lamda =  -0.03091600
 Step Taken.  Stepsize is  0.291262

                             Maximum     Tolerance    Cnvgd?
         Gradient           0.052857      0.000300      NO
         Displacement       0.143584      0.001200      NO
         Energy change     *********      0.000001      NO


 New Cartesian Coordinates Obtained by Inverse Iteration

 Displacement from previous Coordinates is:  0.420304
 ----------------------------------------------------------------
             Standard Nuclear Orientation (Angstroms)
    I     Atom           X                Y                Z
 ----------------------------------------------------------------
    1      O       3.6556418937    -2.6817912973     0.0000000000
    2      C       3.3164403950    -1.4421027883     0.0000000000
    3      O       4.1985657640    -0.6154242177     0.0000000000
    4      O       2.0200462966    -1.2547559885     0.0000000000
    5      O      -0.5187310066     1.2795188446     0.0000000000
    6      C      -1.7953914134     1.4618635409     0.0000000000
    7      O      -2.2037929889     2.6881975891     0.0000000000
    8      C       0.0031521138    -0.0738369244     0.0000000000
    9      C       1.5051988357     0.1098135144     0.0000000000
   10      H      -3.1822533472     2.7144129197     0.0000000000
   11      H      -0.3379756518    -0.5938621768    -0.8958731054
   12      H      -0.3379756518    -0.5938621768     0.8958731055
   13      H       1.8431396433     0.6350018447     0.8954841520
   14      H       1.8431396433     0.6350018447    -0.8954841521
 ----------------------------------------------------------------
 Nuclear Repulsion Energy =         425.92995468 hartrees
 There are       34 alpha and       34 beta electrons
 Discretize the solute cavity surface with Lebedev spheres
	Using 110 Lebedev grid points for each H atom
	Using 194 Lebedev grid points for other atoms
	Atomic van der Waals radii will be scaled by 1.20
 Remove points where switching function is < 1.0e-08
 Keep 988 surface tesserae and discard 1308 interior tesserae
 Molecular Surface Area = 204.891 Angst**2
 Applying Cartesian multipole field
    Component          Value
    ---------          -----
     (2,0,0)        1.00000E-11
     (0,2,0)        2.00000E-11
     (0,0,2)       -3.00000E-11
 Nucleus-field energy     =     0.0000000280 hartrees
 Requested basis set is def2-TZVPPD
 There are 157 shells and 433 basis functions
 A cutoff of  1.0D-14 yielded  10906 shell pairs
 There are     82504 function pairs (    105727 Cartesian)
 Smallest overlap matrix eigenvalue = 5.47E-06
 Guess MOs from SCF MO coefficient file

 -----------------------------------------------------------------------
  General SCF calculation program by
  Eric Jon Sundstrom, Paul Horn, Yuezhi Mao, Dmitri Zuev, Alec White,
  David Stuck, Shaama M.S., Shane Yost, Joonho Lee, David Small,
  Daniel Levine, Susi Lehtola, Hugh Burton, Evgeny Epifanovsky,
  Bang C. Huynh
 -----------------------------------------------------------------------
 Exchange:     0.1670 Hartree-Fock + 1.0000 wB97X-V + LR-HF
 Correlation:  1.0000 wB97X-V
 Using SG-3 standard quadrature grid
 Nonlocal Correlation:  VV10 with C = 0.0100 and b = 6.00 and scale = 1.00000
 Grid used for NLC:  SG-1 standard quadrature
 
 Citation of the SMD model:
 Marenich, A.V.; Cramer, C.J.; Truhlar, D.G.
 J. Phys. Chem. B 2009, 113, 6378-6396.
 iSolventCode=           0
 Solvent: other                                                           
 
 vradii
            1           2           3           4           5           6
    1   2.2940000   1.8500000   2.2940000   2.2940000   2.2940000   1.8500000
            7           8           9          10          11          12
    1   2.2940000   1.8500000   1.8500000   1.2000000   1.2000000   1.2000000
           13          14
    1   1.2000000   1.2000000
 using 32 threads for integral computing
 -------------------------------------------------------
 OpenMP Integral computing Module                
 Release: version 1.0, May 2013, Q-Chem Inc. Pittsburgh 
 -------------------------------------------------------
 using 32 threads for integral computing
 -------------------------------------------------------
 OpenMP Integral computing Module                
 Release: version 1.0, May 2013, Q-Chem Inc. Pittsburgh 
 -------------------------------------------------------
 -------------------------------------------------------
 OpenMP BLAS3 based DFT computing Module                
 Release: version 1.0, May 2013, Q-Chem Inc. Pittsburgh 
 -------------------------------------------------------
 -------------------------------------------------------
 OpenMP BLAS3 based DFT computing Module                
 Release: version 1.0, May 2013, Q-Chem Inc. Pittsburgh 
 -------------------------------------------------------
 -------------------------------------------------------
 OpenMP BLAS3 based DFT computing Module                
 Release: version 1.0, May 2013, Q-Chem Inc. Pittsburgh 
 -------------------------------------------------------
 A restricted SCF calculation will be
 performed using Roothaan-Hall, DIIS
 SCF converges when DIIS error is below 1.0e-08
 ---------------------------------------
  Cycle       Energy         DIIS error
 ---------------------------------------
    1    -540.5178159908      9.33e-04  Roothaan Step
 ---------------------------------------
  Cycle       Energy         DIIS error
 ---------------------------------------
    1    -531.0804281751      1.01e-03  
    2    -530.7290820321      4.02e-03  
    3    -531.1068862711      6.63e-04  
    4    -531.1130358002      4.15e-04  
    5    -531.1143076308      3.28e-04  
    6    -531.1159553696      1.82e-04  
    7    -531.1165358808      8.13e-05  
    8    -531.1166696328      3.03e-05  
    9    -531.1166887326      1.41e-05  
   10    -531.1166942126      2.72e-06  
   11    -531.1166945443      1.42e-06  
   12    -531.1166946274      4.95e-07  
   13    -531.1166946495      5.07e-07  
   14    -531.1166946596      9.36e-08  
   15    -531.1166946604      7.90e-08  
   16    -531.1166946606      5.30e-08  
   17    -531.1166946606      6.87e-09  Convergence criterion met
 ---------------------------------------
 SCF time:   CPU 4182.89s  wall 164.00s 
(3)  G-ENP(liq) elect-nuc-pol free energy of system     -531.116694661 a.u.
(4)  G-CDS(liq) cavity-dispersion-solvent structure 
     free energy                                               -3.2837 kcal/mol
(6)  G-S(liq) free energy of system                     -531.121927528 a.u.
 SCF   energy in the final basis set =     -531.1166946606
 Total energy in the final basis set =     -531.1219275275
 
 --------------------------------------------------------------
 
                    Orbital Energies (a.u.)
 --------------------------------------------------------------
 
 Alpha MOs
 -- Occupied --
-19.3915 -19.3851 -19.3363 -19.3320 -19.3264 -10.5259 -10.5106 -10.3907
-10.3821  -1.3689  -1.3526  -1.3005  -1.2524  -1.2030  -0.9933  -0.8925
 -0.8103  -0.7712  -0.7316  -0.7046  -0.7000  -0.6883  -0.6824  -0.6739
 -0.6302  -0.6274  -0.5781  -0.5726  -0.5292  -0.5125  -0.5081  -0.4958
 -0.4763  -0.3617
 -- Virtual --
 -0.2762  -0.0131   0.0396   0.0443   0.0678   0.0718   0.0778   0.0803
  0.0881   0.0930   0.0999   0.1121   0.1178   0.1242   0.1262   0.1308
  0.1395   0.1486   0.1516   0.1651   0.1767   0.1793   0.1890   0.2040
  0.2066   0.2106   0.2113   0.2187   0.2360   0.2447   0.2496   0.2511
  0.2690   0.2731   0.2831   0.2849   0.2872   0.2919   0.3027   0.3118
  0.3189   0.3203   0.3252   0.3269   0.3385   0.3416   0.3491   0.3564
  0.3645   0.3681   0.3724   0.3796   0.3867   0.3883   0.3914   0.3926
  0.3968   0.3994   0.4175   0.4242   0.4312   0.4375   0.4490   0.4531
  0.4553   0.4599   0.4687   0.4847   0.4855   0.4867   0.4942   0.5029
  0.5065   0.5112   0.5322   0.5392   0.5422   0.5502   0.5548   0.5603
  0.5698   0.5760   0.5776   0.5880   0.6002   0.6029   0.6214   0.6290
  0.6315   0.6409   0.6511   0.6528   0.6605   0.6732   0.6748   0.6834
  0.6929   0.7143   0.7282   0.7302   0.7324   0.7424   0.7449   0.7504
  0.7603   0.7634   0.7665   0.7909   0.7970   0.8088   0.8145   0.8263
  0.8335   0.8500   0.8531   0.8647   0.8728   0.8948   0.9067   0.9254
  0.9371   0.9390   0.9474   0.9663   0.9691   0.9822   0.9858   0.9942
  1.0063   1.0157   1.0327   1.0538   1.0584   1.0819   1.0932   1.1076
  1.1312   1.1348   1.1387   1.1621   1.1630   1.1778   1.1813   1.1837
  1.2142   1.2158   1.2282   1.2464   1.2584   1.2636   1.2729   1.2811
  1.2932   1.3039   1.3329   1.3433   1.3836   1.3902   1.4056   1.4152
  1.4347   1.4590   1.4627   1.4816   1.5087   1.5172   1.5346   1.5939
  1.6378   1.6659   1.6844   1.7003   1.7029   1.7339   1.7641   1.7710
  1.7777   1.7790   1.8018   1.8148   1.8387   1.8586   1.8929   1.9276
  1.9492   1.9580   1.9737   1.9883   2.0105   2.0154   2.0597   2.0605
  2.0790   2.0975   2.1017   2.1379   2.1836   2.1841   2.1978   2.2291
  2.2373   2.2877   2.2899   2.2993   2.3188   2.3545   2.3601   2.4098
  2.4291   2.4549   2.4770   2.5035   2.5476   2.5736   2.5891   2.7087
  2.7426   2.7665   2.7910   2.8218   2.8338   2.8513   2.8589   2.8689
  2.8923   2.9061   2.9482   2.9528   2.9589   2.9958   3.0228   3.0255
  3.0925   3.0974   3.1225   3.1368   3.1436   3.1792   3.1806   3.1877
  3.1992   3.2016   3.2139   3.2250   3.2254   3.2599   3.2677   3.2753
  3.2797   3.2922   3.3188   3.3230   3.3342   3.3685   3.3692   3.4071
  3.4135   3.4242   3.4521   3.4595   3.4707   3.4866   3.5078   3.5254
  3.5284   3.5312   3.5678   3.5737   3.5899   3.6128   3.6247   3.6452
  3.6964   3.7352   3.7538   3.7758   3.7880   3.8100   3.8224   3.8885
  3.9075   3.9276   3.9547   3.9685   4.0211   4.0254   4.0577   4.0650
  4.0984   4.1169   4.1737   4.1777   4.2296   4.2421   4.3044   4.3174
  4.3523   4.3830   4.3960   4.4232   4.4443   4.4826   4.5238   4.5757
  4.5907   4.6424   4.6756   4.6873   4.6936   4.7506   4.7622   4.8190
  4.8524   4.8687   4.8867   4.9935   5.0586   5.0660   5.0718   5.1104
  5.1163   5.1545   5.1650   5.1799   5.1923   5.1977   5.2559   5.2833
  5.3630   5.4465   5.4545   5.4653   5.4728   5.5147   5.5257   5.5348
  5.5802   5.5884   5.6356   5.6657   5.6865   5.7170   5.7554   5.7865
  5.8534   5.9140   5.9280   5.9541   6.0040   6.0332   6.0786   6.1173
  6.2068   6.2081   6.2146   6.3512   6.3913   6.4144   6.4377   6.4601
  6.4728   6.5692   6.5817   6.5822   6.5873   6.6320   6.6432   6.7420
  6.7614   6.7688   6.8002   6.8013   6.8205   6.8472   6.8646   6.8771
  6.9768   7.0379   7.0386   7.1533   7.1572   7.2103   7.3134   7.3309
  7.3885   7.4128   7.4824   7.6502   7.6752   7.7098  22.9938  23.5234
 23.5991  23.9970  44.0541  44.1121  44.2036  44.4380  44.6377
 --------------------------------------------------------------
 
          Ground-State Mulliken Net Atomic Charges

     Atom                 Charge (a.u.)
  ----------------------------------------
      1 O                    -0.259224
      2 C                     0.569750
      3 O                    -0.239731
      4 O                    -0.133377
      5 O                    -0.027449
      6 C                     0.236082
      7 O                    -0.092883
      8 C                     0.013471
      9 C                    -0.081934
     10 H                     0.318120
     11 H                     0.155509
     12 H                     0.155509
     13 H                     0.193078
     14 H                     0.193078
  ----------------------------------------
  Sum of atomic charges =     1.000000

  Building new vdw surfaces
         Merz-Kollman RESP Net Atomic Charges

     Atom                 Charge (a.u.)
  ----------------------------------------
      1 O                    -0.313076
      2 C                     0.791071
      3 O                    -0.313076
      4 O                    -0.239137
      5 O                     0.100914
      6 C                     0.182998
      7 O                    -0.247946
      8 C                    -0.114181
      9 C                    -0.019948
     10 H                     0.494509
     11 H                     0.189969
     12 H                     0.189969
     13 H                     0.148967
     14 H                     0.148967
  ----------------------------------------
  Sum of atomic charges =     1.000000

  Related Dipole Moment =     8.7357 (X -6.4185 Y  5.9259 Z  0.0000)

 -----------------------------------------------------------------
                    Cartesian Multipole Moments
 -----------------------------------------------------------------
    Charge (ESU x 10^10)
                 4.8032
    Dipole Moment (Debye)
         X      -6.3798      Y       5.8841      Z       0.0000
       Tot       8.6790
    Quadrupole Moments (Debye-Ang)
        XX     -32.9125     XY     -11.5109     YY     -41.7198
        XZ       0.0000     YZ       0.0000     ZZ     -45.7538
    Octopole Moments (Debye-Ang^2)
       XXX    -271.2895    XXY      74.3959    XYY    -109.4731
       YYY      47.5513    XXZ      -0.0000    XYZ      -0.0000
       YYZ      -0.0000    XZZ     -51.2778    YZZ       2.3432
       ZZZ       0.0000
    Hexadecapole Moments (Debye-Ang^3)
      XXXX   -1888.6102   XXXY     342.9354   XXYY    -354.0133
      XYYY     405.7966   YYYY    -739.6176   XXXZ       0.0000
      XXYZ       0.0000   XYYZ       0.0000   YYYZ       0.0000
      XXZZ    -310.7024   XYZZ     151.4971   YYZZ    -134.3078
      XZZZ       0.0000   YZZZ      -0.0000   ZZZZ     -50.1743
 -----------------------------------------------------------------
 Calculating analytic gradient of the SCF energy
 Gradient of CDS energy
            1           2           3           4           5           6
    1   0.0001630   0.0001773  -0.0000396  -0.0004973   0.0003795  -0.0006431
    2  -0.0008390   0.0002488   0.0003125   0.0004480  -0.0005135  -0.0006020
    3  -0.0000000   0.0000000  -0.0000000  -0.0000000   0.0000000  -0.0000000
            7           8           9          10          11          12
    1  -0.0002111  -0.0004806   0.0005087   0.0001157   0.0002894   0.0002894
    2   0.0004308  -0.0003051   0.0002984   0.0005279   0.0000380   0.0000380
    3   0.0000000  -0.0000000   0.0000000  -0.0000000   0.0001439  -0.0001439
           13          14
    1  -0.0000255  -0.0000255
    2  -0.0000414  -0.0000414
    3  -0.0001374   0.0001374
 Gradient of SCF Energy
            1           2           3           4           5           6
    1  -0.0006079   0.0221137   0.0037236  -0.0217011   0.0823576  -0.0582760
    2  -0.0508046   0.0449461   0.0066443  -0.0053395  -0.0001910  -0.0629420
    3   0.0000000  -0.0000000   0.0000000  -0.0000000   0.0000000   0.0000000
            7           8           9          10          11          12
    1   0.0324354  -0.0129562  -0.0009819  -0.0433457  -0.0135425  -0.0135425
    2   0.0611506   0.0601154  -0.0515313   0.0020678  -0.0238507  -0.0238507
    3  -0.0000000  -0.0000000  -0.0000000  -0.0000000  -0.0489737   0.0489737
           13          14
    1   0.0121617   0.0121617
    2   0.0217928   0.0217928
    3   0.0461639  -0.0461639
 Max gradient component =       8.236E-02
 RMS gradient           =       3.263E-02
 Computing fast CPCM-SWIG gradient
 Updating gradient with PCM contributions...
 -- total gradient after adding PCM contribution --
---------------------------------------------------
  Atom         X              Y              Z     
---------------------------------------------------
   1      -0.006492      -0.025272       0.000000
   2       0.036543       0.046658      -0.000000
   3      -0.021946      -0.014780       0.000000
   4      -0.005538      -0.008064      -0.000000
   5       0.039935      -0.004391       0.000000
   6      -0.030749      -0.029075       0.000000
   7      -0.006728       0.029587       0.000000
   8      -0.007927       0.015363      -0.000000
   9      -0.001250      -0.005492       0.000000
  10       0.003077      -0.002117      -0.000000
  11       0.000982      -0.002893       0.000533
  12       0.000982      -0.002893      -0.000533
  13      -0.000444       0.001685      -0.000292
  14      -0.000444       0.001685       0.000292
---------------------------------------------------
 Number of fixed atoms: 0
 Gradient time:  CPU 700.71 s  wall 32.59 s
 Geometry Optimization Parameters
   NAtoms,    NIC,     NZ,  NCons,   NDum,   NFix, NCnnct, MaxDiis
       14      79       0       0       0       0       0       0

 Cartesian Hessian Update
 Hessian updated using BFGS update


** GEOMETRY OPTIMIZATION IN DELOCALIZED INTERNAL COORDINATES **
   Searching for a Minimum

   Optimization Cycle:   2

                       Coordinates (Angstroms)
     ATOM                X               Y               Z
      1  O         3.6556418937   -2.6817912973    0.0000000000
      2  C         3.3164403950   -1.4421027883    0.0000000000
      3  O         4.1985657640   -0.6154242177    0.0000000000
      4  O         2.0200462966   -1.2547559885    0.0000000000
      5  O        -0.5187310066    1.2795188446    0.0000000000
      6  C        -1.7953914134    1.4618635409    0.0000000000
      7  O        -2.2037929889    2.6881975891    0.0000000000
      8  C         0.0031521138   -0.0738369244    0.0000000000
      9  C         1.5051988357    0.1098135144    0.0000000000
     10  H        -3.1822533472    2.7144129197    0.0000000000
     11  H        -0.3379756518   -0.5938621768   -0.8958731054
     12  H        -0.3379756518   -0.5938621768    0.8958731055
     13  H         1.8431396433    0.6350018447    0.8954841520
     14  H         1.8431396433    0.6350018447   -0.8954841521
   Point Group: c1    Number of degrees of freedom:    36


   Energy is   -531.121927528

 Hessian updated using BFGS update

 20 Hessian modes will be used to form the next step
  Hessian Eigenvalues:
     0.058088    0.059200    0.108851    0.109219    0.155688    0.181054
     0.219871    0.220333    0.283169    0.309621    0.345789    0.345871
     0.390837    0.411155    0.452369    0.537810    0.583694    0.597414
     0.612004    1.053268

 Minimum search - taking simple RFO step
 Searching for Lamda that Minimizes Along All modes
 Value Taken    Lamda =  -0.01469630
 Step Taken.  Stepsize is  0.273367

                             Maximum     Tolerance    Cnvgd?
         Gradient           0.032500      0.000300      NO
         Displacement       0.136454      0.001200      NO
         Energy change     -0.022093      0.000001      NO


 New Cartesian Coordinates Obtained by Inverse Iteration

  ***ERROR*** Exceeded allowed number of iterative cycles in GetCART
**WARNING** Problems with Internal Coordinates
  Switching to Cartesian Coordinates

 Translations and Rotations Projected Out of Hessian

 36 Hessian modes will be used to form the next step
  Hessian Eigenvalues:
     0.080043    1.000000    1.000000    1.000000    1.000000    1.000000
     1.000000    1.000000    1.000000    1.000000    1.000000    1.000000
     1.000000    1.000000    1.000000    1.000000    1.000000    1.000000
     1.000000    1.000000    1.000000    1.000000    1.000000    1.000000
     1.000000    1.000000    1.000000    1.000000    1.000000    1.000000
     1.000000    1.000000    1.000000    1.000000    1.000000    1.323358

 Minimum search - taking simple RFO step
 Searching for Lamda that Minimizes Along All modes
 Value Taken    Lamda =  -0.01315866
 Step Taken.  Stepsize is  0.245365

                             Maximum     Tolerance    Cnvgd?
         Gradient           0.046658      0.000300      NO
         Displacement       0.108507      0.001200      NO
         Energy change     -0.022093      0.000001      NO

 ----------------------------------------------------------------
             Standard Nuclear Orientation (Angstroms)
    I     Atom           X                Y                Z
 ----------------------------------------------------------------
    1      O       3.6636207084    -2.6759149101     0.0000000000
    2      C       3.2952123015    -1.4885771416     0.0000000000
    3      O       4.2529108292    -0.6728437857     0.0000000000
    4      O       2.0224927344    -1.2329280100     0.0000000000
    5      O      -0.5414908223     1.2866900384     0.0000000000
    6      C      -1.7680425967     1.5017811824     0.0000000000
    7      O      -2.2313891343     2.6809806998     0.0000000000
    8      C       0.0108324994    -0.0840133819     0.0000000000
    9      C       1.5097146807     0.1303741600     0.0000000000
   10      H      -3.2199384275     2.6941961590     0.0000000000
   11      H      -0.3300756195    -0.5937580767    -0.8982915781
   12      H      -0.3300756195    -0.5937580766     0.8982915781
   13      H       1.8377164960     0.6579728357     0.8974326635
   14      H       1.8377164960     0.6579728357    -0.8974326636
 ----------------------------------------------------------------
 Nuclear Repulsion Energy =         425.81778939 hartrees
 There are       34 alpha and       34 beta electrons
 Discretize the solute cavity surface with Lebedev spheres
	Using 110 Lebedev grid points for each H atom
	Using 194 Lebedev grid points for other atoms
	Atomic van der Waals radii will be scaled by 1.20
 Remove points where switching function is < 1.0e-08
 Keep 991 surface tesserae and discard 1305 interior tesserae
 Molecular Surface Area = 205.115 Angst**2
 Applying Cartesian multipole field
    Component          Value
    ---------          -----
     (2,0,0)        1.00000E-11
     (0,2,0)        2.00000E-11
     (0,0,2)       -3.00000E-11
 Nucleus-field energy     =     0.0000000283 hartrees
 Requested basis set is def2-TZVPPD
 There are 157 shells and 433 basis functions
 A cutoff of  1.0D-14 yielded  10880 shell pairs
 There are     82344 function pairs (    105520 Cartesian)
 Smallest overlap matrix eigenvalue = 5.43E-06
 Guess MOs from SCF MO coefficient file

 -----------------------------------------------------------------------
  General SCF calculation program by
  Eric Jon Sundstrom, Paul Horn, Yuezhi Mao, Dmitri Zuev, Alec White,
  David Stuck, Shaama M.S., Shane Yost, Joonho Lee, David Small,
  Daniel Levine, Susi Lehtola, Hugh Burton, Evgeny Epifanovsky,
  Bang C. Huynh
 -----------------------------------------------------------------------
 Exchange:     0.1670 Hartree-Fock + 1.0000 wB97X-V + LR-HF
 Correlation:  1.0000 wB97X-V
 Using SG-3 standard quadrature grid
 Nonlocal Correlation:  VV10 with C = 0.0100 and b = 6.00 and scale = 1.00000
 Grid used for NLC:  SG-1 standard quadrature
 
 Citation of the SMD model:
 Marenich, A.V.; Cramer, C.J.; Truhlar, D.G.
 J. Phys. Chem. B 2009, 113, 6378-6396.
 iSolventCode=           0
 Solvent: other                                                           
 
 vradii
            1           2           3           4           5           6
    1   2.2940000   1.8500000   2.2940000   2.2940000   2.2940000   1.8500000
            7           8           9          10          11          12
    1   2.2940000   1.8500000   1.8500000   1.2000000   1.2000000   1.2000000
           13          14
    1   1.2000000   1.2000000
 using 32 threads for integral computing
 -------------------------------------------------------
 OpenMP Integral computing Module                
 Release: version 1.0, May 2013, Q-Chem Inc. Pittsburgh 
 -------------------------------------------------------
 using 32 threads for integral computing
 -------------------------------------------------------
 OpenMP Integral computing Module                
 Release: version 1.0, May 2013, Q-Chem Inc. Pittsburgh 
 -------------------------------------------------------
 -------------------------------------------------------
 OpenMP BLAS3 based DFT computing Module                
 Release: version 1.0, May 2013, Q-Chem Inc. Pittsburgh 
 -------------------------------------------------------
 -------------------------------------------------------
 OpenMP BLAS3 based DFT computing Module                
 Release: version 1.0, May 2013, Q-Chem Inc. Pittsburgh 
 -------------------------------------------------------
 -------------------------------------------------------
 OpenMP BLAS3 based DFT computing Module                
 Release: version 1.0, May 2013, Q-Chem Inc. Pittsburgh 
 -------------------------------------------------------
 A restricted SCF calculation will be
 performed using Roothaan-Hall, DIIS
 SCF converges when DIIS error is below 1.0e-08
 ---------------------------------------
  Cycle       Energy         DIIS error
 ---------------------------------------
    1    -540.5269809676      8.17e-04  Roothaan Step
 ---------------------------------------
  Cycle       Energy         DIIS error
 ---------------------------------------
    1    -531.0458879692      1.51e-03  
    2    -530.5908441342      4.80e-03  
    3    -531.0776373436      1.38e-03  
    4    -531.1160896230      5.54e-04  
    5    -531.1188632255      4.07e-04  
    6    -531.1210985507      2.56e-04  
    7    -531.1220146268      1.58e-04  
    8    -531.1224680150      6.94e-05  
    9    -531.1225613598      2.59e-05  
   10    -531.1225767684      6.75e-06  
   11    -531.1225777329      2.94e-06  
   12    -531.1225779457      3.79e-07  
   13    -531.1225779549      2.46e-07  
   14    -531.1225779582      1.05e-07  
   15    -531.1225779589      4.86e-08  
   16    -531.1225779590      3.46e-08  
   17    -531.1225779590      7.17e-09  Convergence criterion met
 ---------------------------------------
 SCF time:   CPU 4254.21s  wall 166.00s 
(3)  G-ENP(liq) elect-nuc-pol free energy of system     -531.122577959 a.u.
(4)  G-CDS(liq) cavity-dispersion-solvent structure 
     free energy                                               -3.3337 kcal/mol
(6)  G-S(liq) free energy of system                     -531.127890590 a.u.
 SCF   energy in the final basis set =     -531.1225779590
 Total energy in the final basis set =     -531.1278905896
 
 --------------------------------------------------------------
 
                    Orbital Energies (a.u.)
 --------------------------------------------------------------
 
 Alpha MOs
 -- Occupied --
-19.4061 -19.3982 -19.3278 -19.3049 -19.2996 -10.5364 -10.4955 -10.4000
-10.3832  -1.3918  -1.3370  -1.3215  -1.2408  -1.1775  -1.0032  -0.9006
 -0.8260  -0.7773  -0.7320  -0.7168  -0.7087  -0.6787  -0.6755  -0.6632
 -0.6342  -0.6303  -0.5814  -0.5693  -0.5260  -0.5231  -0.4966  -0.4786
 -0.4662  -0.3441
 -- Virtual --
 -0.2599  -0.0100   0.0350   0.0450   0.0672   0.0717   0.0796   0.0871
  0.0872   0.0887   0.1007   0.1114   0.1182   0.1193   0.1270   0.1327
  0.1378   0.1476   0.1520   0.1640   0.1750   0.1758   0.1881   0.2020
  0.2062   0.2110   0.2116   0.2192   0.2338   0.2419   0.2455   0.2511
  0.2679   0.2748   0.2825   0.2848   0.2865   0.2927   0.3033   0.3094
  0.3164   0.3213   0.3260   0.3266   0.3422   0.3423   0.3498   0.3547
  0.3648   0.3693   0.3753   0.3852   0.3891   0.3905   0.3929   0.3937
  0.3996   0.4108   0.4154   0.4233   0.4291   0.4386   0.4470   0.4539
  0.4540   0.4627   0.4668   0.4846   0.4922   0.4944   0.5015   0.5043
  0.5151   0.5154   0.5331   0.5403   0.5454   0.5512   0.5555   0.5651
  0.5751   0.5788   0.5801   0.5872   0.6011   0.6083   0.6174   0.6319
  0.6347   0.6381   0.6526   0.6603   0.6651   0.6726   0.6756   0.6883
  0.6911   0.7166   0.7254   0.7259   0.7318   0.7424   0.7429   0.7473
  0.7572   0.7595   0.7737   0.7944   0.7987   0.8088   0.8130   0.8276
  0.8340   0.8414   0.8553   0.8664   0.8725   0.8976   0.9198   0.9270
  0.9320   0.9396   0.9448   0.9667   0.9670   0.9863   0.9869   0.9897
  1.0020   1.0198   1.0481   1.0494   1.0589   1.0838   1.0941   1.1047
  1.1315   1.1381   1.1425   1.1672   1.1692   1.1771   1.1820   1.1879
  1.2153   1.2265   1.2310   1.2400   1.2619   1.2660   1.2721   1.2760
  1.2982   1.3054   1.3351   1.3465   1.3774   1.3914   1.4041   1.4215
  1.4399   1.4643   1.4655   1.4810   1.4997   1.5175   1.5320   1.5949
  1.6380   1.6689   1.6823   1.6936   1.7126   1.7296   1.7593   1.7777
  1.7833   1.7903   1.8213   1.8280   1.8371   1.8833   1.9020   1.9278
  1.9444   1.9588   1.9851   1.9951   2.0252   2.0284   2.0361   2.0609
  2.0788   2.0969   2.0996   2.1284   2.1623   2.1956   2.2098   2.2407
  2.2569   2.2744   2.2823   2.2964   2.3116   2.3627   2.3865   2.3987
  2.4249   2.4609   2.4696   2.5022   2.5625   2.5937   2.6050   2.7128
  2.7434   2.7754   2.7883   2.8230   2.8494   2.8599   2.8690   2.8707
  2.8912   2.9288   2.9460   2.9522   2.9535   3.0029   3.0207   3.0272
  3.0993   3.1107   3.1164   3.1445   3.1483   3.1750   3.1768   3.1854
  3.1899   3.2063   3.2091   3.2121   3.2226   3.2668   3.2683   3.2744
  3.2834   3.2839   3.3159   3.3330   3.3344   3.3586   3.3774   3.4117
  3.4120   3.4325   3.4471   3.4594   3.4764   3.5010   3.5206   3.5381
  3.5392   3.5456   3.5767   3.5821   3.5953   3.6123   3.6407   3.6600
  3.7031   3.7259   3.7642   3.7854   3.7875   3.8003   3.8253   3.8896
  3.9211   3.9300   3.9498   3.9944   4.0154   4.0202   4.0542   4.0659
  4.0872   4.1265   4.1713   4.1836   4.2256   4.2365   4.2894   4.3055
  4.3471   4.3760   4.3982   4.4158   4.4372   4.4692   4.5215   4.5718
  4.6130   4.6383   4.6633   4.6783   4.7016   4.7396   4.7666   4.8419
  4.8459   4.8880   4.8973   4.9791   5.0444   5.0665   5.0735   5.0981
  5.1400   5.1669   5.1882   5.1963   5.2096   5.2209   5.2524   5.2862
  5.3467   5.4394   5.4477   5.4598   5.4763   5.5065   5.5352   5.5482
  5.5805   5.5828   5.6267   5.6669   5.6939   5.7311   5.7439   5.7621
  5.8584   5.9218   5.9938   5.9974   6.0353   6.0522   6.0770   6.1882
  6.2038   6.2109   6.2538   6.3713   6.3865   6.4098   6.4283   6.4949
  6.5014   6.5670   6.5897   6.6001   6.6052   6.6497   6.6854   6.7196
  6.7500   6.7726   6.7969   6.8076   6.8444   6.8771   6.8816   6.8949
  6.9686   7.0385   7.0522   7.1510   7.1580   7.2285   7.3009   7.3179
  7.3817   7.4218   7.4940   7.6517   7.6835   7.7044  23.1959  23.5087
 23.5902  24.0536  44.0564  44.1092  44.2398  44.4305  44.6718
 --------------------------------------------------------------
 
          Ground-State Mulliken Net Atomic Charges

     Atom                 Charge (a.u.)
  ----------------------------------------
      1 O                    -0.309683
      2 C                     0.584321
      3 O                    -0.308894
      4 O                    -0.139363
      5 O                    -0.006633
      6 C                     0.321979
      7 O                    -0.086397
      8 C                    -0.008277
      9 C                    -0.067626
     10 H                     0.330816
     11 H                     0.159536
     12 H                     0.159536
     13 H                     0.185343
     14 H                     0.185343
  ----------------------------------------
  Sum of atomic charges =     1.000000

  Building new vdw surfaces
         Merz-Kollman RESP Net Atomic Charges

     Atom                 Charge (a.u.)
  ----------------------------------------
      1 O                    -0.379706
      2 C                     0.845794
      3 O                    -0.379706
      4 O                    -0.317843
      5 O                     0.108042
      6 C                     0.242385
      7 O                    -0.232002
      8 C                    -0.178972
      9 C                     0.117344
     10 H                     0.501152
     11 H                     0.214206
     12 H                     0.214206
     13 H                     0.122550
     14 H                     0.122550
  ----------------------------------------
  Sum of atomic charges =     1.000000

  Related Dipole Moment =    12.0727 (X -9.4168 Y  7.5548 Z -0.0000)

 -----------------------------------------------------------------
                    Cartesian Multipole Moments
 -----------------------------------------------------------------
    Charge (ESU x 10^10)
                 4.8032
    Dipole Moment (Debye)
         X      -9.3734      Y       7.5438      Z       0.0000
       Tot      12.0320
    Quadrupole Moments (Debye-Ang)
        XX     -39.8960     XY      -9.3835     YY     -42.1862
        XZ       0.0000     YZ       0.0000     ZZ     -45.5881
    Octopole Moments (Debye-Ang^2)
       XXX    -320.7653    XXY      93.3455    XYY    -121.7906
       YYY      59.1558    XXZ       0.0000    XYZ      -0.0000
       YYZ      -0.0000    XZZ     -53.0217    YZZ       3.1081
       ZZZ       0.0000
    Hexadecapole Moments (Debye-Ang^3)
      XXXX   -2063.4087   XXXY     394.7372   XXYY    -380.7067
      XYYY     428.1720   YYYY    -756.3983   XXXZ       0.0000
      XXYZ       0.0000   XYYZ       0.0000   YYYZ       0.0000
      XXZZ    -317.0752   XYZZ     153.8055   YYZZ    -134.4939
      XZZZ       0.0000   YZZZ      -0.0000   ZZZZ     -49.9342
 -----------------------------------------------------------------
 Calculating analytic gradient of the SCF energy
 Gradient of CDS energy
            1           2           3           4           5           6
    1   0.0002587  -0.0003363   0.0003033  -0.0004086   0.0001866  -0.0003544
    2  -0.0003991  -0.0003635   0.0003864   0.0005518  -0.0006317  -0.0002687
    3  -0.0000000   0.0000000  -0.0000000  -0.0000000   0.0000000  -0.0000000
            7           8           9          10          11          12
    1  -0.0002739  -0.0004930   0.0005696   0.0000948   0.0002875   0.0002875
    2   0.0002063  -0.0003461   0.0003208   0.0005302   0.0000516   0.0000516
    3   0.0000000  -0.0000000   0.0000000  -0.0000000   0.0001353  -0.0001353
           13          14
    1  -0.0000609  -0.0000609
    2  -0.0000448  -0.0000448
    3  -0.0001331   0.0001331
 Gradient of SCF Energy
            1           2           3           4           5           6
    1   0.0051698  -0.0297194   0.0390000  -0.0040425   0.0542667  -0.0344044
    2  -0.0137498  -0.0051304   0.0157904  -0.0048952   0.0078386  -0.0474952
    3   0.0000000  -0.0000000   0.0000000  -0.0000000   0.0000000   0.0000000
            7           8           9          10          11          12
    1   0.0427506  -0.0066962  -0.0047918  -0.0553236  -0.0137586  -0.0137586
    2   0.0432811   0.0497725  -0.0463796   0.0048008  -0.0242133  -0.0242133
    3  -0.0000000  -0.0000000   0.0000000  -0.0000000  -0.0504450   0.0504450
           13          14
    1   0.0106541   0.0106541
    2   0.0222967   0.0222967
    3   0.0459853  -0.0459853
 Max gradient component =       5.532E-02
 RMS gradient           =       2.801E-02
 Computing fast CPCM-SWIG gradient
 Updating gradient with PCM contributions...
 -- total gradient after adding PCM contribution --
---------------------------------------------------
  Atom         X              Y              Z     
---------------------------------------------------
   1      -0.002266       0.008978       0.000000
   2      -0.015136      -0.008466      -0.000000
   3       0.016213       0.001624       0.000000
   4       0.008994      -0.007102      -0.000000
   5       0.006565       0.001875       0.000000
   6      -0.003538      -0.009131       0.000000
   7       0.003402       0.007191      -0.000000
   8      -0.007208       0.007791       0.000000
   9      -0.005211      -0.000501       0.000000
  10      -0.003936      -0.000341      -0.000000
  11       0.002024      -0.002497       0.001612
  12       0.002024      -0.002497      -0.001612
  13      -0.000964       0.001538      -0.000048
  14      -0.000964       0.001538       0.000048
---------------------------------------------------
 Number of fixed atoms: 0
 Gradient time:  CPU 708.98 s  wall 33.45 s
 Geometry Optimization Parameters
   NAtoms,    NIC,     NZ,  NCons,   NDum,   NFix, NCnnct, MaxDiis
       14      79       0       0       0       0       0       0

 Cartesian Hessian Update
 Hessian updated using BFGS update


** GEOMETRY OPTIMIZATION IN CARTESIAN COORDINATES **
   Searching for a Minimum

   Optimization Cycle:   3

                       Coordinates (Angstroms)
     ATOM                X               Y               Z
      1  O         3.6636207084   -2.6759149101    0.0000000000
      2  C         3.2952123015   -1.4885771416    0.0000000000
      3  O         4.2529108292   -0.6728437857    0.0000000000
      4  O         2.0224927344   -1.2329280100    0.0000000000
      5  O        -0.5414908223    1.2866900384    0.0000000000
      6  C        -1.7680425967    1.5017811824    0.0000000000
      7  O        -2.2313891343    2.6809806998    0.0000000000
      8  C         0.0108324994   -0.0840133819    0.0000000000
      9  C         1.5097146807    0.1303741600    0.0000000000
     10  H        -3.2199384275    2.6941961590    0.0000000000
     11  H        -0.3300756195   -0.5937580767   -0.8982915781
     12  H        -0.3300756195   -0.5937580766    0.8982915781
     13  H         1.8377164960    0.6579728357    0.8974326635
     14  H         1.8377164960    0.6579728357   -0.8974326636
   Point Group: c1    Number of degrees of freedom:    36


   Energy is   -531.127890590


 Translations and Rotations Projected Out of Hessian

 35 Hessian modes will be used to form the next step
  Hessian Eigenvalues:
     0.094208    0.824205    1.000000    1.000000    1.000000    1.000000
     1.000000    1.000000    1.000000    1.000000    1.000000    1.000000
     1.000000    1.000000    1.000000    1.000000    1.000000    1.000000
     1.000000    1.000000    1.000000    1.000000    1.000000    1.000000
     1.000000    1.000000    1.000000    1.000000    1.000000    1.000000
     1.000000    1.000000    1.000000    1.172159    1.372255

 Minimum search - taking simple RFO step
 Searching for Lamda that Minimizes Along All modes
 Value Taken    Lamda =  -0.00113096
 Step Taken.  Stepsize is  0.040917

                             Maximum     Tolerance    Cnvgd?
         Gradient           0.016213      0.000300      NO
         Displacement       0.022071      0.001200      NO
         Energy change     -0.005963      0.000001      NO

 ----------------------------------------------------------------
             Standard Nuclear Orientation (Angstroms)
    I     Atom           X                Y                Z
 ----------------------------------------------------------------
    1      O       3.6643911171    -2.6789668518     0.0000000000
    2      C       3.3014001416    -1.4836938730     0.0000000000
    3      O       4.2412312455    -0.6651176442     0.0000000000
    4      O       2.0180181936    -1.2309898466     0.0000000000
    5      O      -0.5458187470     1.2857192200     0.0000000000
    6      C      -1.7667515902     1.5037701690     0.0000000000
    7      O      -2.2291103429     2.6758769734     0.0000000000
    8      C       0.0141848368    -0.0880642004     0.0000000000
    9      C       1.5119963648     0.1285035363     0.0000000000
   10      H      -3.2139187129     2.6968398455     0.0000000000
   11      H      -0.3320697276    -0.5922769407    -0.8988393069
   12      H      -0.3320697270    -0.5922769398     0.8988393062
   13      H       1.8388607365     0.6544255404     0.8972555888
   14      H       1.8388607373     0.6544255403    -0.8972555887
 ----------------------------------------------------------------
 Nuclear Repulsion Energy =         426.14203512 hartrees
 There are       34 alpha and       34 beta electrons
 Discretize the solute cavity surface with Lebedev spheres
	Using 110 Lebedev grid points for each H atom
	Using 194 Lebedev grid points for other atoms
	Atomic van der Waals radii will be scaled by 1.20
 Remove points where switching function is < 1.0e-08
 Keep 990 surface tesserae and discard 1306 interior tesserae
 Molecular Surface Area = 204.957 Angst**2
 Applying Cartesian multipole field
    Component          Value
    ---------          -----
     (2,0,0)        1.00000E-11
     (0,2,0)        2.00000E-11
     (0,0,2)       -3.00000E-11
 Nucleus-field energy     =     0.0000000282 hartrees
 Requested basis set is def2-TZVPPD
 There are 157 shells and 433 basis functions
 A cutoff of  1.0D-14 yielded  10887 shell pairs
 There are     82363 function pairs (    105541 Cartesian)
 Smallest overlap matrix eigenvalue = 5.39E-06
 Guess MOs from SCF MO coefficient file

 -----------------------------------------------------------------------
  General SCF calculation program by
  Eric Jon Sundstrom, Paul Horn, Yuezhi Mao, Dmitri Zuev, Alec White,
  David Stuck, Shaama M.S., Shane Yost, Joonho Lee, David Small,
  Daniel Levine, Susi Lehtola, Hugh Burton, Evgeny Epifanovsky,
  Bang C. Huynh
 -----------------------------------------------------------------------
 Exchange:     0.1670 Hartree-Fock + 1.0000 wB97X-V + LR-HF
 Correlation:  1.0000 wB97X-V
 Using SG-3 standard quadrature grid
 Nonlocal Correlation:  VV10 with C = 0.0100 and b = 6.00 and scale = 1.00000
 Grid used for NLC:  SG-1 standard quadrature
 
 Citation of the SMD model:
 Marenich, A.V.; Cramer, C.J.; Truhlar, D.G.
 J. Phys. Chem. B 2009, 113, 6378-6396.
 iSolventCode=           0
 Solvent: other                                                           
 
 vradii
            1           2           3           4           5           6
    1   2.2940000   1.8500000   2.2940000   2.2940000   2.2940000   1.8500000
            7           8           9          10          11          12
    1   2.2940000   1.8500000   1.8500000   1.2000000   1.2000000   1.2000000
           13          14
    1   1.2000000   1.2000000
 using 32 threads for integral computing
 -------------------------------------------------------
 OpenMP Integral computing Module                
 Release: version 1.0, May 2013, Q-Chem Inc. Pittsburgh 
 -------------------------------------------------------
 using 32 threads for integral computing
 -------------------------------------------------------
 OpenMP Integral computing Module                
 Release: version 1.0, May 2013, Q-Chem Inc. Pittsburgh 
 -------------------------------------------------------
 -------------------------------------------------------
 OpenMP BLAS3 based DFT computing Module                
 Release: version 1.0, May 2013, Q-Chem Inc. Pittsburgh 
 -------------------------------------------------------
 -------------------------------------------------------
 OpenMP BLAS3 based DFT computing Module                
 Release: version 1.0, May 2013, Q-Chem Inc. Pittsburgh 
 -------------------------------------------------------
 -------------------------------------------------------
 OpenMP BLAS3 based DFT computing Module                
 Release: version 1.0, May 2013, Q-Chem Inc. Pittsburgh 
 -------------------------------------------------------
 A restricted SCF calculation will be
 performed using Roothaan-Hall, DIIS
 SCF converges when DIIS error is below 1.0e-08
 ---------------------------------------
  Cycle       Energy         DIIS error
 ---------------------------------------
    1    -540.5672992861      4.62e-04  Roothaan Step
 ---------------------------------------
  Cycle       Energy         DIIS error
 ---------------------------------------
    1    -531.0110260555      1.85e-03  
    2    -530.5147187211      5.23e-03  
    3    -531.0271597466      1.97e-03  
    4    -531.1143224123      6.59e-04  
    5    -531.1188484662      4.49e-04  
    6    -531.1221762588      2.46e-04  
    7    -531.1228324384      1.75e-04  
    8    -531.1232930689      9.88e-05  
    9    -531.1234452618      5.12e-05  
   10    -531.1234960571      1.82e-05  
   11    -531.1235029441      5.01e-06  
   12    -531.1235035057      1.33e-06  
   13    -531.1235035571      5.05e-07  
   14    -531.1235035677      1.99e-07  
   15    -531.1235035695      4.77e-08  
   16    -531.1235035697      2.85e-08  
   17    -531.1235035697      1.11e-08  
   18    -531.1235035697      3.78e-09  Convergence criterion met
 ---------------------------------------
 SCF time:   CPU 4433.48s  wall 174.00s 
(3)  G-ENP(liq) elect-nuc-pol free energy of system     -531.123503570 a.u.
(4)  G-CDS(liq) cavity-dispersion-solvent structure 
     free energy                                               -3.3335 kcal/mol
(6)  G-S(liq) free energy of system                     -531.128815888 a.u.
 SCF   energy in the final basis set =     -531.1235035697
 Total energy in the final basis set =     -531.1288158881
 
 --------------------------------------------------------------
 
                    Orbital Energies (a.u.)
 --------------------------------------------------------------
 
 Alpha MOs
 -- Occupied --
-19.4122 -19.4051 -19.3224 -19.2952 -19.2902 -10.5452 -10.4888 -10.4019
-10.3810  -1.4005  -1.3305  -1.3284  -1.2342  -1.1721  -1.0047  -0.9024
 -0.8310  -0.7797  -0.7312  -0.7222  -0.7140  -0.6763  -0.6695  -0.6606
 -0.6350  -0.6299  -0.5828  -0.5688  -0.5253  -0.5239  -0.4896  -0.4740
 -0.4597  -0.3436
 -- Virtual --
 -0.2592  -0.0135   0.0338   0.0455   0.0671   0.0716   0.0794   0.0867
  0.0884   0.0907   0.1020   0.1113   0.1179   0.1191   0.1275   0.1330
  0.1379   0.1474   0.1522   0.1639   0.1750   0.1758   0.1881   0.2016
  0.2071   0.2112   0.2133   0.2192   0.2334   0.2423   0.2449   0.2521
  0.2679   0.2753   0.2826   0.2850   0.2865   0.2931   0.3034   0.3083
  0.3159   0.3211   0.3264   0.3269   0.3429   0.3430   0.3501   0.3548
  0.3645   0.3703   0.3756   0.3856   0.3891   0.3911   0.3929   0.3938
  0.4018   0.4115   0.4158   0.4237   0.4297   0.4388   0.4475   0.4544
  0.4552   0.4641   0.4663   0.4845   0.4928   0.4947   0.5010   0.5056
  0.5155   0.5159   0.5330   0.5405   0.5453   0.5524   0.5556   0.5656
  0.5766   0.5806   0.5813   0.5867   0.6021   0.6089   0.6178   0.6327
  0.6356   0.6383   0.6530   0.6613   0.6644   0.6733   0.6776   0.6886
  0.6905   0.7165   0.7254   0.7284   0.7331   0.7431   0.7438   0.7471
  0.7570   0.7604   0.7743   0.7955   0.7988   0.8092   0.8127   0.8290
  0.8359   0.8418   0.8557   0.8669   0.8715   0.8986   0.9213   0.9270
  0.9316   0.9396   0.9448   0.9676   0.9681   0.9868   0.9884   0.9900
  1.0019   1.0211   1.0479   1.0497   1.0597   1.0842   1.0966   1.1034
  1.1322   1.1383   1.1417   1.1695   1.1706   1.1778   1.1838   1.1888
  1.2149   1.2272   1.2319   1.2404   1.2637   1.2674   1.2726   1.2782
  1.2998   1.3066   1.3355   1.3485   1.3773   1.3926   1.4036   1.4220
  1.4395   1.4657   1.4660   1.4805   1.5032   1.5197   1.5350   1.5951
  1.6391   1.6714   1.6821   1.6927   1.7134   1.7310   1.7597   1.7780
  1.7849   1.7905   1.8211   1.8308   1.8380   1.8813   1.9004   1.9299
  1.9442   1.9578   1.9877   1.9958   2.0245   2.0282   2.0334   2.0656
  2.0787   2.0963   2.1019   2.1218   2.1592   2.2006   2.2097   2.2416
  2.2573   2.2740   2.2855   2.2972   2.3088   2.3660   2.3989   2.4004
  2.4227   2.4632   2.4678   2.5142   2.5633   2.5953   2.6117   2.7114
  2.7421   2.7749   2.7870   2.8213   2.8495   2.8562   2.8703   2.8745
  2.8983   2.9307   2.9459   2.9522   2.9524   3.0082   3.0174   3.0279
  3.1032   3.1054   3.1164   3.1451   3.1491   3.1725   3.1764   3.1874
  3.1940   3.2021   3.2064   3.2120   3.2215   3.2692   3.2725   3.2775
  3.2842   3.2863   3.3151   3.3334   3.3364   3.3558   3.3794   3.4117
  3.4165   3.4342   3.4507   3.4595   3.4817   3.5074   3.5219   3.5399
  3.5406   3.5565   3.5750   3.5875   3.5944   3.6123   3.6450   3.6590
  3.7057   3.7259   3.7640   3.7891   3.7900   3.8029   3.8279   3.8924
  3.9206   3.9354   3.9504   3.9973   4.0147   4.0227   4.0538   4.0705
  4.0897   4.1256   4.1713   4.1862   4.2257   4.2368   4.2863   4.3032
  4.3488   4.3757   4.4026   4.4156   4.4408   4.4686   4.5230   4.5728
  4.6100   4.6407   4.6621   4.6861   4.7039   4.7349   4.7694   4.8392
  4.8435   4.8930   4.9011   4.9768   5.0432   5.0639   5.0797   5.1031
  5.1472   5.1700   5.1951   5.2034   5.2164   5.2288   5.2634   5.2929
  5.3459   5.4419   5.4515   5.4604   5.4789   5.5106   5.5367   5.5565
  5.5870   5.5914   5.6276   5.6707   5.6962   5.7345   5.7440   5.7592
  5.8713   5.9166   6.0039   6.0058   6.0432   6.0563   6.0774   6.1941
  6.2098   6.2116   6.2573   6.3741   6.4034   6.4174   6.4278   6.5007
  6.5012   6.5606   6.5881   6.6080   6.6161   6.6533   6.6844   6.7141
  6.7416   6.7782   6.8035   6.8055   6.8422   6.8915   6.8922   6.8988
  6.9648   7.0445   7.0573   7.1517   7.1690   7.2416   7.3024   7.3299
  7.3809   7.4259   7.4936   7.6564   7.6852   7.7111  23.2202  23.5107
 23.6028  24.0479  44.0707  44.1114  44.2459  44.4240  44.6764
 --------------------------------------------------------------
 
          Ground-State Mulliken Net Atomic Charges

     Atom                 Charge (a.u.)
  ----------------------------------------
      1 O                    -0.329672
      2 C                     0.561979
      3 O                    -0.320513
      4 O                    -0.140423
      5 O                    -0.002716
      6 C                     0.362629
      7 O                    -0.075015
      8 C                    -0.012236
      9 C                    -0.062696
     10 H                     0.327837
     11 H                     0.161028
     12 H                     0.161028
     13 H                     0.184385
     14 H                     0.184385
  ----------------------------------------
  Sum of atomic charges =     1.000000

  Building new vdw surfaces
         Merz-Kollman RESP Net Atomic Charges

     Atom                 Charge (a.u.)
  ----------------------------------------
      1 O                    -0.404563
      2 C                     0.864895
      3 O                    -0.404563
      4 O                    -0.336892
      5 O                     0.095955
      6 C                     0.285492
      7 O                    -0.228761
      8 C                    -0.166000
      9 C                     0.119120
     10 H                     0.504125
     11 H                     0.214616
     12 H                     0.214616
     13 H                     0.120980
     14 H                     0.120980
  ----------------------------------------
  Sum of atomic charges =     1.000000

  Related Dipole Moment =    13.4456 (X -10.6137 Y  8.2543 Z -0.0000)

 -----------------------------------------------------------------
                    Cartesian Multipole Moments
 -----------------------------------------------------------------
    Charge (ESU x 10^10)
                 4.8032
    Dipole Moment (Debye)
         X     -10.5739      Y       8.2474      Z      -0.0000
       Tot      13.4099
    Quadrupole Moments (Debye-Ang)
        XX     -41.7776     XY      -8.8588     YY     -42.3456
        XZ       0.0000     YZ       0.0000     ZZ     -45.5559
    Octopole Moments (Debye-Ang^2)
       XXX    -334.5688    XXY      99.4855    XYY    -127.1569
       YYY      64.7422    XXZ      -0.0000    XYZ      -0.0000
       YYZ      -0.0000    XZZ     -53.6332    YZZ       3.5186
       ZZZ       0.0000
    Hexadecapole Moments (Debye-Ang^3)
      XXXX   -2102.1930   XXXY     407.3802   XXYY    -388.9576
      XYYY     432.5420   YYYY    -756.7976   XXXZ      -0.0000
      XXYZ      -0.0000   XYYZ       0.0000   YYYZ      -0.0000
      XXZZ    -317.2691   XYZZ     153.8085   YYZZ    -134.4351
      XZZZ       0.0000   YZZZ      -0.0000   ZZZZ     -49.8738
 -----------------------------------------------------------------
 Calculating analytic gradient of the SCF energy
 Gradient of CDS energy
            1           2           3           4           5           6
    1   0.0002445  -0.0001779   0.0002146  -0.0004649   0.0001657  -0.0003509
    2  -0.0004540  -0.0002734   0.0003539   0.0005491  -0.0006413  -0.0002182
    3  -0.0000000   0.0000000  -0.0000000  -0.0000000   0.0000000   0.0000000
            7           8           9          10          11          12
    1  -0.0002623  -0.0004845   0.0005638   0.0000970   0.0002825   0.0002825
    2   0.0001593  -0.0003580   0.0003266   0.0005306   0.0000601   0.0000601
    3  -0.0000000   0.0000000   0.0000000   0.0000000   0.0001323  -0.0001323
           13          14
    1  -0.0000550  -0.0000550
    2  -0.0000473  -0.0000473
    3  -0.0001344   0.0001344
 Gradient of SCF Energy
            1           2           3           4           5           6
    1   0.0090118  -0.0232126   0.0313980  -0.0076900   0.0567563  -0.0430114
    2  -0.0166798   0.0052957   0.0070202  -0.0015220   0.0120238  -0.0513028
    3   0.0000000  -0.0000000  -0.0000000  -0.0000000   0.0000000   0.0000000
            7           8           9          10          11          12
    1   0.0452160  -0.0030091  -0.0036744  -0.0527184  -0.0149091  -0.0149091
    2   0.0424011   0.0483556  -0.0454491   0.0052317  -0.0236415  -0.0236415
    3  -0.0000000   0.0000000   0.0000000  -0.0000000  -0.0511683   0.0511683
           13          14
    1   0.0103760   0.0103760
    2   0.0209543   0.0209543
    3   0.0450140  -0.0450140
 Max gradient component =       5.676E-02
 RMS gradient           =       2.798E-02
 Computing fast CPCM-SWIG gradient
 Updating gradient with PCM contributions...
 -- total gradient after adding PCM contribution --
---------------------------------------------------
  Atom         X              Y              Z     
---------------------------------------------------
   1       0.001494       0.004447       0.000000
   2      -0.007941       0.002492      -0.000000
   3       0.009351      -0.006214       0.000000
   4       0.004043      -0.004009      -0.000000
   5       0.005644       0.005132       0.000000
   6      -0.007738      -0.008961       0.000000
   7       0.004558       0.003542      -0.000000
   8      -0.006471       0.007182       0.000000
   9      -0.004409       0.000239       0.000000
  10       0.000288      -0.000797      -0.000000
  11       0.001649      -0.002084       0.001767
  12       0.001649      -0.002084      -0.001767
  13      -0.001058       0.000557      -0.000621
  14      -0.001058       0.000557       0.000621
---------------------------------------------------
 Number of fixed atoms: 0
 Gradient time:  CPU 702.32 s  wall 33.01 s
 Geometry Optimization Parameters
   NAtoms,    NIC,     NZ,  NCons,   NDum,   NFix, NCnnct, MaxDiis
       14      79       0       0       0       0       0       0

 Cartesian Hessian Update
 Hessian updated using BFGS update


** GEOMETRY OPTIMIZATION IN CARTESIAN COORDINATES **
   Searching for a Minimum

[...]
  3.8085   3.8109   3.8155   3.8377   3.8708   3.8957   3.9631   3.9997
  4.0391   4.0421   4.0475   4.0634   4.1085   4.1467   4.2002   4.2200
  4.2883   4.3011   4.3117   4.3710   4.3780   4.3883   4.3936   4.4249
  4.4848   4.6286   4.6539   4.7085   4.7361   4.7816   4.7997   4.8116
  4.9617   4.9842   4.9866   5.0622   5.0913   5.1005   5.1117   5.1184
  5.1780   5.1909   5.2014   5.2415   5.2466   5.2528   5.2546   5.2972
  5.3062   5.3264   5.3291   5.3520   5.4159   5.4766   5.5524   5.5808
  5.6270   5.6552   5.6804   5.7122   5.7137   5.7322   5.7751   5.8864
  5.9335   5.9393   5.9748   6.0713   6.0713   6.1570   6.1928   6.2553
  6.2632   6.3283   6.3287   6.4109   6.4133   6.4236   6.4311   6.4481
  6.4820   6.5224   6.5415   6.5427   6.5539   6.5789   6.5987   6.6165
  6.6592   6.7851   6.8584   6.8631   6.8808   6.9562   6.9780   7.0432
  7.0465   7.0523   7.0725   7.1043   7.2131   7.2274   7.2875   7.3229
  7.3448   7.4962   7.6012   7.6575   7.8752   7.8762  23.6626  23.6784
 24.0303  24.3340  44.0670  44.1504  44.3553  44.4057  44.4450
 --------------------------------------------------------------
 
          Ground-State Mulliken Net Atomic Charges

     Atom                 Charge (a.u.)
  ----------------------------------------
      1 O                    -0.307482
      2 C                     0.637471
      3 O                    -0.309327
      4 O                    -0.320803
      5 O                     0.021545
      6 C                     0.704626
      7 O                    -0.105982
      8 C                    -0.046338
      9 C                     0.120746
     10 H                     0.370380
     11 H                     0.062523
     12 H                     0.062523
     13 H                     0.055059
     14 H                     0.055059
  ----------------------------------------
  Sum of atomic charges =     1.000000

  Building new vdw surfaces
         Merz-Kollman RESP Net Atomic Charges

     Atom                 Charge (a.u.)
  ----------------------------------------
      1 O                    -0.376276
      2 C                     0.718938
      3 O                    -0.376276
      4 O                    -0.208929
      5 O                    -0.115021
      6 C                     0.800153
      7 O                    -0.216191
      8 C                    -0.284271
      9 C                    -0.223248
     10 H                     0.524748
     11 H                     0.192957
     12 H                     0.192957
     13 H                     0.185230
     14 H                     0.185230
  ----------------------------------------
  Sum of atomic charges =     1.000000

  Related Dipole Moment =    21.4685 (X -16.0731 Y 14.2321 Z -0.0000)

 -----------------------------------------------------------------
                    Cartesian Multipole Moments
 -----------------------------------------------------------------
    Charge (ESU x 10^10)
                 4.8032
    Dipole Moment (Debye)
         X     -16.0515      Y      14.2811      Z       0.0000
       Tot      21.4849
    Quadrupole Moments (Debye-Ang)
        XX      -8.1966     XY     -30.7163     YY     -21.2618
        XZ      -0.0000     YZ       0.0000     ZZ     -45.9404
    Octopole Moments (Debye-Ang^2)
       XXX    -367.4204    XXY     119.4123    XYY    -167.6717
       YYY     128.9942    XXZ      -0.0000    XYZ       0.0000
       YYZ      -0.0000    XZZ     -57.6230    YZZ       3.6305
       ZZZ       0.0000
    Hexadecapole Moments (Debye-Ang^3)
      XXXX   -2015.7457   XXXY     305.0890   XXYY    -413.7412
      XYYY     615.1576   YYYY   -1220.9562   XXXZ      -0.0000
      XXYZ      -0.0000   XYYZ       0.0000   YYYZ       0.0000
      XXZZ    -421.9271   XYZZ     243.0427   YYZZ    -226.7925
      XZZZ       0.0000   YZZZ       0.0000   ZZZZ     -52.2254
 -----------------------------------------------------------------
 Calculating analytic gradient of the SCF energy
 Gradient of CDS energy
            1           2           3           4           5           6
    1  -0.0007565   0.0012107  -0.0006392  -0.0000708   0.0001053   0.0006283
    2   0.0000878  -0.0004536   0.0003668   0.0003836  -0.0001052   0.0002193
    3  -0.0000000  -0.0000000   0.0000000   0.0000000   0.0000000   0.0000000
            7           8           9          10          11          12
    1  -0.0003618  -0.0010611   0.0010981  -0.0003073   0.0001393   0.0001393
    2  -0.0006352  -0.0011955   0.0010660   0.0004267   0.0000564   0.0000564
    3  -0.0000000  -0.0000000   0.0000000  -0.0000000   0.0002410  -0.0002410
           13          14
    1  -0.0000622  -0.0000622
    2  -0.0001367  -0.0001367
    3  -0.0002406   0.0002406
 Gradient of SCF Energy
            1           2           3           4           5           6
    1  -0.0100233  -0.0029910   0.0116198   0.0072899   0.1554678  -0.0496217
    2  -0.0293097   0.0005571   0.0297561  -0.0092701  -0.0298528   0.0009332
    3   0.0000000  -0.0000000   0.0000000  -0.0000000   0.0000000  -0.0000000
            7           8           9          10          11          12
    1  -0.0436776   0.0221828  -0.0091422  -0.0605973  -0.0170202  -0.0170202
    2   0.0693514   0.0210820  -0.0264928  -0.0412211  -0.0088953  -0.0088953
    3   0.0000000   0.0000000   0.0000000   0.0000000  -0.0312187   0.0312187
           13          14
    1   0.0067665   0.0067666
    2   0.0161287   0.0161287
    3   0.0295865  -0.0295865
 Max gradient component =       1.555E-01
 RMS gradient           =       3.399E-02
 Computing fast CPCM-SWIG gradient
 Updating gradient with PCM contributions...
 -- total gradient after adding PCM contribution --
---------------------------------------------------
  Atom         X              Y              Z     
---------------------------------------------------
   1      -0.000115      -0.000038       0.000000
   2      -0.000131      -0.000056      -0.000000
   3       0.000072       0.000111       0.000000
   4       0.000142      -0.000095      -0.000000
   5      -0.000066       0.000019       0.000000
   6       0.000072      -0.000008       0.000000
   7      -0.000028       0.000003      -0.000000
   8       0.000089       0.000045       0.000000
   9      -0.000049       0.000026       0.000000
  10      -0.000058       0.000053       0.000000
  11       0.000073      -0.000054       0.000018
  12       0.000073      -0.000054      -0.000018
  13      -0.000037       0.000024       0.000012
  14      -0.000037       0.000024      -0.000012
---------------------------------------------------
 Number of fixed atoms: 0
 Gradient time:  CPU 501.54 s  wall 25.62 s
 Geometry Optimization Parameters
   NAtoms,    NIC,     NZ,  NCons,   NDum,   NFix, NCnnct, MaxDiis
       14      79       0       0       0       0       0       0

 Cartesian Hessian Update
 Hessian updated using BFGS update


** GEOMETRY OPTIMIZATION IN CARTESIAN COORDINATES **
   Searching for a Minimum

   Optimization Cycle:  70

                       Coordinates (Angstroms)
     ATOM                X               Y               Z
      1  O         4.0308545510   -3.3111820198    0.0000000000
      2  C         4.4033231973   -2.2134032886    0.0000000000
      3  O         4.8145626186   -1.1289968426    0.0000000000
      4  O         1.8250110644   -1.1486100613    0.0000000000
      5  O        -1.0138466844    2.4981699776    0.0000000000
      6  C        -2.1003963841    2.7824822079    0.0000000000
      7  O        -3.2415039747    3.2080745857    0.0000000000
      8  C         0.4486516377   -0.7660772933    0.0000000000
      9  C         1.5052553249    0.2434454047    0.0000000000
     10  H        -3.9807628519    2.5332791753    0.0000000000
     11  H        -0.0845465613   -0.9818796859   -0.9224256779
     12  H        -0.0845465708   -0.9818796525    0.9224256828
     13  H         1.7435745597    0.7673760133    0.9224268510
     14  H         1.7435745990    0.7673760080   -0.9224268584
   Point Group: c1    Number of degrees of freedom:    36


   Energy is   -531.343904578


 Translations and Rotations Projected Out of Hessian

 24 Hessian modes will be used to form the next step
  Hessian Eigenvalues:
     0.001234    0.001833    0.007527    0.054212    0.074616    0.158480
     0.171146    0.212677    0.266669    0.297750    0.340588    0.403647
     0.444897    0.700997    0.812846    0.872997    0.966517    1.000000
     1.024775    1.112611    1.428916    1.511064    3.109318    3.891453

 Minimum search - taking simple RFO step
 Searching for Lamda that Minimizes Along All modes
 Value Taken    Lamda =   0.00000000
 Step Taken.  Stepsize is  0.002994

                             Maximum     Tolerance    Cnvgd?
         Gradient           0.000142      0.000300     YES
         Displacement       0.001665      0.001200      NO
         Energy change     -0.000000      0.000001     YES


                       Distance Matrix (Angstroms)
             O (  1)   C (  2)   O (  3)   O (  4)   O (  5)   C (  6)
   C (  2)  1.159246
   O (  3)  2.318648  1.159765
   O (  4)  3.089088  2.789530  2.989616
   O (  5)  7.693996  7.179460  6.864889  4.621484
   C (  6)  8.644361  8.201051  7.944578  5.555386  1.123131
   O (  7)  9.766673  9.372076  9.149339  6.682086  2.338038  1.217890
   C (  8)  4.394284  4.211197  4.380969  1.428530  3.576900  4.369201
   C (  9)  4.360508  3.799329  3.582613  1.428307  3.380778  4.409924
   H ( 10)  9.916841  9.634516  9.527330  6.874832  2.967124  1.896808
   H ( 11)  4.817992  4.744312  4.987362  2.127223  3.718227  4.368631
   H ( 12)  4.817992  4.744312  4.987362  2.127223  3.718227  4.368631
   H ( 13)  4.766252  4.100022  3.725328  2.128029  3.383769  4.437075
   H ( 14)  4.766252  4.100022  3.725328  2.128029  3.383769  4.437075
             O (  7)   C (  8)   C (  9)   H ( 10)   H ( 11)   H ( 12)
   C (  8)  5.423203
   C (  9)  5.596494  1.461351
   H ( 10)  1.000926  5.523175  5.944723
   H ( 11)  5.326628  1.087079  2.209018  5.328012
   H ( 12)  5.326628  1.087079  2.209018  5.328012  1.844851
   H ( 13)  5.626623  2.208886  1.087277  6.061132  3.131358  2.530202
   H ( 14)  5.626623  2.208886  1.087277  6.061132  2.530202  3.131358
             H ( 13)
   H ( 14)  1.844854
 
 Final energy is   -531.343904578402     


 ******************************
 **  OPTIMIZATION CONVERGED  **
 ******************************

                       Coordinates (Angstroms)
     ATOM                X               Y               Z
      1  O         4.0308545510   -3.3111820198    0.0000000000
      2  C         4.4033231973   -2.2134032886    0.0000000000
      3  O         4.8145626186   -1.1289968426    0.0000000000
      4  O         1.8250110644   -1.1486100613    0.0000000000
      5  O        -1.0138466844    2.4981699776    0.0000000000
      6  C        -2.1003963841    2.7824822079    0.0000000000
      7  O        -3.2415039747    3.2080745857    0.0000000000
      8  C         0.4486516377   -0.7660772933    0.0000000000
      9  C         1.5052553249    0.2434454047    0.0000000000
     10  H        -3.9807628519    2.5332791753    0.0000000000
     11  H        -0.0845465613   -0.9818796859   -0.9224256779
     12  H        -0.0845465708   -0.9818796525    0.9224256828
     13  H         1.7435745597    0.7673760133    0.9224268510
     14  H         1.7435745990    0.7673760080   -0.9224268584

Z-matrix Print:
$molecule
1 1
O 
C  1 1.428307
H  2 1.087277 1 114.870818
H  2 1.087277 1 114.870816 3 138.490578 0
C  1 1.428530 2 61.531285 3 110.754710 0
H  5 1.087079 1 114.797710 2 110.816546 0
H  5 1.087079 1 114.797711 2 -110.816544 0
C  1 2.789530 2 125.376144 3 -69.245290 0
O  8 1.159246 1 93.697967 2 -180.000000 0
O  8 1.159765 1 88.328546 2 -0.000000 0
O  2 3.380778 1 144.766624 3 -110.754710 0
C  11 1.123131 2 152.833384 1 -0.000000 0
O  12 1.217890 11 174.209828 2 -180.000000 0
H  13 1.000926 12 117.156456 11 -180.000000 0
$end

 
 --------------------------------------------------------------
 
                    Orbital Energies (a.u.)
 --------------------------------------------------------------
 
 Alpha MOs
 -- Occupied --
-19.4652 -19.4363 -19.2868 -19.2867 -19.2352 -10.6100 -10.4535 -10.3224
-10.3218  -1.4475  -1.4064  -1.2894  -1.2452  -1.2135  -0.9399  -0.8105
 -0.7854  -0.7672  -0.7667  -0.7604  -0.6787  -0.6561  -0.6351  -0.6347
 -0.6322  -0.6309  -0.6244  -0.5946  -0.5093  -0.4897  -0.4745  -0.4730
 -0.4275  -0.3904
 -- Virtual --
 -0.0329  -0.0072   0.0020   0.0451   0.0636   0.0715   0.0798   0.0805
  0.0877   0.0948   0.1031   0.1080   0.1176   0.1223   0.1259   0.1303
  0.1328   0.1365   0.1369   0.1442   0.1531   0.1617   0.1704   0.1710
  0.1818   0.1830   0.1947   0.2002   0.2110   0.2228   0.2258   0.2383
  0.2456   0.2494   0.2573   0.2575   0.2713   0.2749   0.2849   0.2906
  0.3036   0.3055   0.3153   0.3155   0.3178   0.3305   0.3322   0.3376
  0.3433   0.3457   0.3642   0.3657   0.3682   0.3761   0.3786   0.3879
  0.3901   0.3994   0.4035   0.4040   0.4134   0.4138   0.4189   0.4211
  0.4288   0.4335   0.4464   0.4477   0.4582   0.4587   0.4705   0.4747
  0.4856   0.4878   0.4960   0.4966   0.5067   0.5122   0.5271   0.5361
  0.5421   0.5426   0.5484   0.5505   0.5620   0.5704   0.5732   0.5857
  0.5877   0.5992   0.5999   0.6052   0.6221   0.6289   0.6416   0.6469
  0.6640   0.6759   0.6881   0.6949   0.7074   0.7222   0.7357   0.7480
  0.7533   0.7582   0.7716   0.7739   0.7814   0.7859   0.7869   0.8033
  0.8046   0.8155   0.8318   0.8354   0.8603   0.8718   0.8825   0.8936
  0.8936   0.9149   0.9180   0.9221   0.9310   0.9359   0.9419   0.9677
  0.9841   0.9862   0.9970   0.9975   1.0040   1.0051   1.0202   1.0365
  1.0381   1.0622   1.0936   1.0982   1.1276   1.1281   1.1477   1.1527
  1.1743   1.1944   1.1992   1.2060   1.2077   1.2324   1.2336   1.2701
  1.2763   1.2819   1.2851   1.2900   1.3019   1.3340   1.3409   1.3535
  1.3627   1.3828   1.3996   1.4334   1.4614   1.5095   1.5132   1.5510
  1.6424   1.6680   1.6861   1.6961   1.7173   1.7307   1.7343   1.7512
  1.7519   1.7685   1.7787   1.8024   1.8189   1.8402   1.8499   1.8746
  1.8850   1.8983   1.9007   1.9131   1.9202   1.9294   1.9492   1.9680
  1.9776   2.0280   2.0340   2.0639   2.0733   2.0939   2.1079   2.1408
  2.1727   2.2094   2.2266   2.2550   2.3258   2.3503   2.3733   2.3849
  2.4471   2.4556   2.4821   2.5025   2.5168   2.5329   2.5715   2.5758
  2.6351   2.7113   2.7241   2.7395   2.7602   2.7833   2.7944   2.8191
  2.8329   2.8804   2.9136   2.9464   2.9470   2.9651   2.9684   2.9749
  2.9842   2.9860   3.0033   3.0223   3.0309   3.0419   3.0455   3.0522
  3.0644   3.0749   3.1026   3.1237   3.1242   3.1379   3.1415   3.1560
  3.1600   3.2025   3.2110   3.2195   3.2244   3.2899   3.2928   3.2952
  3.3238   3.3426   3.3543   3.3596   3.3710   3.4213   3.4383   3.4505
  3.4827   3.5118   3.5136   3.5245   3.5306   3.5585   3.5752   3.6345
  3.6430   3.6889   3.6906   3.7150   3.7413   3.7628   3.7657   3.8023
  3.8085   3.8109   3.8155   3.8377   3.8708   3.8957   3.9631   3.9997
  4.0391   4.0421   4.0475   4.0634   4.1085   4.1467   4.2002   4.2200
  4.2883   4.3011   4.3117   4.3710   4.3780   4.3883   4.3936   4.4249
  4.4848   4.6286   4.6539   4.7085   4.7361   4.7816   4.7997   4.8116
  4.9617   4.9842   4.9866   5.0622   5.0913   5.1005   5.1117   5.1184
  5.1780   5.1909   5.2014   5.2415   5.2466   5.2528   5.2546   5.2972
  5.3062   5.3264   5.3291   5.3520   5.4159   5.4766   5.5524   5.5808
  5.6270   5.6552   5.6804   5.7122   5.7137   5.7322   5.7751   5.8864
  5.9335   5.9393   5.9748   6.0713   6.0713   6.1570   6.1928   6.2553
  6.2632   6.3283   6.3287   6.4109   6.4133   6.4236   6.4311   6.4481
  6.4820   6.5224   6.5415   6.5427   6.5539   6.5789   6.5987   6.6165
  6.6592   6.7851   6.8584   6.8631   6.8808   6.9562   6.9780   7.0432
  7.0465   7.0523   7.0725   7.1043   7.2131   7.2274   7.2875   7.3229
  7.3448   7.4962   7.6012   7.6575   7.8752   7.8762  23.6626  23.6784
 24.0303  24.3340  44.0670  44.1504  44.3553  44.4057  44.4450
 --------------------------------------------------------------
 
          Ground-State Mulliken Net Atomic Charges

     Atom                 Charge (a.u.)
  ----------------------------------------
      1 O                    -0.307482
      2 C                     0.637471
      3 O                    -0.309327
      4 O                    -0.320803
      5 O                     0.021545
      6 C                     0.704626
      7 O                    -0.105982
      8 C                    -0.046338
      9 C                     0.120746
     10 H                     0.370380
     11 H                     0.062523
     12 H                     0.062523
     13 H                     0.055059
     14 H                     0.055059
  ----------------------------------------
  Sum of atomic charges =     1.000000

         Merz-Kollman RESP Net Atomic Charges

     Atom                 Charge (a.u.)
  ----------------------------------------
      1 O                    -0.376276
      2 C                     0.718938
      3 O                    -0.376276
      4 O                    -0.208929
      5 O                    -0.115021
      6 C                     0.800153
      7 O                    -0.216191
      8 C                    -0.284271
      9 C                    -0.223248
     10 H                     0.524748
     11 H                     0.192957
     12 H                     0.192957
     13 H                     0.185230
     14 H                     0.185230
  ----------------------------------------
  Sum of atomic charges =     1.000000

  Related Dipole Moment =    21.4685 (X -16.0731 Y 14.2321 Z -0.0000)

 -----------------------------------------------------------------
                    Cartesian Multipole Moments
 -----------------------------------------------------------------
    Charge (ESU x 10^10)
                 4.8032
    Dipole Moment (Debye)
         X     -16.0515      Y      14.2811      Z       0.0000
       Tot      21.4849
    Quadrupole Moments (Debye-Ang)
        XX      -8.1966     XY     -30.7163     YY     -21.2618
        XZ      -0.0000     YZ       0.0000     ZZ     -45.9404
    Octopole Moments (Debye-Ang^2)
       XXX    -367.4204    XXY     119.4123    XYY    -167.6717
       YYY     128.9942    XXZ      -0.0000    XYZ       0.0000
       YYZ      -0.0000    XZZ     -57.6230    YZZ       3.6305
       ZZZ       0.0000
    Hexadecapole Moments (Debye-Ang^3)
      XXXX   -2015.7457   XXXY     305.0890   XXYY    -413.7412
      XYYY     615.1576   YYYY   -1220.9562   XXXZ      -0.0000
      XXYZ      -0.0000   XYYZ       0.0000   YYYZ       0.0000
      XXZZ    -421.9271   XYZZ     243.0427   YYZZ    -226.7925
      XZZZ       0.0000   YZZZ       0.0000   ZZZZ     -52.2254
 -----------------------------------------------------------------
Archival summary:
1\1\nid01744\OPT\ProcedureUnspecified\BasisUnspecified\545(1+,1)\sblau\WedJul1706:41:432019WedJul1706:41:432019\0\\#,OPT,ProcedureUnspecified,BasisUnspecified,\\1,1\O\C,1,1.42831\H,2,1.08728,1,114.871\H,2,1.08728,1,114.871,3,138.491,0\C,1,1.42853,2,61.5313,3,110.755,0\H,5,1.08708,1,114.798,2,110.817,0\H,5,1.08708,1,114.798,2,-110.817,0\C,1,2.78953,2,125.376,3,-69.2453,0\O,8,1.15925,1,93.698,2,-180,0\O,8,1.15977,1,88.3285,2,-0,0\O,2,3.38078,1,144.767,3,-110.755,0\C,11,1.12313,2,152.833,1,-0,0\O,12,1.21789,11,174.21,2,-180,0\H,13,1.00093,12,117.156,11,-180,0\\\@

 Total job time:  10147.24s(wall), 242430.47s(cpu) 
 Wed Jul 17 06:41:43 2019

        *************************************************************
        *                                                           *
        *  Thank you very much for using Q-Chem.  Have a nice day.  *
        *                                                           *
        *************************************************************


