
Running Job 1 of 1 mol.qin
qchem mol.qin_15890.0 /tmp/qchem118848211/chain_scratch/ 0
/global/project/projectdirs/jcesr/qchem_sblau/qc521_exe/qcprog.LINUX_Ix86_64.20190628.exe mol.qin_15890.0 /tmp/qchem118848211/chain_scratch/
                  Welcome to Q-Chem
     A Quantum Leap Into The Future Of Chemistry


 Q-Chem 5.2, Q-Chem, Inc., Pleasanton, CA (2019)

 License issued to: National Energy Research Scientific Computing Center

 Yihan Shao,  Zhengting Gan,  E. Epifanovsky,  A. T. B. Gilbert,  M. Wormit,  
 J. Kussmann,  A. W. Lange,  A. Behn,  Jia Deng,  Xintian Feng,  D. Ghosh,  
 M. Goldey,  P. R. Horn,  L. D. Jacobson,  I. Kaliman,  T. Kus,  A. Landau,  
 Jie Liu,  E. I. Proynov,  R. M. Richard,  R. P. Steele,  E. J. Sundstrom,  
 H. L. Woodcock III,  P. M. Zimmerman,  D. Zuev,  B. Albrecht,  E. Alguire,  
 S. A. Baeppler,  D. Barton,  Z. Benda,  Y. A. Bernard,  E. J. Berquist,  
 K. B. Bravaya,  H. Burton,  D. Casanova,  Chun-Min Chang,  Yunqing Chen,  
 A. Chien,  K. D. Closser,  M. P. Coons,  S. Coriani,  S. Dasgupta,  
 A. L. Dempwolff,  M. Diedenhofen,  Hainam Do,  R. G. Edgar,  Po-Tung Fang,  
 S. Faraji,  S. Fatehi,  Qingguo Feng,  K. D. Fenk,  J. Fosso-Tande,  
 J. Gayvert,  Qinghui Ge,  A. Ghysels,  G. Gidofalvi,  J. Gomes,  
 J. Gonthier,  A. Gunina,  D. Hait,  M. W. D. Hanson-Heine,  
 P. H. P. Harbach,  A. W. Hauser,  M. F. Herbst,  J. E. Herr,  
 E. G. Hohenstein,  Z. C. Holden,  Kerwin Hui,  B. C. Huynh,  T.-C. Jagau,  
 Hyunjun Ji,  B. Kaduk,  K. Khistyaev,  Jaehoon Kim,  P. Klunzinger,  K. Koh,  
 D. Kosenkov,  L. Koulias,  T. Kowalczyk,  C. M. Krauter,  A. Kunitsa,  
 Ka Un Lao,  A. Laurent,  K. V. Lawler,  Joonho Lee,  D. Lefrancois,  
 S. Lehtola,  D. S. Levine,  Yi-Pei Li,  You-Sheng Lin,  Fenglai Liu,  
 E. Livshits,  A. Luenser,  P. Manohar,  E. Mansoor,  S. F. Manzer,  
 Shan-Ping Mao,  Yuezhi Mao,  N. Mardirossian,  A. V. Marenich,  
 T. Markovich,  L. A. Martinez-Martinez,  S. A. Maurer,  N. J. Mayhall,  
 S. C. McKenzie,  J.-M. Mewes,  P. Morgante,  A. F. Morrison,  
 J. W. Mullinax,  K. Nanda,  T. S. Nguyen-Beck,  R. Olivares-Amaya,  
 J. A. Parkhill,  Zheng Pei,  T. M. Perrine,  F. Plasser,  P. Pokhilko,  
 S. Prager,  A. Prociuk,  E. Ramos,  D. R. Rehn,  F. Rob,  M. Scheurer,  
 M. Schneider,  N. Sergueev,  S. M. Sharada,  S. Sharma,  D. W. Small,  
 T. Stauch,  T. Stein,  Yu-Chuan Su,  A. J. W. Thom,  A. Tkatchenko,  
 T. Tsuchimochi,  N. M. Tubman,  L. Vogt,  M. L. Vidal,  O. Vydrov,  
 M. A. Watson,  J. Wenzel,  M. de Wergifosse,  T. A. Wesolowski,  A. White,  
 J. Witte,  A. Yamada,  Jun Yang,  K. Yao,  S. Yeganeh,  S. R. Yost,  
 Zhi-Qiang You,  A. Zech,  Igor Ying Zhang,  Xing Zhang,  Yan Zhao,  
 Ying Zhu,  B. R. Brooks,  G. K. L. Chan,  C. J. Cramer,  M. S. Gordon,  
 W. J. Hehre,  A. Klamt,  M. W. Schmidt,  C. D. Sherrill,  D. G. Truhlar,  
 A. Aspuru-Guzik,  R. Baer,  A. T. Bell,  N. A. Besley,  Jeng-Da Chai,  
 A. E. DePrince, III,  R. A. DiStasio Jr.,  A. Dreuw,  B. D. Dunietz,  
 T. R. Furlani,  Chao-Ping Hsu,  Yousung Jung,  Jing Kong,  D. S. Lambrecht,  
 WanZhen Liang,  C. Ochsenfeld,  V. A. Rassolov,  L. V. Slipchenko,  
 J. E. Subotnik,  T. Van Voorhis,  J. M. Herbert,  A. I. Krylov,  
 P. M. W. Gill,  M. Head-Gordon

 Contributors to earlier versions of Q-Chem not listed above: 
 R. D. Adamson,  B. Austin,  J. Baker,  G. J. O. Beran,  K. Brandhorst,  
 S. T. Brown,  E. F. C. Byrd,  A. K. Chakraborty,  C.-L. Cheng,  
 Siu Hung Chien,  D. M. Chipman,  D. L. Crittenden,  H. Dachsel,  
 R. J. Doerksen,  A. D. Dutoi,  L. Fusti-Molnar,  W. A. Goddard III,  
 A. Golubeva-Zadorozhnaya,  S. R. Gwaltney,  G. Hawkins,  A. Heyden,  
 S. Hirata,  G. Kedziora,  F. J. Keil,  C. Kelley,  Jihan Kim,  R. A. King,  
 R. Z. Khaliullin,  P. P. Korambath,  W. Kurlancheek,  A. M. Lee,  M. S. Lee,  
 S. V. Levchenko,  Ching Yeh Lin,  D. Liotard,  R. C. Lochan,  I. Lotan,  
 P. E. Maslen,  N. Nair,  D. P. O'Neill,  D. Neuhauser,  E. Neuscamman,  
 C. M. Oana,  R. Olson,  B. Peters,  R. Peverati,  P. A. Pieniazek,  
 Y. M. Rhee,  J. Ritchie,  M. A. Rohrdanz,  E. Rosta,  N. J. Russ,  
 H. F. Schaefer III,  N. E. Schultz,  N. Shenvi,  A. C. Simmonett,  A. Sodt,  
 D. Stuck,  K. S. Thanthiriwatte,  V. Vanovschi,  Tao Wang,  A. Warshel,  
 C. F. Williams,  Q. Wu,  X. Xu,  W. Zhang

 Please cite Q-Chem as follows:
 Y. Shao et al., Mol. Phys. 113, 184-215 (2015)
 DOI: 10.1080/00268976.2014.952696

 Q-Chem 5.2.0 for Intel X86 EM64T Linux

 Parts of Q-Chem use Armadillo 8.300.2 (Tropical Shenanigans).
 http://arma.sourceforge.net/

 Q-Chem begins on Wed Jul 17 09:45:58 2019  

Host: cori09
0

     Scratch files written to /tmp/qchem118848211/chain_scratch//
 Jun2719 |scratch|qcdevops|jenkins|workspace|build_RNUM -1
Processing $rem in /global/common/cori/software/qchem/5.2/config/preferences:
	 MEM_TOTAL  96000 
NAlpha2: 68
NElect   68
Mult     1
Symmetry turned off for PCM/SM12/SMD calculation

Checking the input file for inconsistencies... 	...done.

--------------------------------------------------------------
User input:
--------------------------------------------------------------
$molecule
1 1
O      4.0308545510     -3.3111820198      0.0000000000
C      4.4033231973     -2.2134032886      0.0000000000
O      4.8145626186     -1.1289968426      0.0000000000
O      1.8250110644     -1.1486100613      0.0000000000
O     -1.0138466844      2.4981699776      0.0000000000
C     -2.1003963841      2.7824822079      0.0000000000
O     -3.2415039747      3.2080745857      0.0000000000
C      0.4486516377     -0.7660772933      0.0000000000
C      1.5052553249      0.2434454047      0.0000000000
H     -3.9807628519      2.5332791753      0.0000000000
H     -0.0845465613     -0.9818796859     -0.9224256779
H     -0.0845465708     -0.9818796525      0.9224256828
H      1.7435745597      0.7673760133      0.9224268510
H      1.7435745990      0.7673760080     -0.9224268584
$end

$rem
job_type = opt
basis = def2-tzvppd
max_scf_cycles = 200
gen_scfman = true
xc_grid = 3
scf_algorithm = diis
resp_charges = true
symmetry = false
sym_ignore = true
method = wb97xv
geom_opt_max_cycles = 100
solvent_method = smd
ideriv = 1
thresh = 14
geom_opt_hessian = read
scf_guess_always = True
$end

$smx
solvent other
$end
--------------------------------------------------------------
 ----------------------------------------------------------------
             Standard Nuclear Orientation (Angstroms)
    I     Atom           X                Y                Z
 ----------------------------------------------------------------
    1      O       4.0308545510    -3.3111820198     0.0000000000
    2      C       4.4033231973    -2.2134032886     0.0000000000
    3      O       4.8145626186    -1.1289968426     0.0000000000
    4      O       1.8250110644    -1.1486100613     0.0000000000
    5      O      -1.0138466844     2.4981699776     0.0000000000
    6      C      -2.1003963841     2.7824822079     0.0000000000
    7      O      -3.2415039747     3.2080745857     0.0000000000
    8      C       0.4486516377    -0.7660772933     0.0000000000
    9      C       1.5052553249     0.2434454047     0.0000000000
   10      H      -3.9807628519     2.5332791753     0.0000000000
   11      H      -0.0845465613    -0.9818796859    -0.9224256779
   12      H      -0.0845465708    -0.9818796525     0.9224256828
   13      H       1.7435745597     0.7673760133     0.9224268510
   14      H       1.7435745990     0.7673760080    -0.9224268584
 ----------------------------------------------------------------
 Nuclear Repulsion Energy =         369.60169915 hartrees
 There are       34 alpha and       34 beta electrons
 Requested basis set is def2-TZVPPD
 There are 157 shells and 433 basis functions

 Total QAlloc Memory Limit  96000 MB
 Mega-Array Size       188 MB
 MEM_STATIC part       192 MB
 
 Citation of the SMD model:
 Marenich, A.V.; Cramer, C.J.; Truhlar, D.G.
 J. Phys. Chem. B 2009, 113, 6378-6396.
 iSolventCode=           0
 Solvent: other                                                           
 
 vradii
            1           2           3           4           5           6
    1   2.2940000   1.8500000   2.2940000   2.2940000   2.2940000   1.8500000
            7           8           9          10          11          12
    1   2.2940000   1.8500000   1.8500000   1.2000000   1.2000000   1.2000000
           13          14
    1   1.2000000   1.2000000
 Changing PCM_VDW_RADII to SMD_RADIUS
 Discretize the solute cavity surface with Lebedev spheres
	Using 110 Lebedev grid points for each H atom
	Using 194 Lebedev grid points for other atoms
	Atomic van der Waals radii will be scaled by 1.20
 Remove points where switching function is < 1.0e-08
 Keep 1169 surface tesserae and discard 1127 interior tesserae
 Molecular Surface Area = 241.190 Angst**2
 A cutoff of  1.0D-14 yielded  10103 shell pairs
 There are     75729 function pairs (     96625 Cartesian)
 Smallest overlap matrix eigenvalue = 5.72E-06

 Scale SEOQF with 1.000000e-01/1.000000e-01/1.000000e-01

 Standard Electronic Orientation quadrupole field applied
 Nucleus-field energy     =     0.0000000451 hartrees
 Guess from superposition of atomic densities
 Warning:  Energy on first SCF cycle will be non-variational
 SAD guess density has 68.075651 electrons

 -----------------------------------------------------------------------
  General SCF calculation program by
  Eric Jon Sundstrom, Paul Horn, Yuezhi Mao, Dmitri Zuev, Alec White,
  David Stuck, Shaama M.S., Shane Yost, Joonho Lee, David Small,
  Daniel Levine, Susi Lehtola, Hugh Burton, Evgeny Epifanovsky,
  Bang C. Huynh
 -----------------------------------------------------------------------
 Exchange:     0.1670 Hartree-Fock + 1.0000 wB97X-V + LR-HF
 Correlation:  1.0000 wB97X-V
 Using SG-3 standard quadrature grid
 Nonlocal Correlation:  VV10 with C = 0.0100 and b = 6.00 and scale = 1.00000
 Grid used for NLC:  SG-1 standard quadrature
 
 Citation of the SMD model:
 Marenich, A.V.; Cramer, C.J.; Truhlar, D.G.
 J. Phys. Chem. B 2009, 113, 6378-6396.
 iSolventCode=           0
 Solvent: other                                                           
 
 vradii
            1           2           3           4           5           6
    1   2.2940000   1.8500000   2.2940000   2.2940000   2.2940000   1.8500000
            7           8           9          10          11          12
    1   2.2940000   1.8500000   1.8500000   1.2000000   1.2000000   1.2000000
           13          14
    1   1.2000000   1.2000000
 using 32 threads for integral computing
 -------------------------------------------------------
 OpenMP Integral computing Module                
 Release: version 1.0, May 2013, Q-Chem Inc. Pittsburgh 
 -------------------------------------------------------
 using 32 threads for integral computing
 -------------------------------------------------------
 OpenMP Integral computing Module                
 Release: version 1.0, May 2013, Q-Chem Inc. Pittsburgh 
 -------------------------------------------------------
 -------------------------------------------------------
 OpenMP BLAS3 based DFT computing Module                
 Release: version 1.0, May 2013, Q-Chem Inc. Pittsburgh 
 -------------------------------------------------------
 -------------------------------------------------------
 OpenMP BLAS3 based DFT computing Module                
 Release: version 1.0, May 2013, Q-Chem Inc. Pittsburgh 
 -------------------------------------------------------
 -------------------------------------------------------
 OpenMP BLAS3 based DFT computing Module                
 Release: version 1.0, May 2013, Q-Chem Inc. Pittsburgh 
 -------------------------------------------------------
 A restricted SCF calculation will be
 performed using DIIS
 SCF converges when DIIS error is below 1.0e-08
 ---------------------------------------
  Cycle       Energy         DIIS error
 ---------------------------------------
    1    -530.3648726724      2.55e-02  
    2    -530.1214908952      9.01e-03  
    3    -530.2817484878      8.31e-03  
    4    -531.3258250091      9.25e-04  
    5    -531.3364630212      4.93e-04  
    6    -531.3400612995      8.20e-05  
    7    -531.3401786225      3.10e-05  
    8    -531.3401947343      1.13e-05  
    9    -531.3401976493      2.53e-06  
   10    -531.3401978785      1.21e-06  
   11    -531.3401979158      3.87e-07  
   12    -531.3401979221      1.48e-07  
   13    -531.3401979230      4.60e-08  
   14    -531.3401979231      3.29e-08  
   15    -531.3401979231      6.42e-09  Convergence criterion met
 ---------------------------------------
 SCF time:   CPU 2847.58s  wall 116.00s 
(3)  G-ENP(liq) elect-nuc-pol free energy of system     -531.340197923 a.u.
(4)  G-CDS(liq) cavity-dispersion-solvent structure 
     free energy                                               -2.3260 kcal/mol
(6)  G-S(liq) free energy of system                     -531.343904578 a.u.
 SCF   energy in the final basis set =     -531.3401979231
 Total energy in the final basis set =     -531.3439045784
 
 --------------------------------------------------------------
 
                    Orbital Energies (a.u.)
 --------------------------------------------------------------
 
 Alpha MOs
 -- Occupied --
-19.4652 -19.4363 -19.2868 -19.2867 -19.2352 -10.6100 -10.4535 -10.3224
-10.3218  -1.4475  -1.4064  -1.2894  -1.2452  -1.2135  -0.9399  -0.8105
 -0.7854  -0.7672  -0.7667  -0.7604  -0.6787  -0.6561  -0.6351  -0.6347
 -0.6322  -0.6309  -0.6244  -0.5946  -0.5093  -0.4897  -0.4745  -0.4730
 -0.4275  -0.3904
 -- Virtual --
 -0.0329  -0.0072   0.0020   0.0451   0.0636   0.0715   0.0798   0.0805
  0.0877   0.0948   0.1031   0.1080   0.1176   0.1223   0.1259   0.1303
  0.1328   0.1365   0.1369   0.1442   0.1531   0.1617   0.1704   0.1710
  0.1818   0.1830   0.1947   0.2002   0.2110   0.2228   0.2258   0.2383
  0.2456   0.2494   0.2573   0.2575   0.2713   0.2749   0.2849   0.2906
  0.3036   0.3055   0.3153   0.3155   0.3178   0.3305   0.3322   0.3376
  0.3433   0.3457   0.3642   0.3657   0.3682   0.3761   0.3786   0.3879
  0.3901   0.3994   0.4035   0.4040   0.4134   0.4138   0.4189   0.4211
  0.4288   0.4335   0.4464   0.4477   0.4582   0.4587   0.4705   0.4747
  0.4856   0.4878   0.4960   0.4966   0.5067   0.5122   0.5271   0.5361
  0.5421   0.5426   0.5484   0.5505   0.5620   0.5704   0.5732   0.5857
  0.5877   0.5992   0.5999   0.6052   0.6221   0.6289   0.6416   0.6469
  0.6640   0.6759   0.6881   0.6949   0.7074   0.7222   0.7357   0.7480
  0.7533   0.7582   0.7716   0.7739   0.7814   0.7859   0.7869   0.8033
  0.8046   0.8155   0.8318   0.8354   0.8603   0.8718   0.8825   0.8936
  0.8936   0.9149   0.9180   0.9221   0.9310   0.9359   0.9419   0.9677
  0.9841   0.9862   0.9970   0.9975   1.0040   1.0051   1.0202   1.0365
  1.0381   1.0622   1.0936   1.0982   1.1276   1.1281   1.1477   1.1527
  1.1743   1.1944   1.1992   1.2060   1.2077   1.2324   1.2336   1.2701
  1.2763   1.2819   1.2851   1.2900   1.3019   1.3340   1.3409   1.3535
  1.3627   1.3828   1.3996   1.4334   1.4614   1.5095   1.5132   1.5510
  1.6424   1.6680   1.6861   1.6961   1.7173   1.7307   1.7343   1.7512
  1.7519   1.7685   1.7787   1.8024   1.8189   1.8402   1.8499   1.8746
  1.8850   1.8983   1.9007   1.9131   1.9202   1.9294   1.9492   1.9680
  1.9776   2.0280   2.0340   2.0639   2.0733   2.0939   2.1079   2.1408
  2.1727   2.2094   2.2266   2.2550   2.3258   2.3503   2.3733   2.3849
  2.4471   2.4556   2.4821   2.5025   2.5168   2.5329   2.5715   2.5758
  2.6351   2.7113   2.7241   2.7395   2.7602   2.7833   2.7944   2.8191
  2.8329   2.8804   2.9136   2.9464   2.9470   2.9651   2.9684   2.9749
  2.9842   2.9860   3.0033   3.0223   3.0309   3.0419   3.0455   3.0522
  3.0644   3.0749   3.1026   3.1237   3.1242   3.1379   3.1415   3.1560
  3.1600   3.2025   3.2110   3.2195   3.2244   3.2899   3.2928   3.2952
  3.3238   3.3426   3.3543   3.3596   3.3710   3.4213   3.4383   3.4505
  3.4827   3.5118   3.5136   3.5245   3.5306   3.5585   3.5752   3.6345
  3.6430   3.6889   3.6906   3.7150   3.7413   3.7628   3.7657   3.8023
  3.8085   3.8109   3.8155   3.8377   3.8708   3.8957   3.9631   3.9997
  4.0391   4.0421   4.0475   4.0634   4.1085   4.1467   4.2002   4.2200
  4.2883   4.3011   4.3117   4.3710   4.3780   4.3883   4.3936   4.4249
  4.4848   4.6286   4.6539   4.7085   4.7361   4.7816   4.7997   4.8116
  4.9617   4.9842   4.9866   5.0622   5.0913   5.1005   5.1117   5.1184
  5.1780   5.1909   5.2014   5.2415   5.2466   5.2528   5.2546   5.2972
  5.3062   5.3264   5.3291   5.3520   5.4159   5.4766   5.5524   5.5808
  5.6270   5.6552   5.6804   5.7122   5.7137   5.7322   5.7751   5.8864
  5.9335   5.9393   5.9748   6.0713   6.0713   6.1570   6.1928   6.2553
  6.2632   6.3283   6.3287   6.4109   6.4133   6.4236   6.4311   6.4481
  6.4820   6.5224   6.5415   6.5427   6.5539   6.5789   6.5987   6.6165
  6.6592   6.7851   6.8584   6.8631   6.8808   6.9562   6.9780   7.0432
  7.0465   7.0523   7.0725   7.1043   7.2131   7.2274   7.2875   7.3229
  7.3448   7.4962   7.6012   7.6575   7.8752   7.8762  23.6626  23.6784
 24.0303  24.3340  44.0670  44.1504  44.3553  44.4057  44.4450
 --------------------------------------------------------------
 
          Ground-State Mulliken Net Atomic Charges

     Atom                 Charge (a.u.)
  ----------------------------------------
      1 O                    -0.307482
      2 C                     0.637470
      3 O                    -0.309327
      4 O                    -0.320803
      5 O                     0.021545
      6 C                     0.704626
      7 O                    -0.105982
      8 C                    -0.046338
      9 C                     0.120745
     10 H                     0.370380
     11 H                     0.062523
     12 H                     0.062523
     13 H                     0.055059
     14 H                     0.055059
  ----------------------------------------
  Sum of atomic charges =     1.000000

  Building new vdw surfaces
         Merz-Kollman RESP Net Atomic Charges

     Atom                 Charge (a.u.)
  ----------------------------------------
      1 O                    -0.381808
      2 C                     0.713142
      3 O                    -0.363352
      4 O                    -0.196171
      5 O                    -0.094670
      6 C                     0.777535
      7 O                    -0.208598
      8 C                    -0.275037
      9 C                    -0.275037
     10 H                     0.524338
     11 H                     0.194915
     12 H                     0.194915
     13 H                     0.194915
     14 H                     0.194915
  ----------------------------------------
  Sum of atomic charges =     1.000000

  Related Dipole Moment =    21.4784 (X -16.0673 Y 14.2536 Z -0.0000)

 -----------------------------------------------------------------
                    Cartesian Multipole Moments
 -----------------------------------------------------------------
    Charge (ESU x 10^10)
                 4.8032
    Dipole Moment (Debye)
         X     -16.0515      Y      14.2811      Z       0.0000
       Tot      21.4849
    Quadrupole Moments (Debye-Ang)
        XX      -8.1966     XY     -30.7163     YY     -21.2618
        XZ      -0.0000     YZ       0.0000     ZZ     -45.9404
    Octopole Moments (Debye-Ang^2)
       XXX    -367.4204    XXY     119.4123    XYY    -167.6717
       YYY     128.9942    XXZ      -0.0000    XYZ       0.0000
       YYZ      -0.0000    XZZ     -57.6230    YZZ       3.6305
       ZZZ       0.0000
    Hexadecapole Moments (Debye-Ang^3)
      XXXX   -2015.7455   XXXY     305.0890   XXYY    -413.7412
      XYYY     615.1576   YYYY   -1220.9561   XXXZ      -0.0000
      XXYZ      -0.0000   XYYZ       0.0000   YYYZ       0.0000
      XXZZ    -421.9271   XYZZ     243.0427   YYZZ    -226.7925
      XZZZ       0.0000   YZZZ       0.0000   ZZZZ     -52.2254
 -----------------------------------------------------------------
 Calculating analytic gradient of the SCF energy
 Gradient of CDS energy
            1           2           3           4           5           6
    1  -0.0007565   0.0012107  -0.0006392  -0.0000708   0.0001053   0.0006283
    2   0.0000878  -0.0004536   0.0003668   0.0003836  -0.0001052   0.0002193
    3   0.0000000  -0.0000000   0.0000000   0.0000000   0.0000000   0.0000000
            7           8           9          10          11          12
    1  -0.0003618  -0.0010611   0.0010981  -0.0003073   0.0001393   0.0001393
    2  -0.0006352  -0.0011955   0.0010660   0.0004267   0.0000564   0.0000564
    3   0.0000000  -0.0000000   0.0000000   0.0000000   0.0002410  -0.0002410
           13          14
    1  -0.0000622  -0.0000622
    2  -0.0001367  -0.0001367
    3  -0.0002406   0.0002406
 Gradient of SCF Energy
            1           2           3           4           5           6
    1  -0.0100233  -0.0029910   0.0116198   0.0072899   0.1554679  -0.0496218
    2  -0.0293096   0.0005571   0.0297560  -0.0092701  -0.0298528   0.0009332
    3   0.0000000  -0.0000000   0.0000000  -0.0000000   0.0000000  -0.0000000
            7           8           9          10          11          12
    1  -0.0436775   0.0221829  -0.0091423  -0.0605973  -0.0170202  -0.0170202
    2   0.0693514   0.0210820  -0.0264929  -0.0412211  -0.0088953  -0.0088953
    3   0.0000000   0.0000000   0.0000000   0.0000000  -0.0312187   0.0312187
           13          14
    1   0.0067666   0.0067666
    2   0.0161287   0.0161287
    3   0.0295865  -0.0295865
 Max gradient component =       1.555E-01
 RMS gradient           =       3.399E-02
 Computing fast CPCM-SWIG gradient
 Updating gradient with PCM contributions...
 -- total gradient after adding PCM contribution --
---------------------------------------------------
  Atom         X              Y              Z     
---------------------------------------------------
   1      -0.000115      -0.000038       0.000000
   2      -0.000131      -0.000056      -0.000000
   3       0.000072       0.000111       0.000000
   4       0.000142      -0.000095      -0.000000
   5      -0.000066       0.000019       0.000000
   6       0.000072      -0.000008       0.000000
   7      -0.000028       0.000003      -0.000000
   8       0.000089       0.000045       0.000000
   9      -0.000049       0.000026       0.000000
  10      -0.000058       0.000053       0.000000
  11       0.000073      -0.000054       0.000018
  12       0.000073      -0.000054      -0.000018
  13      -0.000037       0.000024       0.000012
  14      -0.000037       0.000024      -0.000012
---------------------------------------------------
 Number of fixed atoms: 0
 Gradient time:  CPU 493.40 s  wall 25.62 s
 Geometry Optimization Parameters
   NAtoms,    NIC,     NZ,  NCons,   NDum,   NFix, NCnnct, MaxDiis
       14     230       0       0       0       0       0       0

 Cartesian Hessian read from HESS file


** GEOMETRY OPTIMIZATION IN DELOCALIZED INTERNAL COORDINATES **
   Searching for a Minimum

   Optimization Cycle:   1

                       Coordinates (Angstroms)
     ATOM                X               Y               Z
      1  O         4.0308545510   -3.3111820198    0.0000000000
      2  C         4.4033231973   -2.2134032886    0.0000000000
      3  O         4.8145626186   -1.1289968426    0.0000000000
      4  O         1.8250110644   -1.1486100613    0.0000000000
      5  O        -1.0138466844    2.4981699776    0.0000000000
      6  C        -2.1003963841    2.7824822079    0.0000000000
      7  O        -3.2415039747    3.2080745857    0.0000000000
      8  C         0.4486516377   -0.7660772933    0.0000000000
      9  C         1.5052553249    0.2434454047    0.0000000000
     10  H        -3.9807628519    2.5332791753    0.0000000000
     11  H        -0.0845465613   -0.9818796859   -0.9224256779
     12  H        -0.0845465708   -0.9818796525    0.9224256828
     13  H         1.7435745597    0.7673760133    0.9224268510
     14  H         1.7435745990    0.7673760080   -0.9224268584
   Point Group: c1    Number of degrees of freedom:    36


   Energy is   -531.343904578


 Attempting to generate delocalized internal coordinates

 Transforming Cartesian Hessian to Internal Coordinates
 Hessian Transformation does not Include Derivative of B-matrix

 27 Hessian modes will be used to form the next step
  Hessian Eigenvalues:
    -0.000246   -0.000190   -0.000065   -0.000006    0.000069    0.000236
     0.000295    0.001109    0.002678    0.010627    0.011820    0.012321
     0.014520    0.017040    0.018087    0.104974    0.111340    0.113527
     0.130250    0.251448    0.261982    0.282101    0.400713    0.800365
     0.889519    1.126183    1.337237
**WARNING** Magnitude of eigenvalue   3 too small.  Replaced by    -0.000100
**WARNING** Magnitude of eigenvalue   4 too small.  Replaced by    -0.000100
**WARNING** Magnitude of eigenvalue   5 too small.  Replaced by     0.000100
**WARNING** Hessian does not have the desired local structure

 Minimum search - taking simple RFO step
 Searching for Lamda that Minimizes Along All modes
 Value Taken    Lamda =  -0.00031262
 Calculated Step too Large.  Step scaled by  0.192884
 Step Taken.  Stepsize is  0.300000

                             Maximum     Tolerance    Cnvgd?
         Gradient           0.000269      0.000300     YES
         Displacement       0.164871      0.001200      NO
         Energy change     *********      0.000001      NO


 New Cartesian Coordinates Obtained by Inverse Iteration

 Displacement from previous Coordinates is:  0.583309
 ----------------------------------------------------------------
             Standard Nuclear Orientation (Angstroms)
    I     Atom           X                Y                Z
 ----------------------------------------------------------------
    1      O       4.1273200524    -3.2407793027     0.0002564989
    2      C       4.4156696775    -2.1180266828     0.0001530871
    3      O       4.7423646805    -1.0051822206     0.0000559784
    4      O       1.7644810971    -1.2207349237    -0.0000913216
    5      O      -0.9565612258     2.5068184611    -0.0000472634
    6      C      -2.0411146310     2.7986474197     0.0000474834
    7      O      -3.1794466398     3.2315653357     0.0001564556
    8      C       0.3980344908    -0.8039875143    -0.0001254602
    9      C       1.4796037710     0.1787324765    -0.0001088971
   10      H      -3.9228668371     2.5613682739     0.0001908827
   11      H      -0.1404099425    -1.0065266444    -0.9224930903
   12      H      -0.1404503852    -1.0065105549     0.9222216969
   13      H       1.7312691982     0.6964017751     0.9221344185
   14      H       1.7313112194     0.6963886300    -0.9223504714
 ----------------------------------------------------------------
 Nuclear Repulsion Energy =         370.55817646 hartrees
 There are       34 alpha and       34 beta electrons
 Discretize the solute cavity surface with Lebedev spheres
	Using 110 Lebedev grid points for each H atom
	Using 194 Lebedev grid points for other atoms
	Atomic van der Waals radii will be scaled by 1.20
 Remove points where switching function is < 1.0e-08
 Keep 1172 surface tesserae and discard 1124 interior tesserae
 Molecular Surface Area = 241.250 Angst**2
 Applying Cartesian multipole field
    Component          Value
    ---------          -----
     (2,0,0)        1.00000E-11
     (0,2,0)        2.00000E-11
     (0,0,2)       -3.00000E-11
 Nucleus-field energy     =     0.0000000445 hartrees
 Requested basis set is def2-TZVPPD
 There are 157 shells and 433 basis functions
 A cutoff of  1.0D-14 yielded  10134 shell pairs
 There are     76006 function pairs (     97016 Cartesian)
 Smallest overlap matrix eigenvalue = 5.79E-06
 Guess from superposition of atomic densities
 Warning:  Energy on first SCF cycle will be non-variational
 SAD guess density has 68.075651 electrons

 -----------------------------------------------------------------------
  General SCF calculation program by
  Eric Jon Sundstrom, Paul Horn, Yuezhi Mao, Dmitri Zuev, Alec White,
  David Stuck, Shaama M.S., Shane Yost, Joonho Lee, David Small,
  Daniel Levine, Susi Lehtola, Hugh Burton, Evgeny Epifanovsky,
  Bang C. Huynh
 -----------------------------------------------------------------------
 Exchange:     0.1670 Hartree-Fock + 1.0000 wB97X-V + LR-HF
 Correlation:  1.0000 wB97X-V
 Using SG-3 standard quadrature grid
 Nonlocal Correlation:  VV10 with C = 0.0100 and b = 6.00 and scale = 1.00000
 Grid used for NLC:  SG-1 standard quadrature
 
 Citation of the SMD model:
 Marenich, A.V.; Cramer, C.J.; Truhlar, D.G.
 J. Phys. Chem. B 2009, 113, 6378-6396.
 iSolventCode=           0
 Solvent: other                                                           
 
 vradii
            1           2           3           4           5           6
    1   2.2940000   1.8500000   2.2940000   2.2940000   2.2940000   1.8500000
            7           8           9          10          11          12
    1   2.2940000   1.8500000   1.8500000   1.2000000   1.2000000   1.2000000
           13          14
    1   1.2000000   1.2000000
 using 32 threads for integral computing
 -------------------------------------------------------
 OpenMP Integral computing Module                
 Release: version 1.0, May 2013, Q-Chem Inc. Pittsburgh 
 -------------------------------------------------------
 using 32 threads for integral computing
 -------------------------------------------------------
 OpenMP Integral computing Module                
 Release: version 1.0, May 2013, Q-Chem Inc. Pittsburgh 
 -------------------------------------------------------
 -------------------------------------------------------
 OpenMP BLAS3 based DFT computing Module                
 Release: version 1.0, May 2013, Q-Chem Inc. Pittsburgh 
 -------------------------------------------------------
 -------------------------------------------------------
 OpenMP BLAS3 based DFT computing Module                
 Release: version 1.0, May 2013, Q-Chem Inc. Pittsburgh 
 -------------------------------------------------------
 -------------------------------------------------------
 OpenMP BLAS3 based DFT computing Module                
 Release: version 1.0, May 2013, Q-Chem Inc. Pittsburgh 
 -------------------------------------------------------
 A restricted SCF calculation will be
 performed using DIIS
 SCF converges when DIIS error is below 1.0e-08
 ---------------------------------------
  Cycle       Energy         DIIS error
 ---------------------------------------
    1    -538.2683685288      2.55e-02  
    2    -530.1218719150      9.01e-03  
    3    -530.2817046693      8.31e-03  
    4    -531.3258478255      9.24e-04  
    5    -531.3364820187      4.93e-04  
    6    -531.3400792136      8.20e-05  
    7    -531.3401963876      3.10e-05  
    8    -531.3402124920      1.13e-05  
    9    -531.3402153981      2.53e-06  
   10    -531.3402156286      1.21e-06  
   11    -531.3402156658      3.88e-07  
   12    -531.3402156721      1.50e-07  
   13    -531.3402156731      4.89e-08  
   14    -531.3402156732      3.54e-08  
   15    -531.3402156732      6.13e-09  Convergence criterion met
 ---------------------------------------
 SCF time:   CPU 2783.09s  wall 114.00s 
(3)  G-ENP(liq) elect-nuc-pol free energy of system     -531.340215673 a.u.
(4)  G-CDS(liq) cavity-dispersion-solvent structure 
     free energy                                               -2.3508 kcal/mol
(6)  G-S(liq) free energy of system                     -531.343961934 a.u.
 SCF   energy in the final basis set =     -531.3402156732
 Total energy in the final basis set =     -531.3439619340
 
 --------------------------------------------------------------
 
                    Orbital Energies (a.u.)
 --------------------------------------------------------------
 
 Alpha MOs
 -- Occupied --
-19.4652 -19.4363 -19.2873 -19.2872 -19.2352 -10.6100 -10.4539 -10.3224
-10.3218  -1.4475  -1.4064  -1.2899  -1.2457  -1.2135  -0.9399  -0.8104
 -0.7854  -0.7672  -0.7667  -0.7605  -0.6792  -0.6561  -0.6354  -0.6350
 -0.6326  -0.6312  -0.6244  -0.5948  -0.5092  -0.4898  -0.4749  -0.4736
 -0.4275  -0.3904
 -- Virtual --
 -0.0329  -0.0072   0.0020   0.0450   0.0634   0.0716   0.0797   0.0804
  0.0878   0.0947   0.1038   0.1082   0.1179   0.1216   0.1263   0.1299
  0.1325   0.1363   0.1370   0.1437   0.1528   0.1615   0.1697   0.1720
  0.1818   0.1829   0.1950   0.2001   0.2126   0.2235   0.2253   0.2385
  0.2433   0.2509   0.2571   0.2584   0.2707   0.2730   0.2842   0.2924
  0.3036   0.3060   0.3166   0.3171   0.3180   0.3303   0.3304   0.3384
  0.3436   0.3453   0.3648   0.3657   0.3693   0.3768   0.3774   0.3892
  0.3896   0.3983   0.4034   0.4047   0.4116   0.4128   0.4192   0.4243
  0.4318   0.4354   0.4439   0.4497   0.4580   0.4591   0.4684   0.4767
  0.4884   0.4893   0.4953   0.4991   0.5054   0.5127   0.5298   0.5349
  0.5404   0.5454   0.5486   0.5519   0.5634   0.5727   0.5734   0.5869
  0.5915   0.5993   0.5997   0.6051   0.6247   0.6257   0.6401   0.6522
  0.6710   0.6755   0.6909   0.6967   0.7073   0.7207   0.7315   0.7439
  0.7546   0.7687   0.7755   0.7772   0.7818   0.7858   0.7881   0.8039
  0.8076   0.8152   0.8310   0.8344   0.8644   0.8715   0.8825   0.8941
  0.8954   0.9134   0.9169   0.9193   0.9324   0.9359   0.9447   0.9689
  0.9837   0.9894   0.9953   0.9972   1.0023   1.0125   1.0169   1.0340
  1.0421   1.0628   1.0904   1.1004   1.1263   1.1274   1.1416   1.1484
  1.1735   1.1941   1.2034   1.2062   1.2092   1.2321   1.2342   1.2691
  1.2770   1.2853   1.2894   1.2917   1.3062   1.3383   1.3411   1.3556
  1.3674   1.3824   1.4020   1.4289   1.4584   1.5109   1.5126   1.5530
  1.6390   1.6698   1.6868   1.6969   1.7165   1.7314   1.7322   1.7513
  1.7517   1.7723   1.7790   1.8031   1.8191   1.8349   1.8496   1.8739
  1.8869   1.8993   1.9008   1.9137   1.9216   1.9306   1.9506   1.9715
  1.9757   2.0290   2.0339   2.0644   2.0813   2.0937   2.1073   2.1384
  2.1726   2.2090   2.2271   2.2561   2.3240   2.3487   2.3735   2.3846
  2.4382   2.4563   2.4866   2.5021   2.5154   2.5355   2.5719   2.5758
  2.6355   2.7165   2.7224   2.7411   2.7625   2.7806   2.7977   2.8189
  2.8253   2.8804   2.9153   2.9466   2.9472   2.9661   2.9690   2.9745
  2.9845   2.9850   3.0022   3.0186   3.0303   3.0404   3.0434   3.0519
  3.0647   3.0768   3.1036   3.1260   3.1279   3.1396   3.1454   3.1569
  3.1656   3.2022   3.2087   3.2172   3.2236   3.2908   3.2933   3.2986
  3.3275   3.3426   3.3552   3.3581   3.3760   3.4207   3.4395   3.4525
  3.4826   3.5127   3.5139   3.5282   3.5295   3.5609   3.5786   3.6329
  3.6392   3.6875   3.6907   3.7182   3.7416   3.7626   3.7678   3.8023
  3.8046   3.8139   3.8156   3.8390   3.8721   3.8960   3.9639   3.9989
  4.0393   4.0422   4.0546   4.0568   4.1099   4.1467   4.2011   4.2200
  4.2898   4.3019   4.3160   4.3722   4.3782   4.3879   4.3921   4.4287
  4.4850   4.6305   4.6556   4.7076   4.7359   4.7823   4.7986   4.8126
  4.9618   4.9842   4.9864   5.0627   5.0913   5.1007   5.1137   5.1188
  5.1779   5.1899   5.2018   5.2415   5.2465   5.2530   5.2546   5.2978
  5.3069   5.3260   5.3291   5.3521   5.4167   5.4766   5.5535   5.5811
  5.6258   5.6552   5.6816   5.7124   5.7142   5.7326   5.7752   5.8871
  5.9333   5.9394   5.9747   6.0713   6.0717   6.1567   6.1924   6.2549
  6.2633   6.3285   6.3288   6.4120   6.4136   6.4237   6.4317   6.4482
  6.4822   6.5225   6.5418   6.5427   6.5547   6.5791   6.5999   6.6170
  6.6627   6.7856   6.8583   6.8635   6.8806   6.9580   6.9786   7.0435
  7.0461   7.0525   7.0731   7.1020   7.2129   7.2299   7.2886   7.3228
  7.3413   7.4960   7.6002   7.6573   7.8753   7.8764  23.6652  23.6858
 24.0277  24.3339  44.0675  44.1512  44.3553  44.4057  44.4457
 --------------------------------------------------------------
 
          Ground-State Mulliken Net Atomic Charges

     Atom                 Charge (a.u.)
  ----------------------------------------
      1 O                    -0.306468
      2 C                     0.634785
      3 O                    -0.309659
      4 O                    -0.332124
      5 O                     0.021332
      6 C                     0.704601
      7 O                    -0.106187
      8 C                    -0.048655
      9 C                     0.145897
     10 H                     0.370342
     11 H                     0.061133
     12 H                     0.061133
     13 H                     0.051936
     14 H                     0.051935
  ----------------------------------------
  Sum of atomic charges =     1.000000

  Building new vdw surfaces
         Merz-Kollman RESP Net Atomic Charges

     Atom                 Charge (a.u.)
  ----------------------------------------
      1 O                    -0.385348
      2 C                     0.722011
      3 O                    -0.365768
      4 O                    -0.204744
      5 O                    -0.096926
      6 C                     0.779398
      7 O                    -0.208518
      8 C                    -0.270474
      9 C                    -0.270474
     10 H                     0.523677
     11 H                     0.194292
     12 H                     0.194292
     13 H                     0.194292
     14 H                     0.194292
  ----------------------------------------
  Sum of atomic charges =     1.000000

  Related Dipole Moment =    21.3136 (X -15.7416 Y 14.3691 Z  0.0004)

 -----------------------------------------------------------------
                    Cartesian Multipole Moments
 -----------------------------------------------------------------
    Charge (ESU x 10^10)
                 4.8032
    Dipole Moment (Debye)
         X     -15.7227      Y      14.3962      Z       0.0004
       Tot      21.3180
    Quadrupole Moments (Debye-Ang)
        XX      -9.1812     XY     -30.1061     YY     -21.1981
        XZ      -0.0018     YZ       0.0016     ZZ     -45.9411
    Octopole Moments (Debye-Ang^2)
       XXX    -355.9664    XXY     117.0345    XYY    -170.2302
       YYY     129.4212    XXZ       0.0062    XYZ      -0.0031
       YYZ      -0.0004    XZZ     -57.8352    YZZ       2.9547
       ZZZ      -0.0037
    Hexadecapole Moments (Debye-Ang^3)
      XXXX   -1995.5892   XXXY     307.9890   XXYY    -425.9747
      XYYY     602.2447   YYYY   -1189.5920   XXXZ      -0.0391
      XXYZ       0.0236   XYYZ      -0.0245   YYYZ       0.0247
      XXZZ    -417.2675   XYZZ     236.9743   YYZZ    -223.7150
      XZZZ      -0.0147   YZZZ       0.0075   ZZZZ     -52.2228
 -----------------------------------------------------------------
 Calculating analytic gradient of the SCF energy
 Gradient of CDS energy
            1           2           3           4           5           6
    1  -0.0007454   0.0012345  -0.0006583  -0.0000511   0.0001014   0.0006305
    2   0.0000253  -0.0003576   0.0003019   0.0004051  -0.0001078   0.0002151
    3  -0.0000000   0.0000001  -0.0000001   0.0000000  -0.0000000  -0.0000000
            7           8           9          10          11          12
    1  -0.0003658  -0.0010757   0.0010847  -0.0003047   0.0001407   0.0001407
    2  -0.0006330  -0.0011543   0.0010411   0.0004287   0.0000529   0.0000529
    3   0.0000000  -0.0000000   0.0000000   0.0000000   0.0002410  -0.0002410
           13          14
    1  -0.0000657  -0.0000657
    2  -0.0001352  -0.0001352
    3  -0.0002408   0.0002408
 Gradient of SCF Energy
            1           2           3           4           5           6
    1  -0.0079609  -0.0028227   0.0094918   0.0062892   0.1551023  -0.0495004
    2  -0.0303920   0.0000925   0.0312226  -0.0084745  -0.0313516   0.0019291
    3   0.0000029  -0.0000004  -0.0000027   0.0000003  -0.0000128   0.0000022
            7           8           9          10          11          12
    1  -0.0432034   0.0236054  -0.0096483  -0.0608467  -0.0172487  -0.0172506
    2   0.0695057   0.0209307  -0.0272791  -0.0408764  -0.0086125  -0.0086111
    3   0.0000070   0.0000009   0.0000009   0.0000035  -0.0314698   0.0314691
           13          14
    1   0.0069959   0.0069970
    2   0.0159584   0.0159582
    3   0.0297680  -0.0297691
 Max gradient component =       1.551E-01
 RMS gradient           =       3.404E-02
 Computing fast CPCM-SWIG gradient
 Updating gradient with PCM contributions...
 -- total gradient after adding PCM contribution --
---------------------------------------------------
  Atom         X              Y              Z     
---------------------------------------------------
   1      -0.000051       0.000006       0.000000
   2      -0.000129      -0.000112      -0.000000
   3       0.000015       0.000092       0.000000
   4       0.000077       0.000019       0.000000
   5      -0.000065      -0.000054       0.000000
   6       0.000031       0.000067      -0.000000
   7       0.000001       0.000007      -0.000000
   8       0.000125       0.000017       0.000000
   9       0.000007       0.000062       0.000001
  10      -0.000040       0.000054       0.000000
  11       0.000063      -0.000046       0.000036
  12       0.000063      -0.000045      -0.000036
  13      -0.000048      -0.000033      -0.000083
  14      -0.000048      -0.000033       0.000082
---------------------------------------------------
 Number of fixed atoms: 0
 Gradient time:  CPU 539.25 s  wall 26.96 s
 Geometry Optimization Parameters
   NAtoms,    NIC,     NZ,  NCons,   NDum,   NFix, NCnnct, MaxDiis
       14     230       0       0       0       0       0       0

 Cartesian Hessian Update
 Hessian updated using BFGS update


** GEOMETRY OPTIMIZATION IN DELOCALIZED INTERNAL COORDINATES **
   Searching for a Minimum

   Optimization Cycle:   2

                       Coordinates (Angstroms)
     ATOM                X               Y               Z
      1  O         4.1273200524   -3.2407793027    0.0002564989
      2  C         4.4156696775   -2.1180266828    0.0001530871
      3  O         4.7423646805   -1.0051822206    0.0000559784
      4  O         1.7644810971   -1.2207349237   -0.0000913216
      5  O        -0.9565612258    2.5068184611   -0.0000472634
      6  C        -2.0411146310    2.7986474197    0.0000474834
      7  O        -3.1794466398    3.2315653357    0.0001564556
      8  C         0.3980344908   -0.8039875143   -0.0001254602
      9  C         1.4796037710    0.1787324765   -0.0001088971
     10  H        -3.9228668371    2.5613682739    0.0001908827
     11  H        -0.1404099425   -1.0065266444   -0.9224930903
     12  H        -0.1404503852   -1.0065105549    0.9222216969
     13  H         1.7312691982    0.6964017751    0.9221344185
     14  H         1.7313112194    0.6963886300   -0.9223504714
   Point Group: c1    Number of degrees of freedom:    36


   Energy is   -531.343961934

 Hessian updated using BFGS update

 36 Hessian modes will be used to form the next step
  Hessian Eigenvalues:
    -0.000246   -0.000065   -0.000006    0.000034    0.000066    0.000130
     0.000242    0.000295    0.001341    0.002695    0.006757    0.011124
     0.011178    0.011853    0.012329    0.014523    0.014613    0.017049
     0.017400    0.018094    0.021461    0.035676    0.105207    0.111420
     0.113601    0.130537    0.221077    0.252186    0.262519    0.269133
     0.282753    0.400717    0.800541    0.889546    1.126595    1.337256
**WARNING** Magnitude of eigenvalue   2 too small.  Replaced by    -0.000100
**WARNING** Magnitude of eigenvalue   3 too small.  Replaced by    -0.000100
**WARNING** Magnitude of eigenvalue   4 too small.  Replaced by     0.000100
**WARNING** Magnitude of eigenvalue   5 too small.  Replaced by     0.000100
**WARNING** Hessian does not have the desired local structure

 Minimum search - taking simple RFO step
 Searching for Lamda that Minimizes Along All modes
 Value Taken    Lamda =  -0.00024624
 Calculated Step too Large.  Step scaled by  0.000061
 Step Taken.  Stepsize is  0.300000

                             Maximum     Tolerance    Cnvgd?
         Gradient           0.000221      0.000300     YES
         Displacement       0.190220      0.001200      NO
         Energy change     -0.000057      0.000001      NO


 New Cartesian Coordinates Obtained by Inverse Iteration

 Displacement from previous Coordinates is:  0.355497
 ----------------------------------------------------------------
             Standard Nuclear Orientation (Angstroms)
    I     Atom           X                Y                Z
 ----------------------------------------------------------------
    1      O       4.1265492182    -3.2389567151     0.0889932070
    2      C       4.4151580893    -2.1167376888     0.0566164280
    3      O       4.7420761738    -1.0043750279     0.0265146528
    4      O       1.7648070740    -1.2210996150    -0.0298835557
    5      O      -0.9575790469     2.5052995870    -0.0277778698
    6      C      -2.0410571729     2.7980843604     0.0138470508
    7      O      -3.1778730806     3.2324082630     0.0614917424
    8      C       0.3981902889    -0.8049023215    -0.0435706093
    9      C       1.4794593092     0.1782769727    -0.0420462733
   10      H      -3.9220845530     2.5632605274     0.0766015836
   11      H      -0.1331384701    -1.0144091165    -0.9686875435
   12      H      -0.1472597672    -1.0008571817     0.8760757802
   13      H       1.7235379588     0.7023750602     0.8783187359
   14      H       1.7384185039     0.6898074243    -0.9664933315
 ----------------------------------------------------------------
 Nuclear Repulsion Energy =         370.55587344 hartrees
 There are       34 alpha and       34 beta electrons
 Discretize the solute cavity surface with Lebedev spheres
	Using 110 Lebedev grid points for each H atom
	Using 194 Lebedev grid points for other atoms
	Atomic van der Waals radii will be scaled by 1.20
 Remove points where switching function is < 1.0e-08
 Keep 1170 surface tesserae and discard 1126 interior tesserae
 Molecular Surface Area = 241.443 Angst**2
 Applying Cartesian multipole field
    Component          Value
    ---------          -----
     (2,0,0)        1.00000E-11
     (0,2,0)        2.00000E-11
     (0,0,2)       -3.00000E-11
 Nucleus-field energy     =     0.0000000445 hartrees
 Requested basis set is def2-TZVPPD
 There are 157 shells and 433 basis functions
 A cutoff of  1.0D-14 yielded  10130 shell pairs
 There are     75978 function pairs (     96985 Cartesian)
 Smallest overlap matrix eigenvalue = 5.79E-06
 Guess from superposition of atomic densities
 Warning:  Energy on first SCF cycle will be non-variational
 SAD guess density has 68.075651 electrons

 -----------------------------------------------------------------------
  General SCF calculation program by
  Eric Jon Sundstrom, Paul Horn, Yuezhi Mao, Dmitri Zuev, Alec White,
  David Stuck, Shaama M.S., Shane Yost, Joonho Lee, David Small,
  Daniel Levine, Susi Lehtola, Hugh Burton, Evgeny Epifanovsky,
  Bang C. Huynh
 -----------------------------------------------------------------------
 Exchange:     0.1670 Hartree-Fock + 1.0000 wB97X-V + LR-HF
 Correlation:  1.0000 wB97X-V
 Using SG-3 standard quadrature grid
 Nonlocal Correlation:  VV10 with C = 0.0100 and b = 6.00 and scale = 1.00000
 Grid used for NLC:  SG-1 standard quadrature
 
 Citation of the SMD model:
 Marenich, A.V.; Cramer, C.J.; Truhlar, D.G.
 J. Phys. Chem. B 2009, 113, 6378-6396.
 iSolventCode=           0
 Solvent: other                                                           
 
 vradii
            1           2           3           4           5           6
    1   2.2940000   1.8500000   2.2940000   2.2940000   2.2940000   1.8500000
            7           8           9          10          11          12
    1   2.2940000   1.8500000   1.8500000   1.2000000   1.2000000   1.2000000
           13          14
    1   1.2000000   1.2000000
 using 32 threads for integral computing
 -------------------------------------------------------
 OpenMP Integral computing Module                
 Release: version 1.0, May 2013, Q-Chem Inc. Pittsburgh 
 -------------------------------------------------------
 using 32 threads for integral computing
 -------------------------------------------------------
 OpenMP Integral computing Module                
 Release: version 1.0, May 2013, Q-Chem Inc. Pittsburgh 
 -------------------------------------------------------
 -------------------------------------------------------
 OpenMP BLAS3 based DFT computing Module                
 Release: version 1.0, May 2013, Q-Chem Inc. Pittsburgh 
 -------------------------------------------------------
 -------------------------------------------------------
 OpenMP BLAS3 based DFT computing Module                
 Release: version 1.0, May 2013, Q-Chem Inc. Pittsburgh 
 -------------------------------------------------------
 -------------------------------------------------------
 OpenMP BLAS3 based DFT computing Module                
 Release: version 1.0, May 2013, Q-Chem Inc. Pittsburgh 
 -------------------------------------------------------
 A restricted SCF calculation will be
 performed using DIIS
 SCF converges when DIIS error is below 1.0e-08
 ---------------------------------------
  Cycle       Energy         DIIS error
 ---------------------------------------
    1    -538.2980379587      2.55e-02  
    2    -530.1218386085      9.01e-03  
    3    -530.2817306441      8.31e-03  
    4    -531.3258593508      9.24e-04  
    5    -531.3364908769      4.93e-04  
    6    -531.3400873113      8.20e-05  
    7    -531.3402045014      3.10e-05  
    8    -531.3402206154      1.13e-05  
    9    -531.3402235226      2.53e-06  
   10    -531.3402237516      1.21e-06  
   11    -531.3402237888      3.88e-07  
   12    -531.3402237951      1.50e-07  
   13    -531.3402237961      4.89e-08  
   14    -531.3402237962      3.54e-08  
   15    -531.3402237962      6.14e-09  Convergence criterion met
 ---------------------------------------
 SCF time:   CPU 2798.89s  wall 115.00s 
(3)  G-ENP(liq) elect-nuc-pol free energy of system     -531.340223796 a.u.
(4)  G-CDS(liq) cavity-dispersion-solvent structure 
     free energy                                               -2.3509 kcal/mol
(6)  G-S(liq) free energy of system                     -531.343970135 a.u.
 SCF   energy in the final basis set =     -531.3402237962
 Total energy in the final basis set =     -531.3439701353
 
 --------------------------------------------------------------
 
                    Orbital Energies (a.u.)
 --------------------------------------------------------------
 
 Alpha MOs
 -- Occupied --
-19.4652 -19.4363 -19.2873 -19.2872 -19.2352 -10.6100 -10.4539 -10.3225
-10.3218  -1.4475  -1.4064  -1.2899  -1.2457  -1.2135  -0.9399  -0.8104
 -0.7854  -0.7671  -0.7667  -0.7604  -0.6791  -0.6561  -0.6354  -0.6349
 -0.6326  -0.6312  -0.6244  -0.5948  -0.5092  -0.4897  -0.4749  -0.4736
 -0.4275  -0.3904
 -- Virtual --
 -0.0329  -0.0072   0.0020   0.0450   0.0634   0.0716   0.0797   0.0804
  0.0878   0.0948   0.1038   0.1082   0.1179   0.1216   0.1263   0.1299
  0.1325   0.1363   0.1370   0.1437   0.1529   0.1615   0.1697   0.1720
  0.1818   0.1828   0.1950   0.2002   0.2127   0.2228   0.2259   0.2385
  0.2434   0.2508   0.2568   0.2588   0.2700   0.2737   0.2844   0.2924
  0.3035   0.3057   0.3163   0.3171   0.3183   0.3301   0.3306   0.3384
  0.3437   0.3454   0.3647   0.3658   0.3692   0.3756   0.3785   0.3885
  0.3903   0.3983   0.4033   0.4046   0.4111   0.4133   0.4192   0.4244
  0.4318   0.4354   0.4441   0.4496   0.4578   0.4593   0.4685   0.4766
  0.4883   0.4894   0.4954   0.4991   0.5053   0.5126   0.5299   0.5349
  0.5402   0.5455   0.5488   0.5518   0.5634   0.5726   0.5736   0.5867
  0.5915   0.5986   0.6005   0.6052   0.6245   0.6261   0.6400   0.6521
  0.6706   0.6757   0.6907   0.6967   0.7073   0.7207   0.7315   0.7439
  0.7545   0.7682   0.7754   0.7775   0.7816   0.7863   0.7882   0.8039
  0.8076   0.8151   0.8311   0.8347   0.8642   0.8719   0.8825   0.8939
  0.8956   0.9133   0.9168   0.9193   0.9322   0.9360   0.9446   0.9689
  0.9836   0.9894   0.9947   0.9975   1.0027   1.0124   1.0167   1.0338
  1.0424   1.0629   1.0905   1.1002   1.1256   1.1282   1.1408   1.1496
  1.1734   1.1942   1.2030   1.2067   1.2092   1.2312   1.2351   1.2691
  1.2770   1.2852   1.2894   1.2916   1.3061   1.3381   1.3410   1.3556
  1.3674   1.3824   1.4019   1.4287   1.4582   1.5109   1.5126   1.5531
  1.6388   1.6697   1.6867   1.6968   1.7164   1.7308   1.7323   1.7513
  1.7519   1.7724   1.7792   1.8031   1.8191   1.8348   1.8495   1.8737
  1.8869   1.8992   1.9009   1.9138   1.9218   1.9305   1.9506   1.9715
  1.9758   2.0289   2.0339   2.0644   2.0812   2.0937   2.1072   2.1383
  2.1725   2.2093   2.2269   2.2558   2.3238   2.3487   2.3735   2.3847
  2.4381   2.4561   2.4865   2.5021   2.5154   2.5355   2.5719   2.5758
  2.6355   2.7165   2.7223   2.7410   2.7626   2.7807   2.7975   2.8191
  2.8253   2.8804   2.9154   2.9464   2.9474   2.9660   2.9691   2.9745
  2.9844   2.9853   3.0023   3.0187   3.0303   3.0403   3.0434   3.0519
  3.0647   3.0766   3.1035   3.1257   3.1280   3.1396   3.1451   3.1569
  3.1656   3.2023   3.2086   3.2177   3.2236   3.2906   3.2931   3.2989
  3.3275   3.3426   3.3552   3.3583   3.3760   3.4206   3.4396   3.4524
  3.4827   3.5126   3.5139   3.5281   3.5295   3.5609   3.5785   3.6328
  3.6391   3.6873   3.6908   3.7179   3.7414   3.7625   3.7677   3.8023
  3.8046   3.8139   3.8158   3.8389   3.8721   3.8960   3.9640   3.9987
  4.0392   4.0421   4.0544   4.0565   4.1096   4.1467   4.2009   4.2197
  4.2895   4.3019   4.3157   4.3720   4.3783   4.3873   4.3922   4.4285
  4.4848   4.6303   4.6553   4.7073   4.7359   4.7823   4.7983   4.8123
  4.9614   4.9842   4.9865   5.0624   5.0914   5.1007   5.1134   5.1186
  5.1779   5.1899   5.2014   5.2415   5.2465   5.2530   5.2543   5.2974
  5.3065   5.3260   5.3291   5.3520   5.4162   5.4768   5.5534   5.5809
  5.6254   5.6551   5.6813   5.7123   5.7138   5.7324   5.7750   5.8867
  5.9333   5.9394   5.9747   6.0714   6.0715   6.1567   6.1921   6.2550
  6.2633   6.3280   6.3289   6.4118   6.4131   6.4237   6.4315   6.4483
  6.4823   6.5225   6.5418   6.5428   6.5547   6.5790   6.5999   6.6171
  6.6627   6.7855   6.8582   6.8632   6.8808   6.9580   6.9786   7.0434
  7.0461   7.0525   7.0729   7.1021   7.2129   7.2299   7.2886   7.3228
  7.3412   7.4960   7.6002   7.6571   7.8753   7.8764  23.6645  23.6846
 24.0277  24.3340  44.0675  44.1512  44.3552  44.4054  44.4457
 --------------------------------------------------------------
 
          Ground-State Mulliken Net Atomic Charges

     Atom                 Charge (a.u.)
  ----------------------------------------
      1 O                    -0.306483
      2 C                     0.634782
      3 O                    -0.309661
      4 O                    -0.332233
      5 O                     0.021379
      6 C                     0.704596
      7 O                    -0.106202
      8 C                    -0.048553
      9 C                     0.145819
     10 H                     0.370304
     11 H                     0.060936
     12 H                     0.061488
     13 H                     0.052367
     14 H                     0.051461
  ----------------------------------------
  Sum of atomic charges =     1.000000

  Building new vdw surfaces
         Merz-Kollman RESP Net Atomic Charges

     Atom                 Charge (a.u.)
  ----------------------------------------
      1 O                    -0.385648
      2 C                     0.722745
      3 O                    -0.366084
      4 O                    -0.204794
      5 O                    -0.096553
      6 C                     0.779291
      7 O                    -0.209180
      8 C                    -0.270332
      9 C                    -0.270332
     10 H                     0.524120
     11 H                     0.194192
     12 H                     0.194192
     13 H                     0.194192
     14 H                     0.194192
  ----------------------------------------
  Sum of atomic charges =     1.000000

  Related Dipole Moment =    21.3107 (X -15.7380 Y 14.3680 Z  0.1528)

 -----------------------------------------------------------------
                    Cartesian Multipole Moments
 -----------------------------------------------------------------
    Charge (ESU x 10^10)
                 4.8032
    Dipole Moment (Debye)
         X     -15.7221      Y      14.3976      Z       0.1588
       Tot      21.3190
    Quadrupole Moments (Debye-Ang)
        XX      -9.1933     XY     -30.1169     YY     -21.1843
        XZ      -0.7000     YZ       0.5962     ZZ     -45.9318
    Octopole Moments (Debye-Ang^2)
       XXX    -355.9215    XXY     117.0696    XYY    -170.2602
       YYY     129.3843    XXZ       2.3665    XYZ      -1.2766
       YYZ      -0.0614    XZZ     -57.8964    YZZ       3.0001
       ZZZ      -1.3338
    Hexadecapole Moments (Debye-Ang^3)
      XXXX   -1995.3148   XXXY     307.4966   XXYY    -425.4190
      XYYY     601.5737   YYYY   -1188.7223   XXXZ     -15.8017
      XXYZ       8.8606   XYYZ      -8.7818   YYYZ       8.9059
      XXZZ    -417.1177   XYZZ     236.8515   YYZZ    -223.7644
      XZZZ      -5.6351   YZZZ       2.9466   ZZZZ     -52.8992
 -----------------------------------------------------------------
 Calculating analytic gradient of the SCF energy
 Gradient of CDS energy
            1           2           3           4           5           6
    1  -0.0007452   0.0012342  -0.0006580  -0.0000514   0.0001013   0.0006306
    2   0.0000250  -0.0003569   0.0003014   0.0004051  -0.0001077   0.0002142
    3  -0.0000165   0.0000378  -0.0000265   0.0000029  -0.0000020  -0.0000188
            7           8           9          10          11          12
    1  -0.0003669  -0.0010752   0.0010842  -0.0003037   0.0001387   0.0001425
    2  -0.0006324  -0.0011547   0.0010411   0.0004290   0.0000547   0.0000512
    3   0.0000023   0.0000011   0.0000015   0.0000180   0.0002414  -0.0002403
           13          14
    1  -0.0000639  -0.0000673
    2  -0.0001371  -0.0001328
    3  -0.0002408   0.0002401
 Gradient of SCF Energy
            1           2           3           4           5           6
    1  -0.0079706  -0.0028151   0.0094957   0.0063296   0.1549520  -0.0494785
    2  -0.0303869   0.0001059   0.0312024  -0.0085033  -0.0314446   0.0018417
    3   0.0009213  -0.0001574  -0.0008234   0.0001048  -0.0056749   0.0010494
            7           8           9          10          11          12
    1  -0.0430320   0.0235535  -0.0096438  -0.0608891  -0.0169274  -0.0176124
    2   0.0696007   0.0208732  -0.0273035  -0.0407934  -0.0090097  -0.0082269
    3   0.0030488   0.0002793   0.0005894   0.0015328  -0.0316040   0.0314000
           13          14
    1   0.0067820   0.0072560
    2   0.0161748   0.0158694
    3   0.0295654  -0.0302317
 Max gradient component =       1.550E-01
 RMS gradient           =       3.405E-02
 Computing fast CPCM-SWIG gradient
 Updating gradient with PCM contributions...
 -- total gradient after adding PCM contribution --
---------------------------------------------------
  Atom         X              Y              Z     
---------------------------------------------------
   1      -0.000046       0.000002       0.000081
   2      -0.000117      -0.000101      -0.000162
   3       0.000008       0.000080       0.000075
   4       0.000109      -0.000023      -0.000003
   5      -0.000112      -0.000017       0.000196
   6       0.000063      -0.000002      -0.000148
   7       0.000017       0.000043      -0.000077
   8       0.000089      -0.000000       0.000082
   9      -0.000019       0.000017       0.000563
  10      -0.000041       0.000049       0.000032
  11      -0.000001      -0.000081      -0.000060
  12       0.000085      -0.000024      -0.000047
  13      -0.000102      -0.000120      -0.000217
  14       0.000067       0.000177      -0.000314
---------------------------------------------------
 Number of fixed atoms: 0
 Gradient time:  CPU 502.26 s  wall 25.48 s
 Geometry Optimization Parameters
   NAtoms,    NIC,     NZ,  NCons,   NDum,   NFix, NCnnct, MaxDiis
       14     230       0       0       0       0       0       0

 Cartesian Hessian Update
 Hessian updated using BFGS update
**WARNING** Hereditary positive definiteness endangered
 due to small product of step size times gradient change


** GEOMETRY OPTIMIZATION IN DELOCALIZED INTERNAL COORDINATES **
   Searching for a Minimum

   Optimization Cycle:   3

                       Coordinates (Angstroms)
     ATOM                X               Y               Z
      1  O         4.1265492182   -3.2389567151    0.0889932070
      2  C         4.4151580893   -2.1167376888    0.0566164280
      3  O         4.7420761738   -1.0043750279    0.0265146528
      4  O         1.7648070740   -1.2210996150   -0.0298835557
      5  O        -0.9575790469    2.5052995870   -0.0277778698
      6  C        -2.0410571729    2.7980843604    0.0138470508
      7  O        -3.1778730806    3.2324082630    0.0614917424
      8  C         0.3981902889   -0.8049023215   -0.0435706093
      9  C         1.4794593092    0.1782769727   -0.0420462733
     10  H        -3.9220845530    2.5632605274    0.0766015836
     11  H        -0.1331384701   -1.0144091165   -0.9686875435
     12  H        -0.1472597672   -1.0008571817    0.8760757802
     13  H         1.7235379588    0.7023750602    0.8783187359
     14  H         1.7384185039    0.6898074243   -0.9664933315
   Point Group: c1    Number of degrees of freedom:    36


   Energy is   -531.343970135

 Hessian updated using BFGS update
**WARNING** Hereditary positive definiteness endangered
 due to small product of step size times gradient change

 36 Hessian modes will be used to form the next step
  Hessian Eigenvalues:
    -0.000209   -0.000060   -0.000006    0.000034    0.000066    0.000129
     0.000242    0.000295    0.001335    0.002692    0.006739    0.011124
     0.011163    0.011852    0.012328    0.014522    0.014611    0.017020
     0.017382    0.018076    0.021412    0.035290    0.105199    0.111419
     0.113593    0.130518    0.215332    0.251201    0.262137    0.266163
     0.281908    0.400716    0.800541    0.889533    1.126594    1.337017
**WARNING** Magnitude of eigenvalue   2 too small.  Replaced by    -0.000100
**WARNING** Magnitude of eigenvalue   3 too small.  Replaced by    -0.000100
**WARNING** Magnitude of eigenvalue   4 too small.  Replaced by     0.000100
**WARNING** Magnitude of eigenvalue   5 too small.  Replaced by     0.000100
**WARNING** Hessian does not have the desired local structure

 Minimum search - taking simple RFO step
 Searching for Lamda that Minimizes Along All modes
 Value Taken    Lamda =  -0.00022803
 Calculated Step too Large.  Step scaled by  0.105271
 Step Taken.  Stepsize is  0.300000

                             Maximum     Tolerance    Cnvgd?
         Gradient           0.000246      0.000300     YES
         Displacement       0.159582      0.001200      NO
         Energy change     -0.000008      0.000001      NO


 New Cartesian Coordinates Obtained by Inverse Iteration

 Displacement from previous Coordinates is:  0.300169
 ----------------------------------------------------------------
             Standard Nuclear Orientation (Angstroms)
    I     Atom           X                Y                Z
 ----------------------------------------------------------------
    1      O       4.1303851388    -3.2298394504     0.1404903778
    2      C       4.4125447678    -2.1061496164     0.1030246614
    3      O       4.7328637799    -0.9920315209     0.0685115563
    4      O       1.7584906434    -1.2270384963    -0.0476986025
    5      O      -0.9531909126     2.5018576659    -0.0625450623
    6      C      -2.0339912039     2.7954104785     0.0212294786
    7      O      -3.1672361888     3.2312210709     0.1171727600
    8      C       0.3932522155    -0.8067262721    -0.0770147377
    9      C       1.4778556268     0.1731068610    -0.0770797483
   10      H      -3.9124093649     2.5634992832     0.1435545143
   11      H      -0.1312408645    -1.0240249022    -1.0044192018
   12      H      -0.1603605005    -0.9914866790     0.8401887699
   13      H       1.7162749186     0.7061356835     0.8398995172
   14      H       1.7459664698     0.6742404229    -1.0053142853
 ----------------------------------------------------------------
 Nuclear Repulsion Energy =         370.72391074 hartrees
 There are       34 alpha and       34 beta electrons
 Discretize the solute cavity surface with Lebedev spheres
	Using 110 Lebedev grid points for each H atom
	Using 194 Lebedev grid points for other atoms
	Atomic van der Waals radii will be scaled by 1.20
 Remove points where switching function is < 1.0e-08
 Keep 1172 surface tesserae and discard 1124 interior tesserae
 Molecular Surface Area = 241.716 Angst**2
 Applying Cartesian multipole field
    Component          Value
    ---------          -----
     (2,0,0)        1.00000E-11
     (0,2,0)        2.00000E-11
     (0,0,2)       -3.00000E-11
 Nucleus-field energy     =     0.0000000443 hartrees
 Requested basis set is def2-TZVPPD
 There are 157 shells and 433 basis functions
 A cutoff of  1.0D-14 yielded  10136 shell pairs
 There are     76038 function pairs (     97063 Cartesian)
 Smallest overlap matrix eigenvalue = 5.80E-06
 Guess from superposition of atomic densities
 Warning:  Energy on first SCF cycle will be non-variational
 SAD guess density has 68.075651 electrons

 -----------------------------------------------------------------------
  General SCF calculation program by
  Eric Jon Sundstrom, Paul Horn, Yuezhi Mao, Dmitri Zuev, Alec White,
  David Stuck, Shaama M.S., Shane Yost, Joonho Lee, David Small,
  Daniel Levine, Susi Lehtola, Hugh Burton, Evgeny Epifanovsky,
  Bang C. Huynh
 -----------------------------------------------------------------------
 Exchange:     0.1670 Hartree-Fock + 1.0000 wB97X-V + LR-HF
 Correlation:  1.0000 wB97X-V
 Using SG-3 standard quadrature grid
 Nonlocal Correlation:  VV10 with C = 0.0100 and b = 6.00 and scale = 1.00000
 Grid used for NLC:  SG-1 standard quadrature
 
 Citation of the SMD model:
 Marenich, A.V.; Cramer, C.J.; Truhlar, D.G.
 J. Phys. Chem. B 2009, 113, 6378-6396.
 iSolventCode=           0
 Solvent: other                                                           
 
 vradii
            1           2           3           4           5           6
    1   2.2940000   1.8500000   2.2940000   2.2940000   2.2940000   1.8500000
            7           8           9          10          11          12
    1   2.2940000   1.8500000   1.8500000   1.2000000   1.2000000   1.2000000
           13          14
    1   1.2000000   1.2000000
 using 32 threads for integral computing
 -------------------------------------------------------
 OpenMP Integral computing Module                
 Release: version 1.0, May 2013, Q-Chem Inc. Pittsburgh 
 -------------------------------------------------------
 using 32 threads for integral computing
 -------------------------------------------------------
 OpenMP Integral computing Module                
 Release: version 1.0, May 2013, Q-Chem Inc. Pittsburgh 
 -------------------------------------------------------
 -------------------------------------------------------
 OpenMP BLAS3 based DFT computing Module                
 Release: version 1.0, May 2013, Q-Chem Inc. Pittsburgh 
 -------------------------------------------------------
 -------------------------------------------------------
 OpenMP BLAS3 based DFT computing Module                
 Release: version 1.0, May 2013, Q-Chem Inc. Pittsburgh 
 -------------------------------------------------------
 -------------------------------------------------------
 OpenMP BLAS3 based DFT computing Module                
 Release: version 1.0, May 2013, Q-Chem Inc. Pittsburgh 
 -------------------------------------------------------
 A restricted SCF calculation will be
 performed using DIIS
 SCF converges when DIIS error is below 1.0e-08
 ---------------------------------------
  Cycle       Energy         DIIS error
 ---------------------------------------
    1    -538.2973498295      2.55e-02  
    2    -530.1218738886      9.01e-03  
    3    -530.2818691416      8.31e-03  
    4    -531.3258958692      9.24e-04  
    5    -531.3365191817      4.93e-04  
    6    -531.3401139022      8.20e-05  
    7    -531.3402311103      3.11e-05  
    8    -531.3402472442      1.13e-05  
    9    -531.3402501531      2.53e-06  
   10    -531.3402503822      1.21e-06  
   11    -531.3402504195      3.88e-07  
   12    -531.3402504258      1.50e-07  
   13    -531.3402504268      4.90e-08  
   14    -531.3402504268      3.54e-08  
   15    -531.3402504269      6.14e-09  Convergence criterion met
 ---------------------------------------
 SCF time:   CPU 2723.73s  wall 113.00s 
(3)  G-ENP(liq) elect-nuc-pol free energy of system     -531.340250427 a.u.
(4)  G-CDS(liq) cavity-dispersion-solvent structure 
     free energy                                               -2.3524 kcal/mol
(6)  G-S(liq) free energy of system                     -531.343999157 a.u.
 SCF   energy in the final basis set =     -531.3402504269
 Total energy in the final basis set =     -531.3439991567
 
 --------------------------------------------------------------
 
                    Orbital Energies (a.u.)
 --------------------------------------------------------------
 
 Alpha MOs
 -- Occupied --
-19.4651 -19.4363 -19.2874 -19.2872 -19.2352 -10.6099 -10.4539 -10.3225
-10.3219  -1.4474  -1.4064  -1.2899  -1.2457  -1.2134  -0.9398  -0.8104
 -0.7854  -0.7671  -0.7666  -0.7604  -0.6792  -0.6561  -0.6355  -0.6348
 -0.6326  -0.6312  -0.6243  -0.5947  -0.5092  -0.4897  -0.4749  -0.4736
 -0.4274  -0.3904
 -- Virtual --
 -0.0329  -0.0071   0.0021   0.0450   0.0634   0.0716   0.0797   0.0805
  0.0878   0.0948   0.1038   0.1082   0.1180   0.1216   0.1264   0.1298
  0.1325   0.1363   0.1371   0.1437   0.1530   0.1614   0.1697   0.1720
  0.1816   0.1828   0.1949   0.2004   0.2129   0.2219   0.2268   0.2386
  0.2433   0.2510   0.2564   0.2592   0.2686   0.2746   0.2848   0.2926
  0.3035   0.3052   0.3165   0.3171   0.3188   0.3302   0.3303   0.3385
  0.3437   0.3458   0.3647   0.3659   0.3692   0.3746   0.3797   0.3881
  0.3911   0.3981   0.4030   0.4047   0.4102   0.4140   0.4192   0.4247
  0.4321   0.4356   0.4440   0.4497   0.4575   0.4600   0.4682   0.4766
  0.4881   0.4897   0.4956   0.4993   0.5052   0.5127   0.5303   0.5347
  0.5398   0.5460   0.5492   0.5523   0.5638   0.5720   0.5747   0.5866
  0.5917   0.5982   0.6014   0.6054   0.6245   0.6264   0.6400   0.6525
  0.6708   0.6758   0.6908   0.6967   0.7076   0.7208   0.7312   0.7433
  0.7543   0.7677   0.7756   0.7787   0.7817   0.7871   0.7883   0.8037
  0.8078   0.8151   0.8313   0.8352   0.8643   0.8732   0.8826   0.8938
  0.8961   0.9130   0.9163   0.9194   0.9322   0.9366   0.9450   0.9690
  0.9834   0.9898   0.9937   0.9980   1.0033   1.0124   1.0164   1.0329
  1.0435   1.0635   1.0902   1.0999   1.1245   1.1291   1.1400   1.1500
  1.1732   1.1943   1.2026   1.2078   1.2093   1.2306   1.2361   1.2689
  1.2771   1.2851   1.2893   1.2924   1.3065   1.3383   1.3409   1.3557
  1.3679   1.3824   1.4021   1.4284   1.4576   1.5111   1.5128   1.5537
  1.6382   1.6694   1.6865   1.6970   1.7163   1.7299   1.7324   1.7510
  1.7529   1.7729   1.7801   1.8032   1.8193   1.8341   1.8493   1.8737
  1.8871   1.8992   1.9011   1.9137   1.9221   1.9310   1.9507   1.9719
  1.9762   2.0290   2.0335   2.0644   2.0821   2.0940   2.1069   2.1378
  2.1723   2.2101   2.2265   2.2554   2.3233   2.3483   2.3737   2.3848
  2.4372   2.4561   2.4868   2.5021   2.5153   2.5358   2.5720   2.5760
  2.6356   2.7171   2.7219   2.7410   2.7627   2.7806   2.7974   2.8197
  2.8247   2.8805   2.9157   2.9460   2.9476   2.9658   2.9691   2.9746
  2.9843   2.9856   3.0025   3.0184   3.0303   3.0404   3.0435   3.0519
  3.0647   3.0764   3.1036   3.1257   3.1280   3.1393   3.1460   3.1569
  3.1667   3.2023   3.2082   3.2177   3.2238   3.2904   3.2925   3.2997
  3.3278   3.3426   3.3555   3.3581   3.3770   3.4206   3.4395   3.4528
  3.4830   3.5124   3.5140   3.5280   3.5295   3.5611   3.5788   3.6323
  3.6387   3.6867   3.6911   3.7176   3.7414   3.7623   3.7678   3.8024
  3.8042   3.8141   3.8164   3.8387   3.8723   3.8962   3.9640   3.9983
  4.0390   4.0419   4.0544   4.0556   4.1091   4.1468   4.2005   4.2191
  4.2894   4.3020   4.3158   4.3716   4.3787   4.3864   4.3923   4.4284
  4.4845   4.6306   4.6549   4.7066   4.7358   4.7821   4.7976   4.8119
  4.9607   4.9842   4.9866   5.0618   5.0914   5.1008   5.1132   5.1182
  5.1779   5.1898   5.2007   5.2417   5.2465   5.2529   5.2538   5.2966
  5.3058   5.3259   5.3291   5.3520   5.4154   5.4772   5.5532   5.5803
  5.6246   5.6549   5.6809   5.7122   5.7132   5.7323   5.7746   5.8859
  5.9334   5.9395   5.9748   6.0711   6.0715   6.1568   6.1915   6.2550
  6.2634   6.3274   6.3291   6.4116   6.4123   6.4238   6.4310   6.4487
  6.4827   6.5226   6.5417   6.5431   6.5548   6.5790   6.6000   6.6174
  6.6631   6.7852   6.8580   6.8627   6.8816   6.9582   6.9785   7.0431
  7.0462   7.0524   7.0725   7.1020   7.2130   7.2303   7.2888   7.3229
  7.3407   7.4961   7.6002   7.6569   7.8750   7.8765  23.6634  23.6832
 24.0270  24.3342  44.0676  44.1513  44.3550  44.4049  44.4458
 --------------------------------------------------------------
 
          Ground-State Mulliken Net Atomic Charges

     Atom                 Charge (a.u.)
  ----------------------------------------
      1 O                    -0.306368
      2 C                     0.634428
      3 O                    -0.309663
      4 O                    -0.333261
      5 O                     0.021475
      6 C                     0.704649
      7 O                    -0.106296
      8 C                    -0.049197
      9 C                     0.148186
     10 H                     0.370186
     11 H                     0.060459
     12 H                     0.062184
     13 H                     0.052498
     14 H                     0.050721
  ----------------------------------------
  Sum of atomic charges =     1.000000

  Building new vdw surfaces
         Merz-Kollman RESP Net Atomic Charges

     Atom                 Charge (a.u.)
  ----------------------------------------
      1 O                    -0.386179
      2 C                     0.723939
      3 O                    -0.366564
      4 O                    -0.205368
      5 O                    -0.095990
      6 C                     0.778557
      7 O                    -0.209266
      8 C                    -0.269146
      9 C                    -0.269146
     10 H                     0.524297
     11 H                     0.193716
     12 H                     0.193716
     13 H                     0.193716
     14 H                     0.193716
  ----------------------------------------
  Sum of atomic charges =     1.000000

  Related Dipole Moment =    21.2717 (X -15.6903 Y 14.3606 Z  0.2685)

 -----------------------------------------------------------------
                    Cartesian Multipole Moments
 -----------------------------------------------------------------
    Charge (ESU x 10^10)
                 4.8032
    Dipole Moment (Debye)
         X     -15.6761      Y      14.3923      Z       0.2760
       Tot      21.2827
    Quadrupole Moments (Debye-Ang)
        XX      -9.3555     XY     -29.9939     YY     -21.2637
        XZ      -1.3179     YZ       1.0028     ZZ     -45.9019
    Octopole Moments (Debye-Ang^2)
       XXX    -354.3350    XXY     116.5052    XYY    -170.0909
       YYY     129.0129    XXZ       4.1177    XYZ      -2.6024
       YYZ       0.1845    XZZ     -58.0071    YZZ       3.0274
       ZZZ      -2.4167
    Hexadecapole Moments (Debye-Ang^3)
      XXXX   -1992.0076   XXXY     307.7317   XXYY    -426.1274
      XYYY     599.5239   YYYY   -1184.1413   XXXZ     -30.6746
      XXYZ      14.8297   XYYZ     -14.5033   YYYZ      14.3673
      XXZZ    -415.7613   XYZZ     235.6082   YYZZ    -223.2623
      XZZZ     -10.6346   YZZZ       4.9393   ZZZZ     -54.3616
 -----------------------------------------------------------------
 Calculating analytic gradient of the SCF energy
 Gradient of CDS energy
            1           2           3           4           5           6
    1  -0.0007439   0.0012349  -0.0006583  -0.0000498   0.0001411   0.0006311
    2   0.0000197  -0.0003477   0.0002952   0.0004066  -0.0001261   0.0002128
    3  -0.0000323   0.0000671  -0.0000432   0.0000026   0.0000212  -0.0000360
            7           8           9          10          11          12
    1  -0.0003687  -0.0010772   0.0011086  -0.0003016   0.0001367   0.0001446
    2  -0.0006314  -0.0011494   0.0009909   0.0004292   0.0000566   0.0000482
    3   0.0000015   0.0000054  -0.0000279   0.0000376   0.0002417  -0.0002395
           13          14
    1  -0.0001282  -0.0000693
    2  -0.0000753  -0.0001295
    3  -0.0002381   0.0002399
 Gradient of SCF Energy
            1           2           3           4           5           6
    1  -0.0078248  -0.0027778   0.0093244   0.0062937   0.1546442  -0.0494238
    2  -0.0305012   0.0001513   0.0312724  -0.0084837  -0.0316060   0.0017371
    3   0.0010135  -0.0001178  -0.0009916   0.0002800  -0.0114182   0.0021989
            7           8           9          10          11          12
    1  -0.0426995   0.0236295  -0.0096919  -0.0609217  -0.0166588  -0.0180641
    2   0.0697349   0.0206997  -0.0274656  -0.0406924  -0.0093865  -0.0077842
    3   0.0063502   0.0004156   0.0009431   0.0028081  -0.0318017   0.0314680
           13          14
    1   0.0065891   0.0075814
    2   0.0166834   0.0156408
    3   0.0295988  -0.0307469
 Max gradient component =       1.546E-01
 RMS gradient           =       3.409E-02
 Computing fast CPCM-SWIG gradient
 Updating gradient with PCM contributions...
 -- total gradient after adding PCM contribution --
---------------------------------------------------
  Atom         X              Y              Z     
---------------------------------------------------
   1      -0.000035       0.000009       0.000063
   2      -0.000087      -0.000030      -0.000139
   3      -0.000018      -0.000001       0.000067
   4       0.000160      -0.000084       0.000039
   5      -0.000151       0.000029       0.000412
   6       0.000103      -0.000148      -0.000344
   7       0.000058       0.000135      -0.000091
   8       0.000004      -0.000062       0.000136
   9      -0.000002      -0.000105       0.000712
  10      -0.000039       0.000034       0.000052
  11      -0.000057      -0.000080      -0.000163
  12       0.000050      -0.000048       0.000005
  13      -0.000147      -0.000002      -0.000076
  14       0.000160       0.000354      -0.000673
---------------------------------------------------
 Number of fixed atoms: 0
 Gradient time:  CPU 552.88 s  wall 27.08 s
 Geometry Optimization Parameters
   NAtoms,    NIC,     NZ,  NCons,   NDum,   NFix, NCnnct, MaxDiis
       14     230       0       0       0       0       0       0

 Cartesian Hessian Update
 Hessian updated using BFGS update
**WARNING** Hereditary positive definiteness endangered
 due to small product of step size times gradient change


** GEOMETRY OPTIMIZATION IN DELOCALIZED INTERNAL COORDINATES **
   Searching for a Minimum

   Optimization Cycle:   4

[...]
  5.3070   5.3244   5.3281   5.3531   5.4180   5.4764   5.5543   5.5810
  5.6215   5.6547   5.6819   5.7132   5.7143   5.7334   5.7745   5.8870
  5.9326   5.9391   5.9739   6.0698   6.0715   6.1560   6.1904   6.2539
  6.2624   6.3281   6.3304   6.4122   6.4157   6.4247   6.4300   6.4519
  6.4840   6.5221   6.5389   6.5437   6.5551   6.5781   6.6005   6.6185
  6.6682   6.7877   6.8589   6.8649   6.8817   6.9598   6.9798   7.0430
  7.0454   7.0529   7.0720   7.0996   7.2122   7.2339   7.2925   7.3237
  7.3347   7.4950   7.5980   7.6560   7.8738   7.8766  23.6677  23.7003
 24.0177  24.3338  44.0681  44.1542  44.3504  44.4053  44.4489
 --------------------------------------------------------------
 
          Ground-State Mulliken Net Atomic Charges

     Atom                 Charge (a.u.)
  ----------------------------------------
      1 O                    -0.303930
      2 C                     0.628451
      3 O                    -0.309849
      4 O                    -0.350178
      5 O                     0.021089
      6 C                     0.705519
      7 O                    -0.106837
      8 C                    -0.052814
      9 C                     0.181585
     10 H                     0.369848
     11 H                     0.060292
     12 H                     0.060747
     13 H                     0.048182
     14 H                     0.047894
  ----------------------------------------
  Sum of atomic charges =     1.000000

  Building new vdw surfaces
         Merz-Kollman RESP Net Atomic Charges

     Atom                 Charge (a.u.)
  ----------------------------------------
      1 O                    -0.391612
      2 C                     0.740097
      3 O                    -0.371711
      4 O                    -0.220546
      5 O                    -0.096457
      6 C                     0.776001
      7 O                    -0.205683
      8 C                    -0.257537
      9 C                    -0.257537
     10 H                     0.522154
     11 H                     0.190708
     12 H                     0.190708
     13 H                     0.190708
     14 H                     0.190708
  ----------------------------------------
  Sum of atomic charges =     1.000000

  Related Dipole Moment =    20.5571 (X -14.9305 Y 14.1283 Z  0.2529)

 -----------------------------------------------------------------
                    Cartesian Multipole Moments
 -----------------------------------------------------------------
    Charge (ESU x 10^10)
                 4.8032
    Dipole Moment (Debye)
         X     -14.9134      Y      14.1552      Z       0.2594
       Tot      20.5632
    Quadrupole Moments (Debye-Ang)
        XX     -11.6102     XY     -27.3451     YY     -23.3019
        XZ      -1.1611     YZ       0.6180     ZZ     -45.9069
    Octopole Moments (Debye-Ang^2)
       XXX    -330.8378    XXY     104.0269    XYY    -163.0768
       YYY     122.0975    XXZ       3.3527    XYZ      -2.7953
       YYZ       0.5045    XZZ     -57.8563    YZZ       2.3438
       ZZZ      -2.2036
    Hexadecapole Moments (Debye-Ang^3)
      XXXX   -1958.3914   XXXY     333.8844   XXYY    -457.4659
      XYYY     591.0588   YYYY   -1143.5688   XXXZ     -33.5165
      XXYZ      10.0795   XYYZ     -10.4151   YYYZ      10.0471
      XXZZ    -402.6009   XYZZ     222.8088   YYZZ    -215.5513
      XZZZ     -12.7077   YZZZ       4.6162   ZZZZ     -55.2128
 -----------------------------------------------------------------
 Calculating analytic gradient of the SCF energy
 Gradient of CDS energy
            1           2           3           4           5           6
    1  -0.0007156   0.0012333  -0.0006597  -0.0000263   0.0000926   0.0006284
    2  -0.0000448  -0.0002415   0.0002248   0.0004281  -0.0001130   0.0002394
    3  -0.0000445   0.0000777  -0.0000420   0.0000131  -0.0000022  -0.0000375
            7           8           9          10          11          12
    1  -0.0003437  -0.0011221   0.0010934  -0.0003180   0.0001407   0.0001473
    2  -0.0006450  -0.0010463   0.0009592   0.0004131   0.0000449   0.0000407
    3  -0.0000308  -0.0000063  -0.0000043   0.0000724   0.0002423  -0.0002391
           13          14
    1  -0.0000716  -0.0000786
    2  -0.0001316  -0.0001281
    3  -0.0002395   0.0002409
 Gradient of SCF Energy
            1           2           3           4           5           6
    1  -0.0057419  -0.0023114   0.0071696   0.0045030   0.1553888  -0.0489966
    2  -0.0323887  -0.0002838   0.0335945  -0.0072412  -0.0268012   0.0021970
    3  -0.0002583  -0.0001218   0.0003176   0.0000620  -0.0179835   0.0043111
            7           8           9          10          11          12
    1  -0.0456801   0.0273917  -0.0126759  -0.0591036  -0.0175947  -0.0189359
    2   0.0671965   0.0194055  -0.0281625  -0.0434708  -0.0085736  -0.0069734
    3   0.0120308   0.0007822  -0.0004759   0.0015076  -0.0334135   0.0329321
           13          14
    1   0.0079636   0.0086234
    2   0.0163210   0.0151805
    3   0.0307309  -0.0304212
 Max gradient component =       1.554E-01
 RMS gradient           =       3.439E-02
 Computing fast CPCM-SWIG gradient
 Updating gradient with PCM contributions...
 -- total gradient after adding PCM contribution --
---------------------------------------------------
  Atom         X              Y              Z     
---------------------------------------------------
   1      -0.000002      -0.000007       0.000047
   2       0.000003      -0.000031      -0.000095
   3      -0.000001       0.000044       0.000047
   4      -0.000001      -0.000018      -0.000071
   5      -0.000038      -0.000014      -0.000007
   6       0.000039       0.000024       0.000035
   7      -0.000031      -0.000009      -0.000020
   8      -0.000030      -0.000012       0.000114
   9      -0.000049      -0.000034      -0.000405
  10      -0.000001      -0.000001      -0.000007
  11       0.000026      -0.000009      -0.000011
  12      -0.000008       0.000006      -0.000031
  13       0.000076       0.000162       0.000297
  14       0.000016      -0.000100       0.000106
---------------------------------------------------
 Number of fixed atoms: 0
 Gradient time:  CPU 514.31 s  wall 25.96 s
 Geometry Optimization Parameters
   NAtoms,    NIC,     NZ,  NCons,   NDum,   NFix, NCnnct, MaxDiis
       14     230       0       0       0       0       0       0

 Cartesian Hessian Update
 Hessian updated using BFGS update


** GEOMETRY OPTIMIZATION IN DELOCALIZED INTERNAL COORDINATES **
   Searching for a Minimum

   Optimization Cycle:  14

                       Coordinates (Angstroms)
     ATOM                X               Y               Z
      1  O         4.1950273101   -3.1452599080    0.1068380808
      2  C         4.3879990982   -2.0023581909    0.1150265170
      3  O         4.6160114534   -0.8651829983    0.1259158049
      4  O         1.6423327964   -1.2960938573   -0.0588589007
      5  O        -0.8306930824    2.5263581394   -0.1267666672
      6  C        -1.9190699274    2.7710028375    0.0043884721
      7  O        -3.0662768562    3.1520597432    0.1547237560
      8  C         0.3081594866   -0.7845675986   -0.0811767992
      9  C         1.4559952627    0.1199021898   -0.0734453786
     10  H        -3.7822361786    2.4526364528    0.1548662883
     11  H        -0.2307172919   -0.9566557906   -1.0096013456
     12  H        -0.2559943479   -0.9406579754    0.8349820681
     13  H         1.7316382350    0.6266304766    0.8488176499
     14  H         1.7570285674    0.6103610085   -0.9957095484
   Point Group: c1    Number of degrees of freedom:    36


   Energy is   -531.344092749

 Hessian updated using BFGS update

 36 Hessian modes will be used to form the next step
  Hessian Eigenvalues:
     0.000028    0.000051    0.000087    0.000112    0.000251    0.000407
     0.000690    0.000787    0.001780    0.002669    0.006909    0.011062
     0.011464    0.012089    0.012304    0.014558    0.014859    0.017380
     0.018047    0.018188    0.024171    0.052399    0.105202    0.111624
     0.116269    0.131258    0.235278    0.258793    0.268149    0.270598
     0.335993    0.400713    0.801199    0.915415    1.142948    1.339133
**WARNING** Magnitude of eigenvalue   1 too small.  Replaced by     0.000100
**WARNING** Magnitude of eigenvalue   2 too small.  Replaced by     0.000100
**WARNING** Magnitude of eigenvalue   3 too small.  Replaced by     0.000100

 Minimum search - taking simple RFO step
 Searching for Lamda that Minimizes Along All modes
 Value Taken    Lamda =  -0.00000177
 Step Taken.  Stepsize is  0.084772

                             Maximum     Tolerance    Cnvgd?
         Gradient           0.000193      0.000300     YES
         Displacement       0.031736      0.001200      NO
         Energy change      0.000000      0.000001     YES


                       Distance Matrix (Angstroms)
             O (  1)   C (  2)   O (  3)   O (  4)   O (  5)   C (  6)
   C (  2)  1.159107
   O (  3)  2.318694  1.159860
   O (  4)  3.156441  2.840375  3.010414
   O (  5)  7.581536  6.913934  6.421292  4.553198
   C (  6)  8.508516  7.910521  7.479566  5.406373  1.123217
   O (  7)  9.611715  9.062882  8.669292  6.480948  2.338498  1.218150
   C (  8)  4.551479  4.262230  4.313580  1.429047  3.501613  4.196421
   C (  9)  4.265687  3.624384  3.315998  1.428278  3.320063  4.292489
   H ( 10)  9.745537  9.305982  9.029913  6.597318  2.965866  1.896151
   H ( 11)  5.061980  4.867322  4.978810  2.127780  3.642905  4.215940
   H ( 12)  5.020165  4.817906  4.923912  2.128129  3.643548  4.151160
   H ( 13)  4.565739  3.808712  3.326816  2.128079  3.335607  4.317298
   H ( 14)  4.611305  3.870664  3.407207  2.127302  3.335028  4.379757
             O (  7)   C (  8)   C (  9)   H ( 10)   H ( 11)   H ( 12)
   C (  8)  5.190328
   C (  9)  5.449494  1.461387
   H ( 10)  1.000895  5.221738  5.738714
   H ( 11)  5.126168  1.087187  2.209155  5.058907
   H ( 12)  5.011066  1.087189  2.209284  4.940788  1.844826
   H ( 13)  5.466219  2.209675  1.087806  5.849673  3.132308  2.531258
   H ( 14)  5.572074  2.209393  1.087080  5.949896  2.531179  3.131989
             H ( 13)
   H ( 14)  1.844774
 
 Final energy is   -531.344092749064     


 ******************************
 **  OPTIMIZATION CONVERGED  **
 ******************************

                       Coordinates (Angstroms)
     ATOM                X               Y               Z
      1  O         4.1950273101   -3.1452599080    0.1068380808
      2  C         4.3879990982   -2.0023581909    0.1150265170
      3  O         4.6160114534   -0.8651829983    0.1259158049
      4  O         1.6423327964   -1.2960938573   -0.0588589007
      5  O        -0.8306930824    2.5263581394   -0.1267666672
      6  C        -1.9190699274    2.7710028375    0.0043884721
      7  O        -3.0662768562    3.1520597432    0.1547237560
      8  C         0.3081594866   -0.7845675986   -0.0811767992
      9  C         1.4559952627    0.1199021898   -0.0734453786
     10  H        -3.7822361786    2.4526364528    0.1548662883
     11  H        -0.2307172919   -0.9566557906   -1.0096013456
     12  H        -0.2559943479   -0.9406579754    0.8349820681
     13  H         1.7316382350    0.6266304766    0.8488176499
     14  H         1.7570285674    0.6103610085   -0.9957095484

Z-matrix Print:
$molecule
1 1
O 
C  1 1.428278
H  2 1.087080 1 114.823712
H  2 1.087806 1 114.841104 3 -138.337700 0
C  1 1.429047 2 61.521290 3 -110.852215 0
H  5 1.087187 1 114.798781 2 110.814206 0
H  5 1.087189 1 114.828780 2 -110.814265 0
C  1 2.840375 2 111.916297 3 71.995041 0
O  8 1.159107 1 94.807654 2 179.920566 0
O  8 1.159860 1 86.951420 2 -0.055102 0
O  2 3.320063 1 143.960307 3 110.792949 0
C  11 1.123217 2 145.424675 1 13.513862 0
O  12 1.218150 11 174.322272 2 164.303726 0
H  13 1.000895 12 117.070247 11 179.892306 0
$end

 
 --------------------------------------------------------------
 
                    Orbital Energies (a.u.)
 --------------------------------------------------------------
 
 Alpha MOs
 -- Occupied --
-19.4651 -19.4362 -19.2886 -19.2884 -19.2353 -10.6099 -10.4550 -10.3228
-10.3220  -1.4473  -1.4062  -1.2911  -1.2469  -1.2135  -0.9396  -0.8106
 -0.7853  -0.7669  -0.7665  -0.7607  -0.6802  -0.6560  -0.6363  -0.6354
 -0.6337  -0.6318  -0.6242  -0.5954  -0.5092  -0.4900  -0.4759  -0.4751
 -0.4276  -0.3905
 -- Virtual --
 -0.0327  -0.0071   0.0021   0.0447   0.0629   0.0724   0.0794   0.0801
  0.0879   0.0949   0.1048   0.1088   0.1185   0.1199   0.1269   0.1290
  0.1321   0.1358   0.1378   0.1427   0.1526   0.1618   0.1685   0.1728
  0.1805   0.1826   0.1928   0.1999   0.2151   0.2234   0.2285   0.2377
  0.2410   0.2558   0.2563   0.2616   0.2675   0.2730   0.2834   0.2953
  0.3041   0.3064   0.3162   0.3192   0.3208   0.3270   0.3326   0.3388
  0.3436   0.3482   0.3656   0.3671   0.3712   0.3757   0.3820   0.3877
  0.3929   0.3958   0.4005   0.4060   0.4081   0.4124   0.4219   0.4293
  0.4341   0.4379   0.4433   0.4518   0.4602   0.4623   0.4646   0.4809
  0.4882   0.4933   0.4975   0.4992   0.5072   0.5140   0.5313   0.5351
  0.5395   0.5503   0.5521   0.5565   0.5701   0.5738   0.5826   0.5895
  0.5969   0.6001   0.6034   0.6049   0.6229   0.6299   0.6422   0.6599
  0.6728   0.6777   0.6905   0.6984   0.7156   0.7206   0.7293   0.7377
  0.7595   0.7769   0.7816   0.7825   0.7864   0.7902   0.7938   0.8036
  0.8074   0.8130   0.8325   0.8381   0.8666   0.8798   0.8818   0.8939
  0.8976   0.9081   0.9116   0.9273   0.9372   0.9414   0.9585   0.9702
  0.9829   0.9903   0.9916   0.9949   1.0011   1.0125   1.0212   1.0305
  1.0433   1.0680   1.0840   1.0981   1.1180   1.1259   1.1303   1.1479
  1.1721   1.1958   1.2039   1.2087   1.2113   1.2273   1.2366   1.2689
  1.2777   1.2866   1.2874   1.2998   1.3213   1.3395   1.3438   1.3549
  1.3745   1.3841   1.4066   1.4352   1.4505   1.5118   1.5151   1.5593
  1.6327   1.6696   1.6864   1.7019   1.7153   1.7165   1.7313   1.7533
  1.7563   1.7756   1.7870   1.8019   1.8211   1.8304   1.8468   1.8801
  1.8880   1.9010   1.9069   1.9137   1.9195   1.9382   1.9517   1.9774
  1.9837   2.0238   2.0301   2.0652   2.0891   2.0965   2.1048   2.1308
  2.1718   2.2114   2.2216   2.2526   2.3146   2.3445   2.3750   2.3848
  2.4266   2.4628   2.4904   2.5019   2.5115   2.5435   2.5744   2.5773
  2.6373   2.7189   2.7243   2.7472   2.7595   2.7764   2.8016   2.8165
  2.8234   2.8805   2.9191   2.9443   2.9479   2.9671   2.9682   2.9728
  2.9822   2.9909   3.0016   3.0137   3.0292   3.0397   3.0471   3.0511
  3.0662   3.0752   3.1062   3.1243   3.1340   3.1364   3.1553   3.1591
  3.1779   3.1996   3.2049   3.2124   3.2312   3.2908   3.2946   3.3025
  3.3268   3.3411   3.3571   3.3583   3.3906   3.4214   3.4351   3.4603
  3.4838   3.5130   3.5162   3.5283   3.5291   3.5641   3.5839   3.6234
  3.6370   3.6808   3.6921   3.7226   3.7468   3.7642   3.7718   3.7983
  3.8035   3.8154   3.8178   3.8394   3.8753   3.8976   3.9640   4.0000
  4.0394   4.0420   4.0475   4.0626   4.1106   4.1474   4.2016   4.2172
  4.2922   4.3042   4.3283   4.3731   4.3805   4.3870   4.3934   4.4370
  4.4849   4.6403   4.6583   4.7062   4.7349   4.7806   4.7961   4.8120
  4.9610   4.9842   4.9860   5.0632   5.0922   5.1022   5.1169   5.1207
  5.1774   5.1883   5.2020   5.2419   5.2458   5.2524   5.2547   5.2983
  5.3070   5.3244   5.3281   5.3531   5.4180   5.4764   5.5543   5.5810
  5.6215   5.6547   5.6819   5.7132   5.7143   5.7334   5.7745   5.8870
  5.9326   5.9391   5.9739   6.0698   6.0715   6.1560   6.1904   6.2539
  6.2624   6.3281   6.3304   6.4122   6.4157   6.4247   6.4300   6.4519
  6.4840   6.5221   6.5389   6.5437   6.5551   6.5781   6.6005   6.6185
  6.6682   6.7877   6.8589   6.8649   6.8817   6.9598   6.9798   7.0430
  7.0454   7.0529   7.0720   7.0996   7.2122   7.2339   7.2925   7.3237
  7.3347   7.4950   7.5980   7.6560   7.8738   7.8766  23.6677  23.7003
 24.0177  24.3338  44.0681  44.1542  44.3504  44.4053  44.4489
 --------------------------------------------------------------
 
          Ground-State Mulliken Net Atomic Charges

     Atom                 Charge (a.u.)
  ----------------------------------------
      1 O                    -0.303930
      2 C                     0.628451
      3 O                    -0.309849
      4 O                    -0.350178
      5 O                     0.021089
      6 C                     0.705519
      7 O                    -0.106837
      8 C                    -0.052814
      9 C                     0.181585
     10 H                     0.369848
     11 H                     0.060292
     12 H                     0.060747
     13 H                     0.048182
     14 H                     0.047894
  ----------------------------------------
  Sum of atomic charges =     1.000000

         Merz-Kollman RESP Net Atomic Charges

     Atom                 Charge (a.u.)
  ----------------------------------------
      1 O                    -0.391612
      2 C                     0.740097
      3 O                    -0.371711
      4 O                    -0.220546
      5 O                    -0.096457
      6 C                     0.776001
      7 O                    -0.205683
      8 C                    -0.257537
      9 C                    -0.257537
     10 H                     0.522154
     11 H                     0.190708
     12 H                     0.190708
     13 H                     0.190708
     14 H                     0.190708
  ----------------------------------------
  Sum of atomic charges =     1.000000

  Related Dipole Moment =    20.5571 (X -14.9305 Y 14.1283 Z  0.2529)

 -----------------------------------------------------------------
                    Cartesian Multipole Moments
 -----------------------------------------------------------------
    Charge (ESU x 10^10)
                 4.8032
    Dipole Moment (Debye)
         X     -14.9134      Y      14.1552      Z       0.2594
       Tot      20.5632
    Quadrupole Moments (Debye-Ang)
        XX     -11.6102     XY     -27.3451     YY     -23.3019
        XZ      -1.1611     YZ       0.6180     ZZ     -45.9069
    Octopole Moments (Debye-Ang^2)
       XXX    -330.8378    XXY     104.0269    XYY    -163.0768
       YYY     122.0975    XXZ       3.3527    XYZ      -2.7953
       YYZ       0.5045    XZZ     -57.8563    YZZ       2.3438
       ZZZ      -2.2036
    Hexadecapole Moments (Debye-Ang^3)
      XXXX   -1958.3914   XXXY     333.8844   XXYY    -457.4659
      XYYY     591.0588   YYYY   -1143.5688   XXXZ     -33.5165
      XXYZ      10.0795   XYYZ     -10.4151   YYYZ      10.0471
      XXZZ    -402.6009   XYZZ     222.8088   YYZZ    -215.5513
      XZZZ     -12.7077   YZZZ       4.6162   ZZZZ     -55.2128
 -----------------------------------------------------------------
Archival summary:
1\1\nid01744\OPT\ProcedureUnspecified\BasisUnspecified\545(1+,1)\sblau\WedJul1710:19:342019WedJul1710:19:342019\0\\#,OPT,ProcedureUnspecified,BasisUnspecified,\\1,1\O\C,1,1.42828\H,2,1.08708,1,114.824\H,2,1.08781,1,114.841,3,-138.338,0\C,1,1.42905,2,61.5213,3,-110.852,0\H,5,1.08719,1,114.799,2,110.814,0\H,5,1.08719,1,114.829,2,-110.814,0\C,1,2.84037,2,111.916,3,71.995,0\O,8,1.15911,1,94.8077,2,179.921,0\O,8,1.15986,1,86.9514,2,-0.0551021,0\O,2,3.32006,1,143.96,3,110.793,0\C,11,1.12322,2,145.425,1,13.5139,0\O,12,1.21815,11,174.322,2,164.304,0\H,13,1.00089,12,117.07,11,179.892,0\\\@

 Total job time:  2016.26s(wall), 47478.74s(cpu) 
 Wed Jul 17 10:19:34 2019

        *************************************************************
        *                                                           *
        *  Thank you very much for using Q-Chem.  Have a nice day.  *
        *                                                           *
        *************************************************************


