
Running Job 1 of 1 mol.qin
qchem mol.qin_17252.0 /tmp/scratch/ 0
/clusterfs/mp/software/qchem/exe/qcprog.exe_s mol.qin_17252.0 /tmp/scratch/
                  Welcome to Q-Chem
     A Quantum Leap Into The Future Of Chemistry


 Q-Chem 5.2, Q-Chem, Inc., Pleasanton, CA (2019)

 Yihan Shao,  Zhengting Gan,  E. Epifanovsky,  A. T. B. Gilbert,  M. Wormit,  
 J. Kussmann,  A. W. Lange,  A. Behn,  Jia Deng,  Xintian Feng,  D. Ghosh,  
 M. Goldey,  P. R. Horn,  L. D. Jacobson,  I. Kaliman,  T. Kus,  A. Landau,  
 Jie Liu,  E. I. Proynov,  R. M. Richard,  R. P. Steele,  E. J. Sundstrom,  
 H. L. Woodcock III,  P. M. Zimmerman,  D. Zuev,  B. Alam,  B. Albrecht,  
 E. Alguire,  S. A. Baeppler,  D. Barton,  Z. Benda,  Y. A. Bernard,  
 E. J. Berquist,  K. B. Bravaya,  H. Burton,  K. Carter-Fenk,  D. Casanova,  
 Chun-Min Chang,  Yunqing Chen,  A. Chien,  K. D. Closser,  M. P. Coons,  
 S. Coriani,  S. Dasgupta,  A. L. Dempwolff,  M. Diedenhofen,  Hainam Do,  
 R. G. Edgar,  Po-Tung Fang,  S. Faraji,  S. Fatehi,  Qingguo Feng,  
 J. Fosso-Tande,  J. Gayvert,  Qinghui Ge,  A. Ghysels,  G. Gidofalvi,  
 J. Gomes,  J. Gonthier,  A. Gunina,  D. Hait,  M. W. D. Hanson-Heine,  
 P. H. P. Harbach,  A. W. Hauser,  M. F. Herbst,  J. E. Herr,  
 E. G. Hohenstein,  Z. C. Holden,  Kerwin Hui,  B. C. Huynh,  T.-C. Jagau,  
 Hyunjun Ji,  B. Kaduk,  K. Khistyaev,  Jaehoon Kim,  P. Klunzinger,  K. Koh,  
 D. Kosenkov,  L. Koulias,  T. Kowalczyk,  C. M. Krauter,  A. Kunitsa,  
 Ka Un Lao,  A. Laurent,  K. V. Lawler,  Joonho Lee,  D. Lefrancois,  
 S. Lehtola,  D. S. Levine,  Yi-Pei Li,  You-Sheng Lin,  Fenglai Liu,  
 Kuan-Yu Liu,  E. Livshits,  M. Loipersberger,  A. Luenser,  P. Manohar,  
 E. Mansoor,  S. F. Manzer,  Shan-Ping Mao,  Yuezhi Mao,  N. Mardirossian,  
 A. V. Marenich,  T. Markovich,  L. A. Martinez-Martinez,  S. A. Maurer,  
 N. J. Mayhall,  S. C. McKenzie,  J.-M. Mewes,  P. Morgante,  A. F. Morrison,  
 J. W. Mullinax,  K. Nanda,  T. S. Nguyen-Beck,  R. Olivares-Amaya,  
 J. A. Parkhill,  S. K. Paul,  Zheng Pei,  T. M. Perrine,  F. Plasser,  
 P. Pokhilko,  S. Prager,  A. Prociuk,  E. Ramos,  B. Rana,  D. R. Rehn,  
 F. Rob,  M. Scheurer,  M. Schneider,  N. Sergueev,  S. M. Sharada,  
 S. Sharma,  D. W. Small,  T. Stauch,  C. J. Stein,  T. Stein,  Yu-Chuan Su,  
 S. P. Veccham,  A. J. W. Thom,  A. Tkatchenko,  T. Tsuchimochi,  
 N. M. Tubman,  L. Vogt,  M. L. Vidal,  O. Vydrov,  M. A. Watson,  J. Wenzel,  
 M. de Wergifosse,  T. A. Wesolowski,  A. White,  J. Witte,  A. Yamada,  
 Jun Yang,  K. Yao,  S. Yeganeh,  S. R. Yost,  Zhi-Qiang You,  A. Zech,  
 Igor Ying Zhang,  Xing Zhang,  Yan Zhao,  Ying Zhu,  B. R. Brooks,  
 G. K. L. Chan,  C. J. Cramer,  M. S. Gordon,  W. J. Hehre,  A. Klamt,  
 M. W. Schmidt,  C. D. Sherrill,  D. G. Truhlar,  A. Aspuru-Guzik,  R. Baer,  
 A. T. Bell,  N. A. Besley,  Jeng-Da Chai,  A. E. DePrince, III,  
 R. A. DiStasio Jr.,  A. Dreuw,  B. D. Dunietz,  T. R. Furlani,  
 Chao-Ping Hsu,  Yousung Jung,  Jing Kong,  D. S. Lambrecht,  WanZhen Liang,  
 C. Ochsenfeld,  V. A. Rassolov,  L. V. Slipchenko,  J. E. Subotnik,  
 T. Van Voorhis,  J. M. Herbert,  A. I. Krylov,  P. M. W. Gill,  M. Head-Gordon

 Contributors to earlier versions of Q-Chem not listed above: 
 R. D. Adamson,  B. Austin,  J. Baker,  G. J. O. Beran,  K. Brandhorst,  
 S. T. Brown,  E. F. C. Byrd,  A. K. Chakraborty,  C.-L. Cheng,  
 Siu Hung Chien,  D. M. Chipman,  D. L. Crittenden,  H. Dachsel,  
 R. J. Doerksen,  A. D. Dutoi,  L. Fusti-Molnar,  W. A. Goddard III,  
 A. Golubeva-Zadorozhnaya,  S. R. Gwaltney,  G. Hawkins,  A. Heyden,  
 S. Hirata,  G. Kedziora,  F. J. Keil,  C. Kelley,  Jihan Kim,  R. A. King,  
 R. Z. Khaliullin,  P. P. Korambath,  W. Kurlancheek,  A. M. Lee,  M. S. Lee,  
 S. V. Levchenko,  Ching Yeh Lin,  D. Liotard,  R. C. Lochan,  I. Lotan,  
 P. E. Maslen,  N. Nair,  D. P. O'Neill,  D. Neuhauser,  E. Neuscamman,  
 C. M. Oana,  R. Olson,  B. Peters,  R. Peverati,  P. A. Pieniazek,  
 Y. M. Rhee,  J. Ritchie,  M. A. Rohrdanz,  E. Rosta,  N. J. Russ,  
 H. F. Schaefer III,  N. E. Schultz,  N. Shenvi,  A. C. Simmonett,  A. Sodt,  
 D. Stuck,  K. S. Thanthiriwatte,  V. Vanovschi,  Tao Wang,  A. Warshel,  
 C. F. Williams,  Q. Wu,  X. Xu,  W. Zhang

 Please cite Q-Chem as follows:
 Y. Shao et al., Mol. Phys. 113, 184-215 (2015)
 DOI: 10.1080/00268976.2014.952696

 Q-Chem 5.2.2 for Intel X86 EM64T Linux

 Parts of Q-Chem use Armadillo 8.300.2 (Tropical Shenanigans).
 http://arma.sourceforge.net/

 Q-Chem begins on Wed Nov 11 09:00:20 2020  

Host: 
0

     Scratch files written to /tmp/scratch//
 Nov2519 |scratch|qcdevops|jenkins|workspace|build_RNUM 6829   
Processing $rem in /clusterfs/mp/software/qchem/config/preferences:
	 MEM_TOTAL  96000 
NAlpha2: 30
NElect   29
Mult     2
Symmetry turned off for PCM/SM12/SMD calculation

Checking the input file for inconsistencies... 	...done.

--------------------------------------------------------------
User input:
--------------------------------------------------------------
$molecule
0 2
C      0.3960571497     -1.5958064007     -0.0282279861
O      1.2767933321     -1.8828648507     -0.7558720479
H      0.3322620130     -1.8566608950      1.0655006366
O     -1.0526227416      1.5373646072      0.1319756077
Li     -0.6250083147      3.0992048727      0.5079507896
Li     -1.2334114386      0.0300426665     -0.5591670000
$end

$rem
job_type = freq
basis = def2-svpd
max_scf_cycles = 200
gen_scfman = true
xc_grid = 3
scf_algorithm = diis
resp_charges = true
symmetry = false
sym_ignore = true
method = wb97xv
solvent_method = smd
ideriv = 1
thresh = 14
$end

$smx
solvent other
$end
--------------------------------------------------------------
 ----------------------------------------------------------------
             Standard Nuclear Orientation (Angstroms)
    I     Atom           X                Y                Z
 ----------------------------------------------------------------
    1      C       0.3960571497    -1.5958064007    -0.0282279861
    2      O       1.2767933321    -1.8828648507    -0.7558720479
    3      H       0.3322620130    -1.8566608950     1.0655006366
    4      O      -1.0526227416     1.5373646072     0.1319756077
    5      Li     -0.6250083147     3.0992048727     0.5079507896
    6      Li     -1.2334114386     0.0300426665    -0.5591670000
 ----------------------------------------------------------------
 Nuclear Repulsion Energy =          72.80031295 hartrees
 There are       15 alpha and       14 beta electrons
 Requested basis set is def2-SVPD
 There are 42 shells and 98 basis functions

 Total QAlloc Memory Limit  96000 MB
 Mega-Array Size       188 MB
 MEM_STATIC part       192 MB
 
 Citation of the SMD model:
 Marenich, A.V.; Cramer, C.J.; Truhlar, D.G.
 J. Phys. Chem. B 2009, 113, 6378-6396.
 iSolventCode=           0
 Solvent: other                                                           
 
 vradii
            1           2           3           4           5           6
    1   1.8500000   2.2940000   1.2000000   2.2940000   2.1476001   2.1476001
 Changing PCM_VDW_RADII to SMD_RADIUS
 Discretize the solute cavity surface with Lebedev spheres
	Using 110 Lebedev grid points for each H atom
	Using 194 Lebedev grid points for other atoms
	Atomic van der Waals radii will be scaled by 1.20
 Remove points where switching function is < 1.0e-08
 Keep 660 surface tesserae and discard 420 interior tesserae
 Molecular Surface Area = 155.819 Angst**2

                       Distance Matrix (Angstroms)
             C (  1)   O (  2)   H (  3)   O (  4)   Li(  5)
   O (  2)  1.177949
   H (  3)  1.126214  2.051883
   O (  4)  3.455590  4.232307  3.782695
   Li(  5)  4.834583  5.480430  5.078172  1.662395
   Li(  6)  2.362297  3.162125  2.941178  1.668047  3.305851
 
 A cutoff of  1.0D-14 yielded    881 shell pairs
 There are      4845 function pairs (      5462 Cartesian)
 Smallest overlap matrix eigenvalue = 5.13E-04
 Guess from superposition of atomic densities
 Warning:  Energy on first SCF cycle will be non-variational
 SAD guess density has 29.000000 electrons

 -----------------------------------------------------------------------
  General SCF calculation program by
  Eric Jon Sundstrom, Paul Horn, Yuezhi Mao, Dmitri Zuev, Alec White,
  David Stuck, Shaama M.S., Shane Yost, Joonho Lee, David Small,
  Daniel Levine, Susi Lehtola, Hugh Burton, Evgeny Epifanovsky,
  Bang C. Huynh
 -----------------------------------------------------------------------
 Exchange:     0.1670 Hartree-Fock + 1.0000 wB97X-V + LR-HF
 Correlation:  1.0000 wB97X-V
 Using SG-3 standard quadrature grid
 Nonlocal Correlation:  VV10 with C = 0.0100 and b = 6.00 and scale = 1.00000
 Grid used for NLC:  SG-1 standard quadrature
 
 Citation of the SMD model:
 Marenich, A.V.; Cramer, C.J.; Truhlar, D.G.
 J. Phys. Chem. B 2009, 113, 6378-6396.
 iSolventCode=           0
 Solvent: other                                                           
 
 vradii
            1           2           3           4           5           6
    1   1.8500000   2.2940000   1.2000000   2.2940000   2.1476001   2.1476001
 using 40 threads for integral computing
 -------------------------------------------------------
 OpenMP Integral computing Module                
 Release: version 1.0, May 2013, Q-Chem Inc. Pittsburgh 
 -------------------------------------------------------
 using 40 threads for integral computing
 -------------------------------------------------------
 OpenMP Integral computing Module                
 Release: version 1.0, May 2013, Q-Chem Inc. Pittsburgh 
 -------------------------------------------------------
 -------------------------------------------------------
 OpenMP BLAS3 based DFT computing Module                
 Release: version 1.0, May 2013, Q-Chem Inc. Pittsburgh 
 -------------------------------------------------------
 -------------------------------------------------------
 OpenMP BLAS3 based DFT computing Module                
 Release: version 1.0, May 2013, Q-Chem Inc. Pittsburgh 
 -------------------------------------------------------
 -------------------------------------------------------
 OpenMP BLAS3 based DFT computing Module                
 Release: version 1.0, May 2013, Q-Chem Inc. Pittsburgh 
 -------------------------------------------------------
 A unrestricted SCF calculation will be
 performed using DIIS
 SCF converges when DIIS error is below 1.0e-08
 ---------------------------------------
  Cycle       Energy         DIIS error
 ---------------------------------------
    1    -203.5184383563      2.25e-02  
    2    -203.5618640862      9.51e-03  
    3    -201.7864157111      1.95e-02  
    4    -203.9181999848      3.27e-03  
    5    -203.9540681323      2.04e-03  
    6    -203.9694618296      3.07e-04  
    7    -203.9700829971      9.79e-05  
    8    -203.9701720206      3.91e-05  
    9    -203.9701935420      1.06e-05  
   10    -203.9701982353      5.68e-06  
   11    -203.9702000428      2.56e-06  
   12    -203.9702005696      1.06e-06  
   13    -203.9702006309      3.21e-07  
   14    -203.9702006357      1.47e-07  
   15    -203.9702006364      4.85e-08  
   16    -203.9702006365      1.82e-08  
   17    -203.9702006365      7.41e-09  Convergence criterion met
 ---------------------------------------
 SCF time:   CPU 416.83s  wall 13.00s 
<S^2> =          0.753326285
(3)  G-ENP(liq) elect-nuc-pol free energy of system     -203.970200637 a.u.
(4)  G-CDS(liq) cavity-dispersion-solvent structure 
     free energy                                               -0.1799 kcal/mol
(6)  G-S(liq) free energy of system                     -203.970487397 a.u.
 SCF   energy in the final basis set =     -203.9702006365
 Total energy in the final basis set =     -203.9704873970
 
 --------------------------------------------------------------
 
                    Orbital Energies (a.u.)
 --------------------------------------------------------------
 
 Alpha MOs
 -- Occupied --
-19.3055 -19.0560 -10.3992  -2.0334  -2.0193  -1.2417  -0.8409  -0.7379
 -0.6286  -0.5734  -0.5591  -0.3399  -0.3013  -0.2708  -0.2694
 -- Virtual --
  0.0263   0.0324   0.0459   0.0619   0.0648   0.0784   0.0835   0.0889
  0.1120   0.1226   0.1358   0.1521   0.1678   0.1883   0.1977   0.2229
  0.2257   0.2315   0.2444   0.2621   0.2842   0.2896   0.2977   0.3167
  0.3312   0.3387   0.3796   0.3901   0.4227   0.4376   0.4440   0.4706
  0.4898   0.5053   0.5264   0.5689   0.6103   0.6258   0.6344   0.6413
  0.6611   0.6741   0.6833   0.7123   0.7408   0.7497   0.8016   0.8137
  0.8263   0.8648   0.9462   0.9640   1.0056   1.0279   1.0408   1.1547
  1.1946   1.4049   1.4235   1.4821   1.5158   1.6040   1.6161   1.6725
  1.7083   1.7788   1.8922   1.9543   1.9675   2.0746   2.1765   2.6121
  2.7763   2.9122   2.9763   3.0873   3.0919   3.1253   3.1532   3.1676
  3.2489   3.4460   3.8096
 
 Beta MOs
 -- Occupied --
-19.2974 -19.0556 -10.3922  -2.0334  -2.0184  -1.2243  -0.8397  -0.7073
 -0.6013  -0.5497  -0.5158  -0.3008  -0.2703  -0.2683
 -- Virtual --
 -0.0121   0.0273   0.0405   0.0523   0.0623   0.0654   0.0788   0.0846
  0.0910   0.1134   0.1235   0.1389   0.1546   0.1709   0.1893   0.1979
  0.2248   0.2263   0.2362   0.2485   0.2632   0.2861   0.2914   0.3033
  0.3183   0.3379   0.3418   0.3837   0.3923   0.4252   0.4426   0.4515
  0.4726   0.4945   0.5070   0.5338   0.5752   0.6120   0.6303   0.6362
  0.6420   0.6645   0.6796   0.6849   0.7166   0.7435   0.7520   0.8073
  0.8162   0.8299   0.8737   0.9531   0.9680   1.0103   1.0356   1.0492
  1.1606   1.2048   1.4057   1.4254   1.4906   1.5255   1.6219   1.6366
  1.6889   1.7177   1.7855   1.9015   1.9755   1.9896   2.0981   2.1932
  2.6362   2.8000   2.9363   2.9994   3.0885   3.0931   3.1259   3.1545
  3.1686   3.2571   3.4744   3.8227
 --------------------------------------------------------------
 
          Ground-State Mulliken Net Atomic Charges

     Atom                 Charge (a.u.)    Spin (a.u.)
  --------------------------------------------------------
      1 C                     0.208923       0.480415
      2 O                    -0.285252       0.306190
      3 H                     0.065052       0.175493
      4 O                    -1.717264      -0.001290
      5 Li                    0.889234       0.003441
      6 Li                    0.839306       0.035752
  --------------------------------------------------------
  Sum of atomic charges =     0.000000
  Sum of spin   charges =     1.000000

  Building new vdw surfaces
         Merz-Kollman RESP Net Atomic Charges

     Atom                 Charge (a.u.)
  ----------------------------------------
      1 C                     0.119590
      2 O                    -0.248963
      3 H                     0.214469
      4 O                    -1.784836
      5 Li                    0.912443
      6 Li                    0.787297
  ----------------------------------------
  Sum of atomic charges =     0.000000

  Related Dipole Moment =     1.1732 (X  0.6636 Y -0.0611 Z  0.9655)

 -----------------------------------------------------------------
                    Cartesian Multipole Moments
 -----------------------------------------------------------------
    Charge (ESU x 10^10)
                -0.0000
    Dipole Moment (Debye)
         X       0.6293      Y      -0.0826      Z       1.0088
       Tot       1.1919
    Quadrupole Moments (Debye-Ang)
        XX     -27.7219     XY       7.0919     YY      -0.4564
        XZ       4.3390     YZ       1.8850     ZZ     -21.9094
    Octopole Moments (Debye-Ang^2)
       XXX      11.8951    XXY      -6.0639    XYY      -3.9048
       YYY     102.0542    XXZ       0.0906    XYZ      -5.8417
       YYZ      29.9741    XZZ       1.5309    YZZ       2.6018
       ZZZ       9.0171
    Hexadecapole Moments (Debye-Ang^3)
      XXXX    -183.3259   XXXY     129.5563   XXYY    -118.1115
      XYYY      67.2544   YYYY     -49.6148   XXXZ      26.9104
      XXYZ     -12.1667   XYYZ       0.0079   YYYZ      26.2648
      XXZZ     -39.0447   XYZZ      36.3950   YYZZ     -71.4681
      XZZZ      21.3190   YZZZ     -31.4949   ZZZZ     -59.8500
 -----------------------------------------------------------------
 Calculating analytic gradient of the SCF energy
 Gradient of CDS energy
            1           2           3           4           5           6
    1   0.0002344   0.0001550   0.0000197   0.0000515  -0.0000889  -0.0003719
    2  -0.0006070   0.0000589   0.0000807   0.0000132  -0.0003246   0.0007788
    3   0.0008889  -0.0003157  -0.0003385  -0.0000646  -0.0000781  -0.0000920
 Gradient of SCF Energy
            1           2           3           4           5           6
    1  -0.0057390   0.0059699   0.0002840  -0.0035433   0.0031784  -0.0001500
    2   0.0041436  -0.0006920  -0.0033047  -0.0010362   0.0089987  -0.0081094
    3  -0.0081295  -0.0040299   0.0115943  -0.0001676   0.0022283  -0.0014956
 Max gradient component =       1.159E-02
 RMS gradient           =       5.227E-03
 Computing fast CPCM-SWIG gradient
 Updating gradient with PCM contributions...
 -- total gradient after adding PCM contribution --
---------------------------------------------------
  Atom         X              Y              Z     
---------------------------------------------------
   1      -0.000007      -0.000005       0.000003
   2      -0.000018      -0.000010       0.000005
   3      -0.000009       0.000000       0.000006
   4       0.000016      -0.000001      -0.000003
   5       0.000021       0.000014      -0.000004
   6      -0.000002       0.000001      -0.000007
---------------------------------------------------
 Number of fixed atoms: 0
 Gradient time:  CPU 44.04 s  wall 1.54 s
 ######################################################
 ######################################################
 # Starting finite difference calculation for IDERIV  #
 Finite diff step size:  1.88973e-03 a.u.
 ----------------------------------------------------------------
             Standard Nuclear Orientation (Angstroms)
    I     Atom           X                Y                Z
 ----------------------------------------------------------------
    1      C       0.3970571497    -1.5958064007    -0.0282279861
    2      O       1.2767933321    -1.8828648507    -0.7558720479
    3      H       0.3322620130    -1.8566608950     1.0655006366
    4      O      -1.0526227416     1.5373646072     0.1319756077
    5      Li     -0.6250083147     3.0992048727     0.5079507896
    6      Li     -1.2334114386     0.0300426665    -0.5591670000
 ----------------------------------------------------------------
 Nuclear Repulsion Energy =          72.81170708 hartrees
 There are       15 alpha and       14 beta electrons
 Discretize the solute cavity surface with Lebedev spheres
	Using 110 Lebedev grid points for each H atom
	Using 194 Lebedev grid points for other atoms
	Atomic van der Waals radii will be scaled by 1.20
 Remove points where switching function is < 1.0e-08
 Keep 660 surface tesserae and discard 420 interior tesserae
 Molecular Surface Area = 155.818 Angst**2

                       Distance Matrix (Angstroms)
             C (  1)   O (  2)   H (  3)   O (  4)   Li(  5)
   O (  2)  1.177202
   H (  3)  1.126271  2.051883
   O (  4)  3.456009  4.232307  3.782695
   Li(  5)  4.834794  5.480430  5.078172  1.662395
   Li(  6)  2.362987  3.162125  2.941178  1.668047  3.305851
 
 Requested basis set is def2-SVPD
 There are 42 shells and 98 basis functions
 A cutoff of  1.0D-14 yielded    881 shell pairs
 There are      4845 function pairs (      5462 Cartesian)
 Smallest overlap matrix eigenvalue = 5.12E-04
 Guess MOs from SCF MO coefficient file

 -----------------------------------------------------------------------
  General SCF calculation program by
  Eric Jon Sundstrom, Paul Horn, Yuezhi Mao, Dmitri Zuev, Alec White,
  David Stuck, Shaama M.S., Shane Yost, Joonho Lee, David Small,
  Daniel Levine, Susi Lehtola, Hugh Burton, Evgeny Epifanovsky,
  Bang C. Huynh
 -----------------------------------------------------------------------
 Exchange:     0.1670 Hartree-Fock + 1.0000 wB97X-V + LR-HF
 Correlation:  1.0000 wB97X-V
 Using SG-3 standard quadrature grid
 Nonlocal Correlation:  VV10 with C = 0.0100 and b = 6.00 and scale = 1.00000
 Grid used for NLC:  SG-1 standard quadrature
 
 Citation of the SMD model:
 Marenich, A.V.; Cramer, C.J.; Truhlar, D.G.
 J. Phys. Chem. B 2009, 113, 6378-6396.
 iSolventCode=           0
 Solvent: other                                                           
 
 vradii
            1           2           3           4           5           6
    1   1.8500000   2.2940000   1.2000000   2.2940000   2.1476001   2.1476001
 using 40 threads for integral computing
 -------------------------------------------------------
 OpenMP Integral computing Module                
 Release: version 1.0, May 2013, Q-Chem Inc. Pittsburgh 
 -------------------------------------------------------
 using 40 threads for integral computing
 -------------------------------------------------------
 OpenMP Integral computing Module                
 Release: version 1.0, May 2013, Q-Chem Inc. Pittsburgh 
 -------------------------------------------------------
 -------------------------------------------------------
 OpenMP BLAS3 based DFT computing Module                
 Release: version 1.0, May 2013, Q-Chem Inc. Pittsburgh 
 -------------------------------------------------------
 -------------------------------------------------------
 OpenMP BLAS3 based DFT computing Module                
 Release: version 1.0, May 2013, Q-Chem Inc. Pittsburgh 
 -------------------------------------------------------
 -------------------------------------------------------
 OpenMP BLAS3 based DFT computing Module                
 Release: version 1.0, May 2013, Q-Chem Inc. Pittsburgh 
 -------------------------------------------------------
 A unrestricted SCF calculation will be
 performed using Roothaan-Hall, DIIS
 SCF converges when DIIS error is below 1.0e-08
 ---------------------------------------
  Cycle       Energy         DIIS error
 ---------------------------------------
    1    -203.7588830470      3.66e-04  Roothaan Step
 ---------------------------------------
  Cycle       Energy         DIIS error
 ---------------------------------------
    1    -203.9686420032      4.18e-04  
    2    -203.9692416553      5.01e-04  
    3    -203.9701297438      7.22e-05  
    4    -203.9701835838      3.86e-05  
    5    -203.9701933759      2.61e-05  
    6    -203.9701983725      5.28e-06  
    7    -203.9701994708      2.45e-06  
    8    -203.9701998573      1.15e-06  
    9    -203.9701999476      5.62e-07  
   10    -203.9701999661      2.75e-07  
   11    -203.9701999711      1.18e-07  
   12    -203.9701999721      4.65e-08  
   13    -203.9701999722      1.59e-08  
   14    -203.9701999722      5.96e-09  Convergence criterion met
 ---------------------------------------
 SCF time:   CPU 358.43s  wall 11.00s 
<S^2> =          0.753321089
(3)  G-ENP(liq) elect-nuc-pol free energy of system     -203.970199972 a.u.
(4)  G-CDS(liq) cavity-dispersion-solvent structure 
     free energy                                               -0.1797 kcal/mol
(6)  G-S(liq) free energy of system                     -203.970486287 a.u.
 SCF   energy in the final basis set =     -203.9701999722
 Total energy in the final basis set =     -203.9704862872
 
 --------------------------------------------------------------
 
                    Orbital Energies (a.u.)
 --------------------------------------------------------------
 
 Alpha MOs
 -- Occupied --
-19.3055 -19.0560 -10.3991  -2.0334  -2.0193  -1.2421  -0.8409  -0.7378
 -0.6287  -0.5736  -0.5594  -0.3396  -0.3012  -0.2708  -0.2694
 -- Virtual --
  0.0263   0.0326   0.0460   0.0619   0.0648   0.0784   0.0835   0.0889
  0.1120   0.1226   0.1358   0.1521   0.1677   0.1882   0.1977   0.2229
  0.2257   0.2315   0.2444   0.2621   0.2842   0.2896   0.2977   0.3167
  0.3313   0.3387   0.3795   0.3901   0.4227   0.4376   0.4441   0.4707
  0.4898   0.5054   0.5265   0.5689   0.6104   0.6259   0.6344   0.6413
  0.6612   0.6741   0.6833   0.7124   0.7409   0.7497   0.8017   0.8137
  0.8263   0.8648   0.9463   0.9640   1.0056   1.0280   1.0414   1.1547
  1.1945   1.4049   1.4235   1.4823   1.5158   1.6042   1.6161   1.6725
  1.7083   1.7788   1.8923   1.9542   1.9675   2.0743   2.1764   2.6140
  2.7760   2.9123   2.9763   3.0874   3.0919   3.1253   3.1532   3.1676
  3.2499   3.4474   3.8109
 
 Beta MOs
 -- Occupied --
-19.2973 -19.0556 -10.3921  -2.0334  -2.0184  -1.2247  -0.8397  -0.7072
 -0.6014  -0.5500  -0.5160  -0.3008  -0.2703  -0.2683
 -- Virtual --
 -0.0119   0.0273   0.0405   0.0524   0.0623   0.0654   0.0788   0.0846
  0.0910   0.1134   0.1235   0.1389   0.1546   0.1709   0.1893   0.1979
  0.2247   0.2263   0.2362   0.2485   0.2632   0.2861   0.2914   0.3033
  0.3183   0.3379   0.3419   0.3836   0.3923   0.4252   0.4426   0.4515
  0.4727   0.4946   0.5071   0.5338   0.5752   0.6121   0.6304   0.6363
  0.6420   0.6646   0.6797   0.6849   0.7167   0.7436   0.7520   0.8074
  0.8162   0.8300   0.8737   0.9531   0.9680   1.0103   1.0357   1.0499
  1.1606   1.2046   1.4057   1.4254   1.4909   1.5255   1.6221   1.6366
  1.6889   1.7177   1.7855   1.9016   1.9755   1.9896   2.0978   2.1931
  2.6381   2.7996   2.9363   2.9993   3.0886   3.0931   3.1259   3.1545
  3.1686   3.2581   3.4758   3.8240
 --------------------------------------------------------------
 
          Ground-State Mulliken Net Atomic Charges

     Atom                 Charge (a.u.)    Spin (a.u.)
  --------------------------------------------------------
      1 C                     0.208162       0.480588
      2 O                    -0.284380       0.305865
      3 H                     0.065071       0.175559
      4 O                    -1.717364      -0.001294
      5 Li                    0.889201       0.003450
      6 Li                    0.839310       0.035832
  --------------------------------------------------------
  Sum of atomic charges =     0.000000
  Sum of spin   charges =     1.000000

  Building new vdw surfaces
         Merz-Kollman RESP Net Atomic Charges

     Atom                 Charge (a.u.)
  ----------------------------------------
      1 C                     0.120021
      2 O                    -0.248901
      3 H                     0.214133
      4 O                    -1.784911
      5 Li                    0.912425
      6 Li                    0.787234
  ----------------------------------------
  Sum of atomic charges =     0.000000

  Related Dipole Moment =     1.1728 (X  0.6657 Y -0.0628 Z  0.9636)

 -----------------------------------------------------------------
                    Cartesian Multipole Moments
 -----------------------------------------------------------------
    Charge (ESU x 10^10)
                -0.0000
    Dipole Moment (Debye)
         X       0.6314      Y      -0.0841      Z       1.0070
       Tot       1.1915
    Quadrupole Moments (Debye-Ang)
        XX     -27.7190     XY       7.0910     YY      -0.4558
        XZ       4.3381     YZ       1.8887     ZZ     -21.9089
    Octopole Moments (Debye-Ang^2)
       XXX      11.8891    XXY      -6.0720    XYY      -3.9027
       YYY     102.0384    XXZ       0.0896    XYZ      -5.8401
       YYZ      29.9653    XZZ       1.5268    YZZ       2.5996
       ZZZ       9.0099
    Hexadecapole Moments (Debye-Ang^3)
      XXXX    -183.3463   XXXY     129.5797   XXYY    -118.1129
      XYYY      67.2743   YYYY     -49.5969   XXXZ      26.9102
      XXYZ     -12.1658   XYYZ       0.0044   YYYZ      26.2887
      XXZZ     -39.0492   XYZZ      36.4046   YYZZ     -71.4686
      XZZZ      21.3145   YZZZ     -31.4812   ZZZZ     -59.8508
 -----------------------------------------------------------------
 Calculating analytic gradient of the SCF energy
 Gradient of CDS energy
            1           2           3           4           5           6
    1   0.0002371   0.0001523   0.0000200   0.0000515  -0.0000889  -0.0003721
    2  -0.0006075   0.0000596   0.0000807   0.0000132  -0.0003246   0.0007786
    3   0.0008868  -0.0003138  -0.0003384  -0.0000646  -0.0000781  -0.0000919
 Gradient of SCF Energy
            1           2           3           4           5           6
    1  -0.0045357   0.0048610   0.0002018  -0.0035410   0.0031799  -0.0001661
    2   0.0037567  -0.0003260  -0.0032831  -0.0010452   0.0090005  -0.0081029
    3  -0.0089530  -0.0032015   0.0115991  -0.0001660   0.0022284  -0.0015069
 Max gradient component =       1.160E-02
 RMS gradient           =       5.120E-03
 Computing fast CPCM-SWIG gradient
 Updating gradient with PCM contributions...
 -- total gradient after adding PCM contribution --
---------------------------------------------------
  Atom         X              Y              Z     
---------------------------------------------------
   1       0.001182      -0.000397      -0.000828
   2      -0.001128       0.000363       0.000836
   3      -0.000075       0.000021       0.000016
   4       0.000021      -0.000013      -0.000003
   5       0.000021       0.000015      -0.000004
   6      -0.000021       0.000011      -0.000017
---------------------------------------------------
 Number of fixed atoms: 0
 Gradient time:  CPU 47.85 s  wall 1.77 s
 ----------------------------------------------------------------
             Standard Nuclear Orientation (Angstroms)
    I     Atom           X                Y                Z
 ----------------------------------------------------------------
    1      C       0.3950571497    -1.5958064007    -0.0282279861
    2      O       1.2767933321    -1.8828648507    -0.7558720479
    3      H       0.3322620130    -1.8566608950     1.0655006366
    4      O      -1.0526227416     1.5373646072     0.1319756077
    5      Li     -0.6250083147     3.0992048727     0.5079507896
    6      Li     -1.2334114386     0.0300426665    -0.5591670000
 ----------------------------------------------------------------
 Nuclear Repulsion Energy =          72.78892709 hartrees
 There are       15 alpha and       14 beta electrons
 Discretize the solute cavity surface with Lebedev spheres
	Using 110 Lebedev grid points for each H atom
	Using 194 Lebedev grid points for other atoms
	Atomic van der Waals radii will be scaled by 1.20
 Remove points where switching function is < 1.0e-08
 Keep 660 surface tesserae and discard 420 interior tesserae
 Molecular Surface Area = 155.819 Angst**2

                       Distance Matrix (Angstroms)
             C (  1)   O (  2)   H (  3)   O (  4)   Li(  5)
   O (  2)  1.178697
   H (  3)  1.126157  2.051883
   O (  4)  3.455170  4.232307  3.782695
   Li(  5)  4.834372  5.480430  5.078172  1.662395
   Li(  6)  2.361608  3.162125  2.941178  1.668047  3.305851
 
 Requested basis set is def2-SVPD
 There are 42 shells and 98 basis functions
 A cutoff of  1.0D-14 yielded    881 shell pairs
 There are      4845 function pairs (      5462 Cartesian)
 Smallest overlap matrix eigenvalue = 5.14E-04
 Guess MOs from SCF MO coefficient file

 -----------------------------------------------------------------------
  General SCF calculation program by
  Eric Jon Sundstrom, Paul Horn, Yuezhi Mao, Dmitri Zuev, Alec White,
  David Stuck, Shaama M.S., Shane Yost, Joonho Lee, David Small,
  Daniel Levine, Susi Lehtola, Hugh Burton, Evgeny Epifanovsky,
  Bang C. Huynh
 -----------------------------------------------------------------------
 Exchange:     0.1670 Hartree-Fock + 1.0000 wB97X-V + LR-HF
 Correlation:  1.0000 wB97X-V
 Using SG-3 standard quadrature grid
 Nonlocal Correlation:  VV10 with C = 0.0100 and b = 6.00 and scale = 1.00000
 Grid used for NLC:  SG-1 standard quadrature
 
 Citation of the SMD model:
 Marenich, A.V.; Cramer, C.J.; Truhlar, D.G.
 J. Phys. Chem. B 2009, 113, 6378-6396.
 iSolventCode=           0
 Solvent: other                                                           
 
 vradii
            1           2           3           4           5           6
    1   1.8500000   2.2940000   1.2000000   2.2940000   2.1476001   2.1476001
 using 40 threads for integral computing
 -------------------------------------------------------
 OpenMP Integral computing Module                
 Release: version 1.0, May 2013, Q-Chem Inc. Pittsburgh 
 -------------------------------------------------------
 using 40 threads for integral computing
 -------------------------------------------------------
 OpenMP Integral computing Module                
 Release: version 1.0, May 2013, Q-Chem Inc. Pittsburgh 
 -------------------------------------------------------
 -------------------------------------------------------
 OpenMP BLAS3 based DFT computing Module                
 Release: version 1.0, May 2013, Q-Chem Inc. Pittsburgh 
 -------------------------------------------------------
 -------------------------------------------------------
 OpenMP BLAS3 based DFT computing Module                
 Release: version 1.0, May 2013, Q-Chem Inc. Pittsburgh 
 -------------------------------------------------------
 -------------------------------------------------------
 OpenMP BLAS3 based DFT computing Module                
 Release: version 1.0, May 2013, Q-Chem Inc. Pittsburgh 
 -------------------------------------------------------
 A unrestricted SCF calculation will be
 performed using Roothaan-Hall, DIIS
 SCF converges when DIIS error is below 1.0e-08
 ---------------------------------------
  Cycle       Energy         DIIS error
 ---------------------------------------
    1    -203.7588430983      3.66e-04  Roothaan Step
 ---------------------------------------
  Cycle       Energy         DIIS error
 ---------------------------------------
    1    -203.9686270226      4.22e-04  
    2    -203.9692137833      5.09e-04  
    3    -203.9701299319      7.14e-05  
    4    -203.9701831629      3.86e-05  
    5    -203.9701927716      2.60e-05  
    6    -203.9701976446      5.15e-06  
    7    -203.9701986417      2.29e-06  
    8    -203.9701989656      1.08e-06  
    9    -203.9701990403      5.45e-07  
   10    -203.9701990570      2.65e-07  
   11    -203.9701990618      1.13e-07  
   12    -203.9701990627      4.55e-08  
   13    -203.9701990628      1.59e-08  
   14    -203.9701990628      6.03e-09  Convergence criterion met
 ---------------------------------------
 SCF time:   CPU 369.51s  wall 12.00s 
<S^2> =          0.753331474
(3)  G-ENP(liq) elect-nuc-pol free energy of system     -203.970199063 a.u.
(4)  G-CDS(liq) cavity-dispersion-solvent structure 
     free energy                                               -0.1802 kcal/mol
(6)  G-S(liq) free energy of system                     -203.970486264 a.u.
 SCF   energy in the final basis set =     -203.9701990628
 Total energy in the final basis set =     -203.9704862638
 
 --------------------------------------------------------------
 
                    Orbital Energies (a.u.)
 --------------------------------------------------------------
 
 Alpha MOs
 -- Occupied --
-19.3056 -19.0560 -10.3993  -2.0334  -2.0193  -1.2414  -0.8409  -0.7380
 -0.6285  -0.5732  -0.5589  -0.3402  -0.3013  -0.2708  -0.2695
 -- Virtual --
  0.0263   0.0323   0.0459   0.0619   0.0648   0.0784   0.0835   0.0888
  0.1120   0.1226   0.1358   0.1522   0.1678   0.1883   0.1977   0.2230
  0.2257   0.2315   0.2444   0.2621   0.2842   0.2896   0.2977   0.3167
  0.3312   0.3387   0.3797   0.3902   0.4227   0.4376   0.4440   0.4706
  0.4897   0.5051   0.5264   0.5689   0.6102   0.6257   0.6343   0.6413
  0.6610   0.6740   0.6834   0.7123   0.7407   0.7497   0.8016   0.8137
  0.8263   0.8647   0.9461   0.9640   1.0055   1.0279   1.0402   1.1547
  1.1948   1.4048   1.4234   1.4819   1.5158   1.6038   1.6161   1.6725
  1.7083   1.7789   1.8921   1.9543   1.9674   2.0748   2.1766   2.6103
  2.7767   2.9121   2.9764   3.0873   3.0919   3.1253   3.1532   3.1676
  3.2479   3.4446   3.8082
 
 Beta MOs
 -- Occupied --
-19.2974 -19.0557 -10.3923  -2.0334  -2.0184  -1.2239  -0.8397  -0.7074
 -0.6012  -0.5495  -0.5156  -0.3008  -0.2703  -0.2683
 -- Virtual --
 -0.0124   0.0273   0.0404   0.0522   0.0623   0.0654   0.0788   0.0846
  0.0909   0.1134   0.1234   0.1389   0.1547   0.1709   0.1894   0.1979
  0.2248   0.2263   0.2362   0.2485   0.2632   0.2861   0.2914   0.3033
  0.3183   0.3378   0.3418   0.3837   0.3923   0.4252   0.4426   0.4514
  0.4726   0.4944   0.5069   0.5337   0.5752   0.6119   0.6302   0.6361
  0.6420   0.6643   0.6795   0.6849   0.7166   0.7434   0.7520   0.8073
  0.8162   0.8299   0.8737   0.9530   0.9679   1.0103   1.0355   1.0486
  1.1606   1.2050   1.4056   1.4253   1.4904   1.5254   1.6217   1.6366
  1.6889   1.7176   1.7856   1.9014   1.9756   1.9895   2.0983   2.1933
  2.6344   2.8004   2.9362   2.9995   3.0885   3.0931   3.1258   3.1545
  3.1686   3.2561   3.4730   3.8214
 --------------------------------------------------------------
 
          Ground-State Mulliken Net Atomic Charges

     Atom                 Charge (a.u.)    Spin (a.u.)
  --------------------------------------------------------
      1 C                     0.209681       0.480236
      2 O                    -0.286122       0.306520
      3 H                     0.065036       0.175427
      4 O                    -1.717163      -0.001288
      5 Li                    0.889267       0.003432
      6 Li                    0.839302       0.035674
  --------------------------------------------------------
  Sum of atomic charges =     0.000000
  Sum of spin   charges =     1.000000

  Building new vdw surfaces
         Merz-Kollman RESP Net Atomic Charges

     Atom                 Charge (a.u.)
  ----------------------------------------
      1 C                     0.119222
      2 O                    -0.249045
      3 H                     0.214779
      4 O                    -1.784733
      5 Li                    0.912449
      6 Li                    0.787327
  ----------------------------------------
  Sum of atomic charges =     0.000000

  Related Dipole Moment =     1.1736 (X  0.6616 Y -0.0594 Z  0.9675)

 -----------------------------------------------------------------
                    Cartesian Multipole Moments
 -----------------------------------------------------------------
    Charge (ESU x 10^10)
                 0.0000
    Dipole Moment (Debye)
         X       0.6272      Y      -0.0810      Z       1.0106
       Tot       1.1922
    Quadrupole Moments (Debye-Ang)
        XX     -27.7249     XY       7.0929     YY      -0.4570
        XZ       4.3399     YZ       1.8814     ZZ     -21.9098
    Octopole Moments (Debye-Ang^2)
       XXX      11.9012    XXY      -6.0558    XYY      -3.9070
       YYY     102.0700    XXZ       0.0916    XYZ      -5.8432
       YYZ      29.9829    XZZ       1.5349    YZZ       2.6042
       ZZZ       9.0242
    Hexadecapole Moments (Debye-Ang^3)
      XXXX    -183.3053   XXXY     129.5328   XXYY    -118.1101
      XYYY      67.2343   YYYY     -49.6329   XXXZ      26.9106
      XXYZ     -12.1676   XYYZ       0.0114   YYYZ      26.2410
      XXZZ     -39.0402   XYZZ      36.3854   YYZZ     -71.4676
      XZZZ      21.3235   YZZZ     -31.5086   ZZZZ     -59.8492
 -----------------------------------------------------------------
 Calculating analytic gradient of the SCF energy
 Gradient of CDS energy
            1           2           3           4           5           6
    1   0.0002318   0.0001578   0.0000194   0.0000515  -0.0000889  -0.0003716
    2  -0.0006065   0.0000581   0.0000808   0.0000132  -0.0003246   0.0007790
    3   0.0008911  -0.0003176  -0.0003387  -0.0000646  -0.0000781  -0.0000920
 Gradient of SCF Energy
            1           2           3           4           5           6
    1  -0.0069380   0.0070746   0.0003660  -0.0035455   0.0031768  -0.0001339
    2   0.0045282  -0.0010557  -0.0033263  -0.0010272   0.0089970  -0.0081159
    3  -0.0073112  -0.0048533   0.0115897  -0.0001692   0.0022283  -0.0014842
 Max gradient component =       1.159E-02
 RMS gradient           =       5.375E-03
 Computing fast CPCM-SWIG gradient
 Updating gradient with PCM contributions...
 -- total gradient after adding PCM contribution --
---------------------------------------------------
  Atom         X              Y              Z     
---------------------------------------------------
   1      -0.001192       0.000385       0.000828
   2       0.001088      -0.000380      -0.000821
   3       0.000057      -0.000020      -0.000003
   4       0.000010       0.000011      -0.000003
   5       0.000020       0.000012      -0.000004
   6       0.000016      -0.000008       0.000002
---------------------------------------------------
 Number of fixed atoms: 0
 Gradient time:  CPU 45.95 s  wall 1.68 s
 ----------------------------------------------------------------
             Standard Nuclear Orientation (Angstroms)
    I     Atom           X                Y                Z
 ----------------------------------------------------------------
    1      C       0.3960571497    -1.5948064007    -0.0282279861
    2      O       1.2767933321    -1.8828648507    -0.7558720479
    3      H       0.3322620130    -1.8566608950     1.0655006366
    4      O      -1.0526227416     1.5373646072     0.1319756077
    5      Li     -0.6250083147     3.0992048727     0.5079507896
    6      Li     -1.2334114386     0.0300426665    -0.5591670000
 ----------------------------------------------------------------
 Nuclear Repulsion Energy =          72.79876470 hartrees
 There are       15 alpha and       14 beta electrons
 Discretize the solute cavity surface with Lebedev spheres
	Using 110 Lebedev grid points for each H atom
	Using 194 Lebedev grid points for other atoms
	Atomic van der Waals radii will be scaled by 1.20
 Remove points where switching function is < 1.0e-08
 Keep 660 surface tesserae and discard 420 interior tesserae
 Molecular Surface Area = 155.816 Angst**2

                       Distance Matrix (Angstroms)
             C (  1)   O (  2)   H (  3)   O (  4)   Li(  5)
   O (  2)  1.178193
   H (  3)  1.126446  2.051883
   O (  4)  3.454683  4.232307  3.782695
   Li(  5)  4.833612  5.480430  5.078172  1.662395
   Li(  6)  2.361609  3.162125  2.941178  1.668047  3.305851
 
 Requested basis set is def2-SVPD
 There are 42 shells and 98 basis functions
 A cutoff of  1.0D-14 yielded    881 shell pairs
 There are      4845 function pairs (      5462 Cartesian)
 Smallest overlap matrix eigenvalue = 5.13E-04
 Guess MOs from SCF MO coefficient file

 -----------------------------------------------------------------------
  General SCF calculation program by
  Eric Jon Sundstrom, Paul Horn, Yuezhi Mao, Dmitri Zuev, Alec White,
  David Stuck, Shaama M.S., Shane Yost, Joonho Lee, David Small,
  Daniel Levine, Susi Lehtola, Hugh Burton, Evgeny Epifanovsky,
  Bang C. Huynh
 -----------------------------------------------------------------------
 Exchange:     0.1670 Hartree-Fock + 1.0000 wB97X-V + LR-HF
 Correlation:  1.0000 wB97X-V
 Using SG-3 standard quadrature grid
 Nonlocal Correlation:  VV10 with C = 0.0100 and b = 6.00 and scale = 1.00000
 Grid used for NLC:  SG-1 standard quadrature
 
 Citation of the SMD model:
 Marenich, A.V.; Cramer, C.J.; Truhlar, D.G.
 J. Phys. Chem. B 2009, 113, 6378-6396.
 iSolventCode=           0
 Solvent: other                                                           
 
 vradii
            1           2           3           4           5           6
    1   1.8500000   2.2940000   1.2000000   2.2940000   2.1476001   2.1476001
 using 40 threads for integral computing
 -------------------------------------------------------
 OpenMP Integral computing Module                
 Release: version 1.0, May 2013, Q-Chem Inc. Pittsburgh 
 -------------------------------------------------------
 using 40 threads for integral computing
 -------------------------------------------------------
 OpenMP Integral computing Module                
 Release: version 1.0, May 2013, Q-Chem Inc. Pittsburgh 
 -------------------------------------------------------
 -------------------------------------------------------
 OpenMP BLAS3 based DFT computing Module                
 Release: version 1.0, May 2013, Q-Chem Inc. Pittsburgh 
 -------------------------------------------------------
 -------------------------------------------------------
 OpenMP BLAS3 based DFT computing Module                
 Release: version 1.0, May 2013, Q-Chem Inc. Pittsburgh 
 -------------------------------------------------------
 -------------------------------------------------------
 OpenMP BLAS3 based DFT computing Module                
 Release: version 1.0, May 2013, Q-Chem Inc. Pittsburgh 
 -------------------------------------------------------
 A unrestricted SCF calculation will be
 performed using Roothaan-Hall, DIIS
 SCF converges when DIIS error is below 1.0e-08
 ---------------------------------------
  Cycle       Energy         DIIS error
 ---------------------------------------
    1    -203.7589106783      3.66e-04  Roothaan Step
 ---------------------------------------
  Cycle       Energy         DIIS error
 ---------------------------------------
    1    -203.9686375470      4.18e-04  
    2    -203.9692357583      5.02e-04  
    3    -203.9701285469      7.21e-05  
    4    -203.9701826042      3.85e-05  
    5    -203.9701924648      2.62e-05  
    6    -203.9701975492      5.41e-06  
    7    -203.9701987166      2.57e-06  
    8    -203.9701991475      1.22e-06  
    9    -203.9701992503      5.94e-07  
   10    -203.9701992712      2.86e-07  
   11    -203.9701992767      1.20e-07  
   12    -203.9701992776      4.70e-08  
   13    -203.9701992778      1.60e-08  
   14    -203.9701992778      6.00e-09  Convergence criterion met
 ---------------------------------------
 SCF time:   CPU 368.40s  wall 12.00s 
<S^2> =          0.753330942
(3)  G-ENP(liq) elect-nuc-pol free energy of system     -203.970199278 a.u.
(4)  G-CDS(liq) cavity-dispersion-solvent structure 
     free energy                                               -0.1807 kcal/mol
(6)  G-S(liq) free energy of system                     -203.970487184 a.u.
 SCF   energy in the final basis set =     -203.9701992778
 Total energy in the final basis set =     -203.9704871836
 
 --------------------------------------------------------------
 
                    Orbital Energies (a.u.)
 --------------------------------------------------------------
 
 Alpha MOs
 -- Occupied --
-19.3055 -19.0560 -10.3993  -2.0334  -2.0193  -1.2416  -0.8409  -0.7379
 -0.6286  -0.5733  -0.5590  -0.3400  -0.3013  -0.2708  -0.2694
 -- Virtual --
  0.0263   0.0324   0.0459   0.0619   0.0648   0.0784   0.0835   0.0889
  0.1120   0.1226   0.1358   0.1521   0.1678   0.1883   0.1977   0.2229
  0.2257   0.2315   0.2444   0.2621   0.2842   0.2896   0.2977   0.3167
  0.3312   0.3387   0.3796   0.3902   0.4227   0.4375   0.4440   0.4707
  0.4897   0.5053   0.5265   0.5688   0.6103   0.6258   0.6344   0.6413
  0.6613   0.6740   0.6833   0.7123   0.7409   0.7497   0.8016   0.8137
  0.8263   0.8648   0.9461   0.9640   1.0056   1.0280   1.0406   1.1548
  1.1947   1.4049   1.4234   1.4819   1.5158   1.6040   1.6161   1.6725
  1.7083   1.7789   1.8923   1.9543   1.9673   2.0748   2.1763   2.6112
  2.7764   2.9121   2.9764   3.0874   3.0919   3.1253   3.1532   3.1676
  3.2485   3.4453   3.8091
 
 Beta MOs
 -- Occupied --
-19.2974 -19.0556 -10.3922  -2.0334  -2.0184  -1.2242  -0.8397  -0.7072
 -0.6012  -0.5496  -0.5157  -0.3008  -0.2703  -0.2683
 -- Virtual --
 -0.0122   0.0273   0.0404   0.0523   0.0623   0.0654   0.0788   0.0846
  0.0910   0.1134   0.1235   0.1389   0.1546   0.1709   0.1893   0.1979
  0.2248   0.2263   0.2362   0.2485   0.2632   0.2861   0.2914   0.3033
  0.3183   0.3379   0.3418   0.3837   0.3924   0.4252   0.4426   0.4514
  0.4727   0.4944   0.5070   0.5338   0.5751   0.6120   0.6303   0.6362
  0.6420   0.6646   0.6795   0.6849   0.7166   0.7436   0.7521   0.8073
  0.8161   0.8300   0.8737   0.9531   0.9680   1.0103   1.0356   1.0490
  1.1607   1.2049   1.4057   1.4253   1.4905   1.5255   1.6219   1.6366
  1.6889   1.7176   1.7856   1.9016   1.9755   1.9894   2.0983   2.1930
  2.6352   2.8001   2.9362   2.9995   3.0886   3.0931   3.1259   3.1545
  3.1686   3.2568   3.4737   3.8222
 --------------------------------------------------------------
 
          Ground-State Mulliken Net Atomic Charges

     Atom                 Charge (a.u.)    Spin (a.u.)
  --------------------------------------------------------
      1 C                     0.208340       0.480135
      2 O                    -0.285415       0.306352
      3 H                     0.065650       0.175591
      4 O                    -1.717129      -0.001257
      5 Li                    0.889254       0.003429
      6 Li                    0.839299       0.035750
  --------------------------------------------------------
  Sum of atomic charges =     0.000000
  Sum of spin   charges =     1.000000

  Building new vdw surfaces
         Merz-Kollman RESP Net Atomic Charges

     Atom                 Charge (a.u.)
  ----------------------------------------
      1 C                     0.119616
      2 O                    -0.249041
      3 H                     0.214445
      4 O                    -1.784936
      5 Li                    0.912479
      6 Li                    0.787437
  ----------------------------------------
  Sum of atomic charges =     0.000000

  Related Dipole Moment =     1.1725 (X  0.6627 Y -0.0600 Z  0.9653)

 -----------------------------------------------------------------
                    Cartesian Multipole Moments
 -----------------------------------------------------------------
    Charge (ESU x 10^10)
                 0.0000
    Dipole Moment (Debye)
         X       0.6284      Y      -0.0817      Z       1.0090
       Tot       1.1915
    Quadrupole Moments (Debye-Ang)
        XX     -27.7212     XY       7.0939     YY      -0.4598
        XZ       4.3399     YZ       1.8849     ZZ     -21.9096
    Octopole Moments (Debye-Ang^2)
       XXX      11.8925    XXY      -6.0691    XYY      -3.9115
       YYY     102.0551    XXZ       0.0908    XYZ      -5.8431
       YYZ      29.9752    XZZ       1.5300    YZZ       2.5968
       ZZZ       9.0180
    Hexadecapole Moments (Debye-Ang^3)
      XXXX    -183.3224   XXXY     129.5520   XXYY    -118.0943
      XYYY      67.2638   YYYY     -49.5650   XXXZ      26.9116
      XXYZ     -12.1661   XYYZ       0.0109   YYYZ      26.2617
      XXZZ     -39.0448   XYZZ      36.3936   YYZZ     -71.4505
      XZZZ      21.3212   YZZZ     -31.4955   ZZZZ     -59.8511
 -----------------------------------------------------------------
 Calculating analytic gradient of the SCF energy
 Gradient of CDS energy
            1           2           3           4           5           6
    1   0.0002339   0.0001569   0.0000197   0.0000515  -0.0000889  -0.0003732
    2  -0.0006051   0.0000566   0.0000809   0.0000132  -0.0003246   0.0007790
    3   0.0008869  -0.0003150  -0.0003378  -0.0000646  -0.0000781  -0.0000912
 Gradient of SCF Energy
            1           2           3           4           5           6
    1  -0.0061232   0.0063243   0.0003115  -0.0035409   0.0031777  -0.0001494
    2   0.0043999  -0.0008493  -0.0033857  -0.0010391   0.0089979  -0.0081236
    3  -0.0079947  -0.0042776   0.0117058  -0.0001677   0.0022283  -0.0014941
 Max gradient component =       1.171E-02
 RMS gradient           =       5.303E-03
 Computing fast CPCM-SWIG gradient
 Updating gradient with PCM contributions...
 -- total gradient after adding PCM contribution --
---------------------------------------------------
  Atom         X              Y              Z     
---------------------------------------------------
   1      -0.000398       0.000231       0.000144
   2       0.000343      -0.000163      -0.000250
   3       0.000019      -0.000067       0.000120
   4       0.000017      -0.000003      -0.000003
   5       0.000020       0.000013      -0.000004
   6      -0.000001      -0.000011      -0.000007
---------------------------------------------------
 Number of fixed atoms: 0
 Gradient time:  CPU 45.58 s  wall 1.56 s
 ----------------------------------------------------------------
             Standard Nuclear Orientation (Angstroms)
    I     Atom           X                Y                Z
 ----------------------------------------------------------------
    1      C       0.3960571497    -1.5968064007    -0.0282279861
    2      O       1.2767933321    -1.8828648507    -0.7558720479
    3      H       0.3322620130    -1.8566608950     1.0655006366
    4      O      -1.0526227416     1.5373646072     0.1319756077
    5      Li     -0.6250083147     3.0992048727     0.5079507896
    6      Li     -1.2334114386     0.0300426665    -0.5591670000
 ----------------------------------------------------------------
 Nuclear Repulsion Energy =          72.80184793 hartrees
 There are       15 alpha and       14 beta electrons
 Discretize the solute cavity surface with Lebedev spheres
	Using 110 Lebedev grid points for each H atom
	Using 194 Lebedev grid points for other atoms
	Atomic van der Waals radii will be scaled by 1.20
 Remove points where switching function is < 1.0e-08
 Keep 660 surface tesserae and discard 420 interior tesserae
 Molecular Surface Area = 155.821 Angst**2

                       Distance Matrix (Angstroms)
             C (  1)   O (  2)   H (  3)   O (  4)   Li(  5)
   O (  2)  1.177706
   H (  3)  1.125982  2.051883
   O (  4)  3.456496  4.232307  3.782695
   Li(  5)  4.835554  5.480430  5.078172  1.662395
   Li(  6)  2.362986  3.162125  2.941178  1.668047  3.305851
 
 Requested basis set is def2-SVPD
 There are 42 shells and 98 basis functions
 A cutoff of  1.0D-14 yielded    881 shell pairs
 There are      4845 function pairs (      5462 Cartesian)
 Smallest overlap matrix eigenvalue = 5.13E-04
 Guess MOs from SCF MO coefficient file

 -----------------------------------------------------------------------
  General SCF calculation program by
  Eric Jon Sundstrom, Paul Horn, Yuezhi Mao, Dmitri Zuev, Alec White,
  David Stuck, Shaama M.S., Shane Yost, Joonho Lee, David Small,
  Daniel Levine, Susi Lehtola, Hugh Burton, Evgeny Epifanovsky,
  Bang C. Huynh
 -----------------------------------------------------------------------
 Exchange:     0.1670 Hartree-Fock + 1.0000 wB97X-V + LR-HF
 Correlation:  1.0000 wB97X-V
 Using SG-3 standard quadrature grid
 Nonlocal Correlation:  VV10 with C = 0.0100 and b = 6.00 and scale = 1.00000
 Grid used for NLC:  SG-1 standard quadrature
 
 Citation of the SMD model:
 Marenich, A.V.; Cramer, C.J.; Truhlar, D.G.
 J. Phys. Chem. B 2009, 113, 6378-6396.
 iSolventCode=           0
 Solvent: other                                                           
 
 vradii
            1           2           3           4           5           6
    1   1.8500000   2.2940000   1.2000000   2.2940000   2.1476001   2.1476001
 using 40 threads for integral computing
 -------------------------------------------------------
 OpenMP Integral computing Module                
 Release: version 1.0, May 2013, Q-Chem Inc. Pittsburgh 
 -------------------------------------------------------
 using 40 threads for integral computing
 -------------------------------------------------------
 OpenMP Integral computing Module                
 Release: version 1.0, May 2013, Q-Chem Inc. Pittsburgh 
 -------------------------------------------------------
 -------------------------------------------------------
 OpenMP BLAS3 based DFT computing Module                
 Release: version 1.0, May 2013, Q-Chem Inc. Pittsburgh 
 -------------------------------------------------------
 -------------------------------------------------------
 OpenMP BLAS3 based DFT computing Module                
 Release: version 1.0, May 2013, Q-Chem Inc. Pittsburgh 
 -------------------------------------------------------
 -------------------------------------------------------
 OpenMP BLAS3 based DFT computing Module                
 Release: version 1.0, May 2013, Q-Chem Inc. Pittsburgh 
 -------------------------------------------------------
 A unrestricted SCF calculation will be
 performed using Roothaan-Hall, DIIS
 SCF converges when DIIS error is below 1.0e-08
 ---------------------------------------
  Cycle       Energy         DIIS error
 ---------------------------------------
    1    -203.7588321112      3.66e-04  Roothaan Step
 ---------------------------------------
  Cycle       Energy         DIIS error
 ---------------------------------------
    1    -203.9686403749      4.19e-04  
    2    -203.9692358378      5.03e-04  
    3    -203.9701323648      7.18e-05  
    4    -203.9701857746      3.85e-05  
    5    -203.9701953685      2.60e-05  
    6    -203.9702002053      5.04e-06  
    7    -203.9702011731      2.20e-06  
    8    -203.9702014736      9.86e-07  
    9    -203.9702015372      4.84e-07  
   10    -203.9702015501      2.44e-07  
   11    -203.9702015540      1.09e-07  
   12    -203.9702015548      4.47e-08  
   13    -203.9702015549      1.58e-08  
   14    -203.9702015549      5.97e-09  Convergence criterion met
 ---------------------------------------
 SCF time:   CPU 359.09s  wall 11.00s 
<S^2> =          0.753321623
(3)  G-ENP(liq) elect-nuc-pol free energy of system     -203.970201555 a.u.
(4)  G-CDS(liq) cavity-dispersion-solvent structure 
     free energy                                               -0.1792 kcal/mol
(6)  G-S(liq) free energy of system                     -203.970487166 a.u.
 SCF   energy in the final basis set =     -203.9702015549
 Total energy in the final basis set =     -203.9704871665
 
 --------------------------------------------------------------
 
                    Orbital Energies (a.u.)
 --------------------------------------------------------------
 
 Alpha MOs
 -- Occupied --
-19.3055 -19.0560 -10.3992  -2.0334  -2.0193  -1.2419  -0.8409  -0.7379
 -0.6287  -0.5735  -0.5592  -0.3398  -0.3013  -0.2708  -0.2694
 -- Virtual --
  0.0263   0.0325   0.0459   0.0619   0.0648   0.0784   0.0835   0.0888
  0.1120   0.1226   0.1358   0.1521   0.1678   0.1883   0.1977   0.2229
  0.2257   0.2315   0.2444   0.2621   0.2842   0.2896   0.2977   0.3167
  0.3312   0.3387   0.3796   0.3901   0.4226   0.4376   0.4441   0.4706
  0.4899   0.5053   0.5264   0.5690   0.6103   0.6257   0.6344   0.6413
  0.6610   0.6741   0.6833   0.7123   0.7408   0.7496   0.8017   0.8138
  0.8263   0.8647   0.9462   0.9639   1.0055   1.0279   1.0410   1.1546
  1.1946   1.4049   1.4235   1.4823   1.5158   1.6040   1.6161   1.6725
  1.7083   1.7787   1.8921   1.9543   1.9677   2.0743   2.1767   2.6131
  2.7763   2.9122   2.9763   3.0873   3.0919   3.1253   3.1531   3.1676
  3.2493   3.4468   3.8100
 
 Beta MOs
 -- Occupied --
-19.2974 -19.0556 -10.3921  -2.0334  -2.0184  -1.2245  -0.8397  -0.7073
 -0.6014  -0.5498  -0.5159  -0.3008  -0.2703  -0.2683
 -- Virtual --
 -0.0120   0.0273   0.0405   0.0523   0.0623   0.0654   0.0788   0.0846
  0.0910   0.1134   0.1235   0.1389   0.1546   0.1709   0.1893   0.1979
  0.2248   0.2263   0.2362   0.2485   0.2632   0.2861   0.2914   0.3033
  0.3183   0.3378   0.3418   0.3836   0.3923   0.4251   0.4426   0.4515
  0.4726   0.4946   0.5070   0.5337   0.5753   0.6120   0.6302   0.6362
  0.6420   0.6643   0.6796   0.6849   0.7167   0.7434   0.7519   0.8074
  0.8162   0.8299   0.8736   0.9531   0.9679   1.0102   1.0356   1.0494
  1.1605   1.2047   1.4057   1.4254   1.4908   1.5255   1.6219   1.6366
  1.6889   1.7177   1.7854   1.9014   1.9756   1.9898   2.0978   2.1933
  2.6372   2.7999   2.9363   2.9993   3.0885   3.0931   3.1258   3.1545
  3.1686   3.2575   3.4752   3.8232
 --------------------------------------------------------------
 
          Ground-State Mulliken Net Atomic Charges

     Atom                 Charge (a.u.)    Spin (a.u.)
  --------------------------------------------------------
      1 C                     0.209504       0.480691
      2 O                    -0.285090       0.306031
      3 H                     0.064456       0.175395
      4 O                    -1.717398      -0.001324
      5 Li                    0.889214       0.003453
      6 Li                    0.839314       0.035755
  --------------------------------------------------------
  Sum of atomic charges =     0.000000
  Sum of spin   charges =     1.000000

  Building new vdw surfaces
         Merz-Kollman RESP Net Atomic Charges

     Atom                 Charge (a.u.)
  ----------------------------------------
      1 C                     0.119973
      2 O                    -0.249008
      3 H                     0.214281
      4 O                    -1.784664
      5 Li                    0.912378
      6 Li                    0.787040
  ----------------------------------------
  Sum of atomic charges =     0.000000

  Related Dipole Moment =     1.1736 (X  0.6646 Y -0.0622 Z  0.9653)

 -----------------------------------------------------------------
                    Cartesian Multipole Moments
 -----------------------------------------------------------------
    Charge (ESU x 10^10)
                 0.0000
    Dipole Moment (Debye)
         X       0.6302      Y      -0.0834      Z       1.0086
       Tot       1.1922
    Quadrupole Moments (Debye-Ang)
        XX     -27.7227     XY       7.0899     YY      -0.4530
        XZ       4.3381     YZ       1.8852     ZZ     -21.9091
    Octopole Moments (Debye-Ang^2)
       XXX      11.8977    XXY      -6.0587    XYY      -3.8982
       YYY     102.0533    XXZ       0.0904    XYZ      -5.8402
       YYZ      29.9731    XZZ       1.5317    YZZ       2.6069
       ZZZ       9.0162
    Hexadecapole Moments (Debye-Ang^3)
      XXXX    -183.3293   XXXY     129.5605   XXYY    -118.1287
      XYYY      67.2447   YYYY     -49.6647   XXXZ      26.9092
      XXYZ     -12.1673   XYYZ       0.0049   YYYZ      26.2679
      XXZZ     -39.0446   XYZZ      36.3965   YYZZ     -71.4857
      XZZZ      21.3168   YZZZ     -31.4943   ZZZZ     -59.8489
 -----------------------------------------------------------------
 Calculating analytic gradient of the SCF energy
 Gradient of CDS energy
            1           2           3           4           5           6
    1   0.0002349   0.0001532   0.0000198   0.0000515  -0.0000889  -0.0003706
    2  -0.0006090   0.0000612   0.0000806   0.0000132  -0.0003246   0.0007786
    3   0.0008909  -0.0003163  -0.0003392  -0.0000646  -0.0000781  -0.0000927
 Gradient of SCF Energy
            1           2           3           4           5           6
    1  -0.0053549   0.0056156   0.0002564  -0.0035456   0.0031791  -0.0001506
    2   0.0038887  -0.0005356  -0.0032242  -0.0010333   0.0089996  -0.0080952
    3  -0.0082642  -0.0037826   0.0114829  -0.0001675   0.0022283  -0.0014969
 Max gradient component =       1.148E-02
 RMS gradient           =       5.154E-03
 Computing fast CPCM-SWIG gradient
 Updating gradient with PCM contributions...
 -- total gradient after adding PCM contribution --
---------------------------------------------------
  Atom         X              Y              Z     
---------------------------------------------------
   1       0.000384      -0.000239      -0.000138
   2      -0.000379       0.000142       0.000260
   3      -0.000037       0.000067      -0.000107
   4       0.000014       0.000001      -0.000003
   5       0.000021       0.000014      -0.000004
   6      -0.000003       0.000014      -0.000008
---------------------------------------------------
 Number of fixed atoms: 0
 Gradient time:  CPU 47.21 s  wall 1.77 s
 ----------------------------------------------------------------
             Standard Nuclear Orientation (Angstroms)
    I     Atom           X                Y                Z
 ----------------------------------------------------------------
    1      C       0.3960571497    -1.5958064007    -0.0272279861
    2      O       1.2767933321    -1.8828648507    -0.7558720479
    3      H       0.3322620130    -1.8566608950     1.0655006366
    4      O      -1.0526227416     1.5373646072     0.1319756077
    5      Li     -0.6250083147     3.0992048727     0.5079507896
    6      Li     -1.2334114386     0.0300426665    -0.5591670000
 ----------------------------------------------------------------
 Nuclear Repulsion Energy =          72.79119884 hartrees
 There are       15 alpha and       14 beta electrons
 Discretize the solute cavity surface with Lebedev spheres
	Using 110 Lebedev grid points for each H atom
	Using 194 Lebedev grid points for other atoms
	Atomic van der Waals radii will be scaled by 1.20
 Remove points where switching function is < 1.0e-08
 Keep 660 surface tesserae and discard 420 interior tesserae
 Molecular Surface Area = 155.816 Angst**2

                       Distance Matrix (Angstroms)
             C (  1)   O (  2)   H (  3)   O (  4)   Li(  5)
   O (  2)  1.178567
   H (  3)  1.125243  2.051883
   O (  4)  3.455543  4.232307  3.782695
   Li(  5)  4.834472  5.480430  5.078172  1.662395
   Li(  6)  2.362522  3.162125  2.941178  1.668047  3.305851
 
 Requested basis set is def2-SVPD
 There are 42 shells and 98 basis functions
 A cutoff of  1.0D-14 yielded    881 shell pairs
 There are      4845 function pairs (      5462 Cartesian)
 Smallest overlap matrix eigenvalue = 5.13E-04
 Guess MOs from SCF MO coefficient file

 -----------------------------------------------------------------------
  General SCF calculation program by
  Eric Jon Sundstrom, Paul Horn, Yuezhi Mao, Dmitri Zuev, Alec White,
  David Stuck, Shaama M.S., Shane Yost, Joonho Lee, David Small,
  Daniel Levine, Susi Lehtola, Hugh Burton, Evgeny Epifanovsky,
  Bang C. Huynh
 -----------------------------------------------------------------------
 Exchange:     0.1670 Hartree-Fock + 1.0000 wB97X-V + LR-HF
 Correlation:  1.0000 wB97X-V
 Using SG-3 standard quadrature grid
 Nonlocal Correlation:  VV10 with C = 0.0100 and b = 6.00 and scale = 1.00000
 Grid used for NLC:  SG-1 standard quadrature
 
 Citation of the SMD model:
 Marenich, A.V.; Cramer, C.J.; Truhlar, D.G.
 J. Phys. Chem. B 2009, 113, 6378-6396.
 iSolventCode=           0
 Solvent: other                                                           
 
 vradii
            1           2           3           4           5           6
    1   1.8500000   2.2940000   1.2000000   2.2940000   2.1476001   2.1476001
 using 40 threads for integral computing
 -------------------------------------------------------
 OpenMP Integral computing Module                
 Release: version 1.0, May 2013, Q-Chem Inc. Pittsburgh 
 -------------------------------------------------------
 using 40 threads for integral computing
 -------------------------------------------------------
 OpenMP Integral computing Module                
 Release: version 1.0, May 2013, Q-Chem Inc. Pittsburgh 
 -------------------------------------------------------
 -------------------------------------------------------
 OpenMP BLAS3 based DFT computing Module                
 Release: version 1.0, May 2013, Q-Chem Inc. Pittsburgh 
 -------------------------------------------------------
 -------------------------------------------------------
 OpenMP BLAS3 based DFT computing Module                
 Release: version 1.0, May 2013, Q-Chem Inc. Pittsburgh 
 -------------------------------------------------------
 -------------------------------------------------------
 OpenMP BLAS3 based DFT computing Module                
 Release: version 1.0, May 2013, Q-Chem Inc. Pittsburgh 
 -------------------------------------------------------
 A unrestricted SCF calculation will be
 performed using Roothaan-Hall, DIIS
 SCF converges when DIIS error is below 1.0e-08
 ---------------------------------------
  Cycle       Energy         DIIS error
 ---------------------------------------
    1    -203.7589215822      3.66e-04  Roothaan Step
 ---------------------------------------
  Cycle       Energy         DIIS error
 ---------------------------------------
    1    -203.9686285685      4.21e-04  
    2    -203.9692192785      5.07e-04  
    3    -203.9701308525      7.16e-05  
    4    -203.9701846197      3.86e-05  
    5    -203.9701944521      2.62e-05  
    6    -203.9701995046      5.37e-06  
    7    -203.9702006363      2.53e-06  
    8    -203.9702010481      1.22e-06  
    9    -203.9702011488      6.08e-07  
   10    -203.9702011706      2.91e-07  
   11    -203.9702011764      1.20e-07  
   12    -203.9702011774      4.69e-08  
   13    -203.9702011775      1.59e-08  
   14    -203.9702011775      6.00e-09  Convergence criterion met
 ---------------------------------------
 SCF time:   CPU 372.87s  wall 12.00s 
<S^2> =          0.753324945
(3)  G-ENP(liq) elect-nuc-pol free energy of system     -203.970201178 a.u.
(4)  G-CDS(liq) cavity-dispersion-solvent structure 
     free energy                                               -0.1789 kcal/mol
(6)  G-S(liq) free energy of system                     -203.970486250 a.u.
 SCF   energy in the final basis set =     -203.9702011775
 Total energy in the final basis set =     -203.9704862502
 
 --------------------------------------------------------------
 
                    Orbital Energies (a.u.)
 --------------------------------------------------------------
 
 Alpha MOs
 -- Occupied --
-19.3055 -19.0560 -10.3993  -2.0334  -2.0193  -1.2414  -0.8409  -0.7381
 -0.6285  -0.5733  -0.5589  -0.3400  -0.3013  -0.2708  -0.2694
 -- Virtual --
  0.0263   0.0323   0.0459   0.0619   0.0648   0.0784   0.0835   0.0888
  0.1120   0.1226   0.1358   0.1522   0.1678   0.1883   0.1977   0.2230
  0.2257   0.2316   0.2444   0.2621   0.2842   0.2896   0.2977   0.3167
  0.3313   0.3387   0.3796   0.3901   0.4226   0.4377   0.4441   0.4706
  0.4898   0.5052   0.5262   0.5689   0.6102   0.6257   0.6343   0.6413
  0.6612   0.6741   0.6833   0.7123   0.7408   0.7496   0.8017   0.8137
  0.8264   0.8648   0.9462   0.9640   1.0056   1.0280   1.0404   1.1547
  1.1946   1.4048   1.4234   1.4818   1.5159   1.6039   1.6160   1.6723
  1.7083   1.7788   1.8924   1.9544   1.9685   2.0744   2.1771   2.6120
  2.7769   2.9122   2.9763   3.0873   3.0919   3.1253   3.1531   3.1676
  3.2483   3.4460   3.8087
 
 Beta MOs
 -- Occupied --
-19.2974 -19.0556 -10.3922  -2.0334  -2.0184  -1.2240  -0.8397  -0.7075
 -0.6013  -0.5495  -0.5156  -0.3008  -0.2703  -0.2683
 -- Virtual --
 -0.0122   0.0273   0.0404   0.0522   0.0623   0.0654   0.0788   0.0846
  0.0909   0.1134   0.1235   0.1389   0.1546   0.1709   0.1893   0.1979
  0.2248   0.2263   0.2362   0.2485   0.2632   0.2861   0.2914   0.3033
  0.3183   0.3379   0.3419   0.3836   0.3923   0.4251   0.4426   0.4516
  0.4726   0.4945   0.5070   0.5336   0.5752   0.6120   0.6303   0.6361
  0.6420   0.6645   0.6796   0.6849   0.7166   0.7435   0.7519   0.8074
  0.8162   0.8300   0.8738   0.9531   0.9680   1.0103   1.0357   1.0488
  1.1606   1.2047   1.4057   1.4253   1.4903   1.5256   1.6218   1.6365
  1.6888   1.7176   1.7855   1.9018   1.9756   1.9906   2.0979   2.1938
  2.6361   2.8006   2.9362   2.9994   3.0885   3.0931   3.1258   3.1545
  3.1686   3.2565   3.4744   3.8219
 --------------------------------------------------------------
 
          Ground-State Mulliken Net Atomic Charges

     Atom                 Charge (a.u.)    Spin (a.u.)
  --------------------------------------------------------
      1 C                     0.212070       0.480934
      2 O                    -0.286260       0.306256
      3 H                     0.062932       0.174908
      4 O                    -1.717281      -0.001241
      5 Li                    0.889247       0.003439
      6 Li                    0.839292       0.035704
  --------------------------------------------------------
  Sum of atomic charges =    -0.000000
  Sum of spin   charges =     1.000000

  Building new vdw surfaces
         Merz-Kollman RESP Net Atomic Charges

     Atom                 Charge (a.u.)
  ----------------------------------------
      1 C                     0.119653
      2 O                    -0.249352
      3 H                     0.214698
      4 O                    -1.784885
      5 Li                    0.912476
      6 Li                    0.787409
  ----------------------------------------
  Sum of atomic charges =     0.000000

  Related Dipole Moment =     1.1742 (X  0.6612 Y -0.0599 Z  0.9684)

 -----------------------------------------------------------------
                    Cartesian Multipole Moments
 -----------------------------------------------------------------
    Charge (ESU x 10^10)
                -0.0000
    Dipole Moment (Debye)
         X       0.6269      Y      -0.0816      Z       1.0117
       Tot       1.1930
    Quadrupole Moments (Debye-Ang)
        XX     -27.7237     XY       7.0953     YY      -0.4578
        XZ       4.3415     YZ       1.8795     ZZ     -21.9089
    Octopole Moments (Debye-Ang^2)
       XXX      11.8866    XXY      -6.0586    XYY      -3.9153
       YYY     102.0652    XXZ       0.0877    XYZ      -5.8448
       YYZ      29.9813    XZZ       1.5286    YZZ       2.6024
       ZZZ       9.0091
    Hexadecapole Moments (Debye-Ang^3)
      XXXX    -183.3359   XXXY     129.5660   XXYY    -118.1194
      XYYY      67.2757   YYYY     -49.6341   XXXZ      26.9093
      XXYZ     -12.1625   XYYZ       0.0123   YYYZ      26.2568
      XXZZ     -39.0439   XYZZ      36.3973   YYZZ     -71.4663
      XZZZ      21.3188   YZZZ     -31.4848   ZZZZ     -59.8419
 -----------------------------------------------------------------
 Calculating analytic gradient of the SCF energy
 Gradient of CDS energy
            1           2           3           4           5           6
    1   0.0002323   0.0001550   0.0000199   0.0000515  -0.0000889  -0.0003699
    2  -0.0006090   0.0000610   0.0000814   0.0000132  -0.0003246   0.0007780
    3   0.0008974  -0.0003198  -0.0003412  -0.0000646  -0.0000781  -0.0000937
 Gradient of SCF Energy
            1           2           3           4           5           6
    1  -0.0065681   0.0068113   0.0002771  -0.0035420   0.0031771  -0.0001554
    2   0.0042722  -0.0009536  -0.0031757  -0.0010310   0.0089975  -0.0081093
    3  -0.0069151  -0.0047876   0.0111389  -0.0001717   0.0022287  -0.0014932
 Max gradient component =       1.114E-02
 RMS gradient           =       5.225E-03
 Computing fast CPCM-SWIG gradient
 Updating gradient with PCM contributions...
 -- total gradient after adding PCM contribution --
---------------------------------------------------
  Atom         X              Y              Z     
---------------------------------------------------
   1      -0.000834       0.000135       0.001211
   2       0.000826      -0.000277      -0.000742
   3      -0.000022       0.000125      -0.000455
   4       0.000015       0.000003      -0.000004
   5       0.000020       0.000013      -0.000004
   6      -0.000005       0.000001      -0.000007
---------------------------------------------------
 Number of fixed atoms: 0
 Gradient time:  CPU 47.36 s  wall 1.78 s
 ----------------------------------------------------------------
             Standard Nuclear Orientation (Angstroms)
    I     Atom           X                Y                Z
 ----------------------------------------------------------------
    1      C       0.3960571497    -1.5958064007    -0.0292279861
    2      O       1.2767933321    -1.8828648507    -0.7558720479
    3      H       0.3322620130    -1.8566608950     1.0655006366
    4      O      -1.0526227416     1.5373646072     0.1319756077
    5      Li     -0.6250083147     3.0992048727     0.5079507896
    6      Li     -1.2334114386     0.0300426665    -0.5591670000
 ----------------------------------------------------------------
 Nuclear Repulsion Energy =          72.80943208 hartrees
 There are       15 alpha and       14 beta electrons
 Discretize the solute cavity surface with Lebedev spheres
	Using 110 Lebedev grid points for each H atom
	Using 194 Lebedev grid points for other atoms
	Atomic van der Waals radii will be scaled by 1.20
 Remove points where switching function is < 1.0e-08
 Keep 660 surface tesserae and discard 420 interior tesserae
 Molecular Surface Area = 155.821 Angst**2

                       Distance Matrix (Angstroms)
             C (  1)   O (  2)   H (  3)   O (  4)   Li(  5)
   O (  2)  1.177332
   H (  3)  1.127185  2.051883
   O (  4)  3.455636  4.232307  3.782695
   Li(  5)  4.834694  5.480430  5.078172  1.662395
   Li(  6)  2.362073  3.162125  2.941178  1.668047  3.305851
 
 Requested basis set is def2-SVPD
 There are 42 shells and 98 basis functions
 A cutoff of  1.0D-14 yielded    881 shell pairs
 There are      4845 function pairs (      5462 Cartesian)
 Smallest overlap matrix eigenvalue = 5.13E-04
 Guess MOs from SCF MO coefficient file

 -----------------------------------------------------------------------
  General SCF calculation program by
  Eric Jon Sundstrom, Paul Horn, Yuezhi Mao, Dmitri Zuev, Alec White,
  David Stuck, Shaama M.S., Shane Yost, Joonho Lee, David Small,
  Daniel Levine, Susi Lehtola, Hugh Burton, Evgeny Epifanovsky,
  Bang C. Huynh
 -----------------------------------------------------------------------
 Exchange:     0.1670 Hartree-Fock + 1.0000 wB97X-V + LR-HF
 Correlation:  1.0000 wB97X-V
 Using SG-3 standard quadrature grid
 Nonlocal Correlation:  VV10 with C = 0.0100 and b = 6.00 and scale = 1.00000
 Grid used for NLC:  SG-1 standard quadrature
 
 Citation of the SMD model:
 Marenich, A.V.; Cramer, C.J.; Truhlar, D.G.
 J. Phys. Chem. B 2009, 113, 6378-6396.
 iSolventCode=           0
 Solvent: other                                                           
 
 vradii
            1           2           3           4           5           6
    1   1.8500000   2.2940000   1.2000000   2.2940000   2.1476001   2.1476001
 using 40 threads for integral computing
 -------------------------------------------------------
 OpenMP Integral computing Module                
 Release: version 1.0, May 2013, Q-Chem Inc. Pittsburgh 
 -------------------------------------------------------
 using 40 threads for integral computing
 -------------------------------------------------------
 OpenMP Integral computing Module                
 Release: version 1.0, May 2013, Q-Chem Inc. Pittsburgh 
 -------------------------------------------------------
 -------------------------------------------------------
 OpenMP BLAS3 based DFT computing Module                
 Release: version 1.0, May 2013, Q-Chem Inc. Pittsburgh 
 -------------------------------------------------------
 -------------------------------------------------------
 OpenMP BLAS3 based DFT computing Module                
 Release: version 1.0, May 2013, Q-Chem Inc. Pittsburgh 
 -------------------------------------------------------
 -------------------------------------------------------
 OpenMP BLAS3 based DFT computing Module                
 Release: version 1.0, May 2013, Q-Chem Inc. Pittsburgh 
 -------------------------------------------------------
 A unrestricted SCF calculation will be
 performed using Roothaan-Hall, DIIS
 SCF converges when DIIS error is below 1.0e-08
 ---------------------------------------
  Cycle       Energy         DIIS error
 ---------------------------------------
    1    -203.7589536677      3.66e-04  Roothaan Step
 ---------------------------------------
  Cycle       Energy         DIIS error
 ---------------------------------------
    1    -203.9686485721      4.16e-04  
    2    -203.9692499587      4.98e-04  
[...]
 ----------------------------------------------------------------
             Standard Nuclear Orientation (Angstroms)
    I     Atom           X                Y                Z
 ----------------------------------------------------------------
    1      C       0.3960571497    -1.5958064007    -0.0282279861
    2      O       1.2767933321    -1.8828648507    -0.7558720479
    3      H       0.3322620130    -1.8566608950     1.0655006366
    4      O      -1.0526227416     1.5373646072     0.1319756077
    5      Li     -0.6250083147     3.0992048727     0.5079507896
    6      Li     -1.2334114386     0.0300426665    -0.5591670000
 ----------------------------------------------------------------
 Nuclear Repulsion Energy =          72.80031295 hartrees
 There are       15 alpha and       14 beta electrons
 old dipole drv.
            1           2           3           4           5           6
    1   0.4357284  -0.1942745  -0.4987496  -0.7068221   0.1946411   0.4126152
    2  -0.3272934   0.1715448   0.2114617   0.2937424  -0.2693174  -0.1826216
    3  -0.3825027   0.0456353   0.6098397   0.4472300  -0.1282267  -0.6271737
            7           8           9          10          11          12
    1   0.2593639   0.0010638   0.0532202  -1.6768926   0.0684655  -0.0081417
    2   0.0480655   0.2349056   0.0168168   0.0443666  -1.9927608  -0.0763905
    3  -0.0833449   0.1123539   0.0478119  -0.0122425  -0.0691977  -1.6554202
           13          14          15          16          17          18
    1   0.8274217  -0.0044424  -0.0016253   0.8611991  -0.0654541   0.0426820
    2   0.0348129   0.9435381   0.0269494  -0.0936957   0.9120884   0.0037846
    3   0.0108728   0.0380023   0.8419265   0.0199873   0.0014333   0.7830173
 New transposed dipole drv.
            1           2           3
    1   0.4357284  -0.3272934  -0.3825027
    2  -0.1942745   0.1715448   0.0456353
    3  -0.4987496   0.2114617   0.6098397
    4  -0.7068221   0.2937424   0.4472300
    5   0.1946411  -0.2693174  -0.1282267
    6   0.4126152  -0.1826216  -0.6271737
    7   0.2593639   0.0480655  -0.0833449
    8   0.0010638   0.2349056   0.1123539
    9   0.0532202   0.0168168   0.0478119
   10  -1.6768926   0.0443666  -0.0122425
   11   0.0684655  -1.9927608  -0.0691977
   12  -0.0081417  -0.0763905  -1.6554202
   13   0.8274217   0.0348129   0.0108728
   14  -0.0044424   0.9435381   0.0380023
   15  -0.0016253   0.0269494   0.8419265
   16   0.8611991  -0.0936957   0.0199873
   17  -0.0654541   0.9120884   0.0014333
   18   0.0426820   0.0037846   0.7830173
FINAL TENSOR RESULT:
Order 2, Length 18
    Atom      X          Y          Z
     1 Order 1, Length 18
    Atom      X          Y          Z
     1    6.281132855135076e-01  -2.068638701894600e-01  -4.383492977893174e-01
     2   -5.864478527508449e-01   1.964709983751627e-01   4.384164583793855e-01
     3   -3.496751385420169e-02   1.075775693099690e-02   4.862419389387842e-03
     4    2.778491030511914e-03  -6.242027562547402e-03  -2.442739235316713e-05
     5    4.000469486668576e-04   8.444235469507149e-04   2.457764778624261e-04
     6   -9.876588006820758e-03   5.032703836561293e-03  -5.150785521885559e-03

Order 1, Length 18
    Atom      X          Y          Z
     1   -2.068638701894600e-01   1.243309922897154e-01   7.465709089667853e-02
     2    1.909576793656135e-01  -8.069948162346009e-02  -1.349021668280416e-01
     3    1.471491687483690e-02  -3.542848131683936e-02   5.985319270188053e-02
     4    8.228888482919233e-04  -1.105695059415707e-03   1.535179174089474e-05
     5   -1.767991641616822e-04  -3.643721379601242e-04  -9.362666734371047e-05
     6    5.450231904237235e-04  -6.733259230117201e-03   4.701233150143450e-04

Order 1, Length 18
    Atom      X          Y          Z
     1   -4.383492977893174e-01   7.465709089667853e-02   6.389758129777623e-01
     2    4.473286571643852e-01  -1.417188268494428e-01  -3.955715968686151e-01
     3   -6.968057645088069e-03   6.560809263409867e-02  -2.430911882556521e-01
     4   -2.961636698053749e-04   1.929520754923678e-03  -3.861163594383917e-04
     5   -2.413642497684181e-04  -4.289240156827475e-04  -1.420367125757078e-04
     6   -1.473745569638265e-03  -4.694156512340781e-05   2.152084385181635e-04


     2 Order 1, Length 18
    Atom      X          Y          Z
     1   -5.864478527508449e-01   1.909576793656135e-01   4.473286571643852e-01
     2    5.834626546890697e-01  -1.905405453156556e-01  -4.699755216634789e-01
     3    3.852796211537006e-03  -4.202436863803586e-03   1.916961454518184e-02
     4   -1.571542091735517e-03   4.719923501422309e-03  -2.468311305979761e-04
     5   -3.252536088582036e-04  -6.250890776612309e-04  -1.727888912636902e-04
     6    1.029242767232819e-03  -3.095712367379860e-04   3.896648909845942e-03

Order 1, Length 18
    Atom      X          Y          Z
     1    1.964709983751627e-01  -8.069948162346009e-02  -1.417188268494428e-01
     2   -1.905405453156556e-01   7.101502993230749e-02   1.440656100172548e-01
     3   -8.356627477448864e-03   8.937211059451645e-03  -1.665348544212657e-03
     4   -2.798771770639424e-04  -2.372865939113014e-04  -1.319456029389581e-04
     5    1.012742148742546e-04   1.910760974614979e-04   3.865166273081873e-05
     6    2.604859049514431e-03   7.936279918334579e-04  -5.880085371565748e-04

Order 1, Length 18
    Atom      X          Y          Z
     1    4.384164583793855e-01  -1.349021668280416e-01  -3.955715968686151e-01
     2   -4.699755216634789e-01   1.440656100172548e-01   4.248074205590478e-01
     3    3.150332144293926e-02  -8.588068649440625e-03  -2.841366895720722e-02
     4    5.464402761888995e-04  -2.183873766752342e-03   2.229334317842224e-04
     5    2.043227145084411e-04   3.891058146641767e-04   1.013872777442516e-04
     6   -6.950036775442538e-04   1.219389359997069e-03  -1.146549499515559e-03


     3 Order 1, Length 18
    Atom      X          Y          Z
     1   -3.496751385420169e-02   1.471491687483690e-02  -6.968057645088069e-03
     2    3.852796211537006e-03  -8.356627477448864e-03   3.150332144293926e-02
     3    3.056288245152568e-02  -7.855533144060350e-03  -2.425284697553165e-02
     4   -5.755061191386846e-04   7.985143044625337e-04   3.536708822970571e-04
     5   -3.201239656706611e-05  -1.000760202992651e-04  -3.818682353906395e-05
     6    1.159436469749472e-03   7.988419724154303e-04  -5.979166200975625e-04

Order 1, Length 18
    Atom      X          Y          Z
     1    1.075775693099690e-02  -3.542848131683936e-02   6.560809263409867e-02
     2   -4.202436863803586e-03   8.937211059451645e-03  -8.588068649440625e-03
     3   -7.855533144060350e-03   2.488430474583702e-02  -5.875980557106152e-02
     4   -9.309736636830795e-04   1.292398147029492e-03  -1.752149494375177e-04
     5    1.624205239749615e-05  -3.813412711219826e-05   2.770958271916779e-05
     6    2.215039965663097e-03   3.528306762559804e-04   1.887218196497089e-03

Order 1, Length 18
    Atom      X          Y          Z
     1    4.862419389387842e-03   5.985319270188053e-02  -2.430911882556521e-01
     2    1.916961454518184e-02  -1.665348544212657e-03  -2.841366895720722e-02
     3   -2.425284697553165e-02  -5.875980557106152e-02   2.724021934201681e-01
     4   -2.374097123192568e-06  -2.882728213685636e-04   3.256434348355675e-04
     5    2.774179850694732e-05   4.879570542132774e-05   3.164228075839459e-05
     6    1.954060311044975e-04   8.114600297939726e-04  -1.254564678166073e-03


     4 Order 1, Length 18
    Atom      X          Y          Z
     1    2.778491030511914e-03   8.228888482919233e-04  -2.961636698053749e-04
     2   -1.571542091735517e-03  -2.798771770639424e-04   5.464402761888995e-04
     3   -5.755061191386846e-04  -9.309736636830795e-04  -2.374097123192568e-06
     4    1.016823736619113e-02   4.140046185293397e-02   1.159335604429211e-02
     5   -9.152971613143962e-03  -3.074452088014652e-02  -7.227377170438939e-03
     6   -1.646700855976969e-03  -1.026798704344671e-02  -4.613882717806380e-03

Order 1, Length 18
    Atom      X          Y          Z
     1   -6.242027562547402e-03  -1.105695059415707e-03   1.929520754923678e-03
     2    4.719923501422309e-03  -2.372865939113014e-04  -2.183873766752342e-03
     3    7.985143044625337e-04   1.292398147029492e-03  -2.882728213685636e-04
     4    4.140046185293397e-02   2.052130489647314e-01   7.028734645520303e-02
     5   -2.961257843900583e-02  -1.087244877835799e-01  -2.599617871909994e-02
     6   -1.106430578689706e-02  -9.643800980836018e-02  -4.374853412081837e-02

Order 1, Length 18
    Atom      X          Y          Z
     1   -2.442739235316713e-05   1.535179174089474e-05  -3.861163594383917e-04
     2   -2.468311305979761e-04  -1.319456029389581e-04   2.229334317842224e-04
     3    3.536708822970571e-04  -1.752149494375177e-04   3.256434348355675e-04
     4    1.159335604429211e-02   7.028734645520303e-02   2.864257330911492e-02
     5   -6.585238501687893e-03  -2.457014265517200e-02  -6.740937137800268e-03
     6   -5.090532534032336e-03  -4.542539896566682e-02  -2.206409699486528e-02


     5 Order 1, Length 18
    Atom      X          Y          Z
     1    4.000469486668576e-04  -1.767991641616822e-04  -2.413642497684181e-04
     2   -3.252536088582036e-04   1.012742148742546e-04   2.043227145084411e-04
     3   -3.201239656706611e-05   1.624205239749615e-05   2.774179850694732e-05
     4   -9.152971613143962e-03  -2.961257843900583e-02  -6.585238501687893e-03
     5    9.180865148623152e-03   3.112514678776260e-02   7.332035392911363e-03
     6   -7.067585140375194e-05  -1.453279047451680e-03  -7.374972925899565e-04

Order 1, Length 18
    Atom      X          Y          Z
     1    8.444235469507149e-04  -3.643721379601242e-04  -4.289240156827475e-04
     2   -6.250890776612309e-04   1.910760974614979e-04   3.891058146641767e-04
     3   -1.000760202992651e-04  -3.813412711219826e-05   4.879570542132774e-05
     4   -3.074452088014652e-02  -1.087244877835799e-01  -2.457014265517200e-02
     5    3.112514678776260e-02   1.139247385206579e-01   2.705992447067825e-02
     6   -4.998811788408744e-04  -4.988815891522043e-03  -2.498762718863609e-03

Order 1, Length 18
    Atom      X          Y          Z
     1    2.457764778624261e-04  -9.362666734371047e-05  -1.420367125757078e-04
     2   -1.727888912636902e-04   3.865166273081873e-05   1.013872777442516e-04
     3   -3.818682353906395e-05   2.770958271916779e-05   3.164228075839459e-05
     4   -7.227377170438939e-03  -2.599617871909994e-02  -6.740937137800268e-03
     5    7.332035392911363e-03   2.705992447067825e-02   7.199992013553353e-03
     6   -1.394605154770136e-04  -1.036481496285544e-03  -4.500483196332561e-04


     6 Order 1, Length 18
    Atom      X          Y          Z
     1   -9.876588006820758e-03   5.450231904237235e-04  -1.473745569638265e-03
     2    1.029242767232819e-03   2.604859049514431e-03  -6.950036775442538e-04
     3    1.159436469749472e-03   2.215039965663097e-03   1.954060311044975e-04
     4   -1.646700855976969e-03  -1.106430578689706e-02  -5.090532534032336e-03
     5   -7.067585140375194e-05  -4.998811788408744e-04  -1.394605154770136e-04
     6    9.405282274648432e-03   6.199284604213992e-03   7.203431000877652e-03

Order 1, Length 18
    Atom      X          Y          Z
     1    5.032703836561293e-03  -6.733259230117201e-03  -4.694156512340781e-05
     2   -3.095712367379860e-04   7.936279918334579e-04   1.219389359997069e-03
     3    7.988419724154303e-04   3.528306762559804e-04   8.114600297939726e-04
     4   -1.026798704344671e-02  -9.643800980836018e-02  -4.542539896566682e-02
     5   -1.453279047451680e-03  -4.988815891522043e-03  -1.036481496285544e-03
     6    6.199284604213992e-03   1.070136447480016e-01   4.447793965812060e-02

Order 1, Length 18
    Atom      X          Y          Z
     1   -5.150785521885559e-03   4.701233150143450e-04   2.152084385181635e-04
     2    3.896648909845942e-03  -5.880085371565748e-04  -1.146549499515559e-03
     3   -5.979166200975625e-04   1.887218196497089e-03  -1.254564678166073e-03
     4   -4.613882717806380e-03  -4.374853412081837e-02  -2.206409699486528e-02
     5   -7.374972925899565e-04  -2.498762718863609e-03  -4.500483196332561e-04
     6    7.203431000877652e-03   4.447793965812060e-02   2.469998555858321e-02




 # Finishing finite difference calculation for IDERIV #
 ######################################################
 ######################################################
 Requested basis set is def2-SVPD
 There are 42 shells and 98 basis functions
 **********************************************************************
 **                                                                  **
 **                       VIBRATIONAL ANALYSIS                       **
 **                       --------------------                       **
 **                                                                  **
 **        VIBRATIONAL FREQUENCIES (CM**-1) AND NORMAL MODES         **
 **     FORCE CONSTANTS (mDYN/ANGSTROM) AND REDUCED MASSES (AMU)     **
 **                  INFRARED INTENSITIES (KM/MOL)                   **
 **                                                                  **
 **********************************************************************
 

 Mode:                 1                      2                      3
 Frequency:       -58.02                  53.93                  61.49
 Force Cnst:      0.0136                 0.0149                 0.0082
 Red. Mass:       6.8507                 8.6812                 3.6841
 IR Active:          YES                    YES                    YES
 IR Intens:      109.772                209.806                 99.644
 Raman Active:       YES                    YES                    YES
               X      Y      Z        X      Y      Z        X      Y      Z
 C          0.124 -0.239 -0.005    0.048  0.040  0.063    0.141  0.177  0.097
 O          0.063 -0.229 -0.077    0.043  0.150  0.015   -0.097 -0.182 -0.051
 H         -0.015 -0.650 -0.109    0.103 -0.038  0.048    0.471  0.665  0.231
 O         -0.287  0.295 -0.012   -0.370  0.030 -0.168    0.012  0.038 -0.170
 Li        -0.085  0.226  0.033    0.774 -0.360  0.147   -0.117 -0.052  0.356
 Li         0.386  0.125  0.193   -0.125 -0.115  0.086    0.000 -0.017 -0.052
 TransDip   0.280 -0.174  0.063    0.403 -0.168  0.158    0.006  0.050  0.316

 Mode:                 4                      5                      6
 Frequency:        81.31                 156.13                 251.00
 Force Cnst:      0.0238                 0.0901                 0.1961
 Red. Mass:       6.1040                 6.2738                 5.2839
 IR Active:          YES                    YES                    YES
 IR Intens:      236.807                 56.026                 44.188
 Raman Active:       YES                    YES                    YES
               X      Y      Z        X      Y      Z        X      Y      Z
 C          0.068  0.227 -0.062    0.010 -0.074  0.312   -0.154  0.268 -0.190
 O          0.002 -0.199  0.024   -0.251  0.223 -0.124   -0.047 -0.006  0.057
 H          0.060  0.677  0.043    0.413 -0.429  0.245   -0.557  0.243 -0.214
 O         -0.191 -0.082  0.304    0.000 -0.095  0.005   -0.007 -0.060 -0.051
 Li         0.149 -0.041 -0.267   -0.023 -0.082 -0.042   -0.021 -0.074 -0.011
 Li         0.157  0.195 -0.378    0.519 -0.022 -0.257    0.486 -0.270  0.355
 TransDip   0.221  0.190 -0.397    0.225 -0.039 -0.073    0.138 -0.077  0.142

 Mode:                 7                      8                      9
 Frequency:       449.83                 715.47                 921.80
 Force Cnst:      0.1903                 2.1195                 4.7269
 Red. Mass:       1.5961                 7.0276                 9.4417
 IR Active:          YES                    YES                    YES
 IR Intens:       55.807                  9.416                469.211
 Raman Active:       YES                    YES                    YES
               X      Y      Z        X      Y      Z        X      Y      Z
 C         -0.105 -0.170 -0.062   -0.004 -0.021 -0.002    0.003  0.003 -0.000
 O          0.029  0.049  0.017    0.007  0.002  0.002   -0.004  0.002 -0.001
 H          0.430  0.846  0.211    0.059  0.059  0.022   -0.044  0.015 -0.000
 O         -0.014  0.020  0.005    0.046  0.006 -0.062    0.097  0.484  0.167
 Li         0.007  0.025  0.007   -0.178 -0.645 -0.152   -0.160 -0.584 -0.141
 Li         0.077 -0.014  0.020    0.055  0.655  0.290   -0.051 -0.530 -0.236
 TransDip   0.188  0.135  0.059   -0.071 -0.005  0.068   -0.094 -0.655 -0.208

 Mode:                10                     11                     12
 Frequency:      1085.34                1976.68                2849.48
 Force Cnst:      0.8640                23.5510                 5.2272
 Red. Mass:       1.2449                10.2302                 1.0927
 IR Active:          YES                    YES                    YES
 IR Intens:       73.035                160.878                 10.497
 Raman Active:       YES                    YES                    YES
               X      Y      Z        X      Y      Z        X      Y      Z
 C         -0.077  0.063 -0.075    0.528 -0.183 -0.387    0.015  0.015 -0.085
 O          0.002 -0.018  0.064   -0.395  0.129  0.323   -0.006  0.003  0.003
 H          0.874 -0.452 -0.111    0.001  0.128 -0.495   -0.077 -0.219  0.969
 O          0.000  0.002  0.001    0.001 -0.003 -0.000    0.000 -0.000  0.000
 Li        -0.001 -0.002 -0.001    0.001  0.001  0.000    0.000  0.000  0.000
 Li         0.002 -0.003 -0.004   -0.005  0.005 -0.004   -0.000  0.000 -0.001
 TransDip   0.211 -0.055 -0.166    0.270 -0.144 -0.267    0.079 -0.059 -0.033

 STANDARD THERMODYNAMIC QUANTITIES AT   298.15 K  AND     1.00 ATM

   This Molecule has  1 Imaginary Frequencies
   Zero point vibrational energy:       12.298 kcal/mol

   Atom    1 Element C  Has Mass   12.00000
   Atom    2 Element O  Has Mass   15.99491
   Atom    3 Element H  Has Mass    1.00783
   Atom    4 Element O  Has Mass   15.99491
   Atom    5 Element Li Has Mass    7.01600
   Atom    6 Element Li Has Mass    7.01600
   Molecular Mass:    59.029650 amu
   Principal axes and moments of inertia in amu*Bohr^2:
                             1           2           3
    Eigenvalues --       84.10790   894.68161   931.55253
          X              -0.42992     0.90229    -0.03213
          Y               0.88812     0.41623    -0.19495
          Z               0.16252     0.11235     0.98029
   Rotational Symmetry Number is   1
   The Molecule is an Asymmetric Top
   Translational Enthalpy:        0.889 kcal/mol
   Rotational Enthalpy:           0.889 kcal/mol
   Vibrational Enthalpy:         14.791 kcal/mol
   gas constant (RT):             0.592 kcal/mol
   Translational Entropy:        38.147  cal/mol.K
   Rotational Entropy:           25.753  cal/mol.K
   Vibrational Entropy:          18.535  cal/mol.K

   Total Enthalpy:               17.161 kcal/mol
   Total Entropy:                82.435  cal/mol.K
Archival summary:
1\1\n0102.lr6\FREQ\ProcedureUnspecified\BasisUnspecified\21i21(2)\ewcspott\WedNov1109:08:452020WedNov1109:08:452020\0\\#,FREQ,ProcedureUnspecified,BasisUnspecified,\\0,2\O\C,1,1.17795\H,2,1.12621,1,125.86\Li,2,2.3623,1,122.999,3,165.368,0\O,4,1.66805,2,117.004,1,-101.411,0\Li,5,1.66239,4,166.066,2,84.026,0\\\@

 Total job time:  504.82s(wall), 15796.53s(cpu) 
 Wed Nov 11 09:08:45 2020

        *************************************************************
        *                                                           *
        *  Thank you very much for using Q-Chem.  Have a nice day.  *
        *                                                           *
        *************************************************************


