
Running Job 1 of 1 mol.qin
qchem mol.qin_17162.0 /tmp/scratch/ 0
/clusterfs/mp/software/qchem/exe/qcprog.exe_s mol.qin_17162.0 /tmp/scratch/
                  Welcome to Q-Chem
     A Quantum Leap Into The Future Of Chemistry


 Q-Chem 5.2, Q-Chem, Inc., Pleasanton, CA (2019)

 Yihan Shao,  Zhengting Gan,  E. Epifanovsky,  A. T. B. Gilbert,  M. Wormit,  
 J. Kussmann,  A. W. Lange,  A. Behn,  Jia Deng,  Xintian Feng,  D. Ghosh,  
 M. Goldey,  P. R. Horn,  L. D. Jacobson,  I. Kaliman,  T. Kus,  A. Landau,  
 Jie Liu,  E. I. Proynov,  R. M. Richard,  R. P. Steele,  E. J. Sundstrom,  
 H. L. Woodcock III,  P. M. Zimmerman,  D. Zuev,  B. Alam,  B. Albrecht,  
 E. Alguire,  S. A. Baeppler,  D. Barton,  Z. Benda,  Y. A. Bernard,  
 E. J. Berquist,  K. B. Bravaya,  H. Burton,  K. Carter-Fenk,  D. Casanova,  
 Chun-Min Chang,  Yunqing Chen,  A. Chien,  K. D. Closser,  M. P. Coons,  
 S. Coriani,  S. Dasgupta,  A. L. Dempwolff,  M. Diedenhofen,  Hainam Do,  
 R. G. Edgar,  Po-Tung Fang,  S. Faraji,  S. Fatehi,  Qingguo Feng,  
 J. Fosso-Tande,  J. Gayvert,  Qinghui Ge,  A. Ghysels,  G. Gidofalvi,  
 J. Gomes,  J. Gonthier,  A. Gunina,  D. Hait,  M. W. D. Hanson-Heine,  
 P. H. P. Harbach,  A. W. Hauser,  M. F. Herbst,  J. E. Herr,  
 E. G. Hohenstein,  Z. C. Holden,  Kerwin Hui,  B. C. Huynh,  T.-C. Jagau,  
 Hyunjun Ji,  B. Kaduk,  K. Khistyaev,  Jaehoon Kim,  P. Klunzinger,  K. Koh,  
 D. Kosenkov,  L. Koulias,  T. Kowalczyk,  C. M. Krauter,  A. Kunitsa,  
 Ka Un Lao,  A. Laurent,  K. V. Lawler,  Joonho Lee,  D. Lefrancois,  
 S. Lehtola,  D. S. Levine,  Yi-Pei Li,  You-Sheng Lin,  Fenglai Liu,  
 Kuan-Yu Liu,  E. Livshits,  M. Loipersberger,  A. Luenser,  P. Manohar,  
 E. Mansoor,  S. F. Manzer,  Shan-Ping Mao,  Yuezhi Mao,  N. Mardirossian,  
 A. V. Marenich,  T. Markovich,  L. A. Martinez-Martinez,  S. A. Maurer,  
 N. J. Mayhall,  S. C. McKenzie,  J.-M. Mewes,  P. Morgante,  A. F. Morrison,  
 J. W. Mullinax,  K. Nanda,  T. S. Nguyen-Beck,  R. Olivares-Amaya,  
 J. A. Parkhill,  S. K. Paul,  Zheng Pei,  T. M. Perrine,  F. Plasser,  
 P. Pokhilko,  S. Prager,  A. Prociuk,  E. Ramos,  B. Rana,  D. R. Rehn,  
 F. Rob,  M. Scheurer,  M. Schneider,  N. Sergueev,  S. M. Sharada,  
 S. Sharma,  D. W. Small,  T. Stauch,  C. J. Stein,  T. Stein,  Yu-Chuan Su,  
 S. P. Veccham,  A. J. W. Thom,  A. Tkatchenko,  T. Tsuchimochi,  
 N. M. Tubman,  L. Vogt,  M. L. Vidal,  O. Vydrov,  M. A. Watson,  J. Wenzel,  
 M. de Wergifosse,  T. A. Wesolowski,  A. White,  J. Witte,  A. Yamada,  
 Jun Yang,  K. Yao,  S. Yeganeh,  S. R. Yost,  Zhi-Qiang You,  A. Zech,  
 Igor Ying Zhang,  Xing Zhang,  Yan Zhao,  Ying Zhu,  B. R. Brooks,  
 G. K. L. Chan,  C. J. Cramer,  M. S. Gordon,  W. J. Hehre,  A. Klamt,  
 M. W. Schmidt,  C. D. Sherrill,  D. G. Truhlar,  A. Aspuru-Guzik,  R. Baer,  
 A. T. Bell,  N. A. Besley,  Jeng-Da Chai,  A. E. DePrince, III,  
 R. A. DiStasio Jr.,  A. Dreuw,  B. D. Dunietz,  T. R. Furlani,  
 Chao-Ping Hsu,  Yousung Jung,  Jing Kong,  D. S. Lambrecht,  WanZhen Liang,  
 C. Ochsenfeld,  V. A. Rassolov,  L. V. Slipchenko,  J. E. Subotnik,  
 T. Van Voorhis,  J. M. Herbert,  A. I. Krylov,  P. M. W. Gill,  M. Head-Gordon

 Contributors to earlier versions of Q-Chem not listed above: 
 R. D. Adamson,  B. Austin,  J. Baker,  G. J. O. Beran,  K. Brandhorst,  
 S. T. Brown,  E. F. C. Byrd,  A. K. Chakraborty,  C.-L. Cheng,  
 Siu Hung Chien,  D. M. Chipman,  D. L. Crittenden,  H. Dachsel,  
 R. J. Doerksen,  A. D. Dutoi,  L. Fusti-Molnar,  W. A. Goddard III,  
 A. Golubeva-Zadorozhnaya,  S. R. Gwaltney,  G. Hawkins,  A. Heyden,  
 S. Hirata,  G. Kedziora,  F. J. Keil,  C. Kelley,  Jihan Kim,  R. A. King,  
 R. Z. Khaliullin,  P. P. Korambath,  W. Kurlancheek,  A. M. Lee,  M. S. Lee,  
 S. V. Levchenko,  Ching Yeh Lin,  D. Liotard,  R. C. Lochan,  I. Lotan,  
 P. E. Maslen,  N. Nair,  D. P. O'Neill,  D. Neuhauser,  E. Neuscamman,  
 C. M. Oana,  R. Olson,  B. Peters,  R. Peverati,  P. A. Pieniazek,  
 Y. M. Rhee,  J. Ritchie,  M. A. Rohrdanz,  E. Rosta,  N. J. Russ,  
 H. F. Schaefer III,  N. E. Schultz,  N. Shenvi,  A. C. Simmonett,  A. Sodt,  
 D. Stuck,  K. S. Thanthiriwatte,  V. Vanovschi,  Tao Wang,  A. Warshel,  
 C. F. Williams,  Q. Wu,  X. Xu,  W. Zhang

 Please cite Q-Chem as follows:
 Y. Shao et al., Mol. Phys. 113, 184-215 (2015)
 DOI: 10.1080/00268976.2014.952696

 Q-Chem 5.2.2 for Intel X86 EM64T Linux

 Parts of Q-Chem use Armadillo 8.300.2 (Tropical Shenanigans).
 http://arma.sourceforge.net/

 Q-Chem begins on Wed Nov 11 08:57:46 2020  

Host: 
0

     Scratch files written to /tmp/scratch//
 Nov2519 |scratch|qcdevops|jenkins|workspace|build_RNUM 6829   
Processing $rem in /clusterfs/mp/software/qchem/config/preferences:
	 MEM_TOTAL  96000 
NAlpha2: 30
NElect   29
Mult     2
Symmetry turned off for PCM/SM12/SMD calculation

Checking the input file for inconsistencies... 	...done.

--------------------------------------------------------------
User input:
--------------------------------------------------------------
$molecule
0 2
C      0.3967596691     -1.5703473831     -0.0259748355
O      1.2947800350     -1.8337144031     -0.7414502642
H      0.3239679043     -1.8356770991      1.0661458281
O     -1.1224527235      1.5235652923      0.1280034475
Li     -0.5343080478      3.0320255941      0.5057178648
Li     -1.2646768372      0.0154279989     -0.5702820407
$end

$rem
job_type = ts
basis = def2-svpd
max_scf_cycles = 200
gen_scfman = true
xc_grid = 3
scf_algorithm = diis
resp_charges = true
symmetry = false
sym_ignore = true
method = wb97xv
solvent_method = smd
ideriv = 1
thresh = 14
scf_guess_always = True
geom_opt_max_cycles = 250
geom_opt_hessian = read
$end

$smx
solvent other
$end
--------------------------------------------------------------
 ----------------------------------------------------------------
             Standard Nuclear Orientation (Angstroms)
    I     Atom           X                Y                Z
 ----------------------------------------------------------------
    1      C       0.3967596691    -1.5703473831    -0.0259748355
    2      O       1.2947800350    -1.8337144031    -0.7414502642
    3      H       0.3239679043    -1.8356770991     1.0661458281
    4      O      -1.1224527235     1.5235652923     0.1280034475
    5      Li     -0.5343080478     3.0320255941     0.5057178648
    6      Li     -1.2646768372     0.0154279989    -0.5702820407
 ----------------------------------------------------------------
 Nuclear Repulsion Energy =          72.94498433 hartrees
 There are       15 alpha and       14 beta electrons
 Requested basis set is def2-SVPD
 There are 42 shells and 98 basis functions

 Total QAlloc Memory Limit  96000 MB
 Mega-Array Size       188 MB
 MEM_STATIC part       192 MB
 
 Citation of the SMD model:
 Marenich, A.V.; Cramer, C.J.; Truhlar, D.G.
 J. Phys. Chem. B 2009, 113, 6378-6396.
 iSolventCode=           0
 Solvent: other                                                           
 
 vradii
            1           2           3           4           5           6
    1   1.8500000   2.2940000   1.2000000   2.2940000   2.1476001   2.1476001
 Changing PCM_VDW_RADII to SMD_RADIUS
 Discretize the solute cavity surface with Lebedev spheres
	Using 110 Lebedev grid points for each H atom
	Using 194 Lebedev grid points for other atoms
	Atomic van der Waals radii will be scaled by 1.20
 Remove points where switching function is < 1.0e-08
 Keep 661 surface tesserae and discard 419 interior tesserae
 Molecular Surface Area = 155.758 Angst**2
 A cutoff of  1.0D-14 yielded    882 shell pairs
 There are      4850 function pairs (      5468 Cartesian)
 Smallest overlap matrix eigenvalue = 5.12E-04

 Scale SEOQF with 1.000000e-01/1.000000e-01/1.000000e-01

 Standard Electronic Orientation quadrupole field applied
 Nucleus-field energy     =     0.0000000068 hartrees
 Guess from superposition of atomic densities
 Warning:  Energy on first SCF cycle will be non-variational
 SAD guess density has 29.000000 electrons

 -----------------------------------------------------------------------
  General SCF calculation program by
  Eric Jon Sundstrom, Paul Horn, Yuezhi Mao, Dmitri Zuev, Alec White,
  David Stuck, Shaama M.S., Shane Yost, Joonho Lee, David Small,
  Daniel Levine, Susi Lehtola, Hugh Burton, Evgeny Epifanovsky,
  Bang C. Huynh
 -----------------------------------------------------------------------
 Exchange:     0.1670 Hartree-Fock + 1.0000 wB97X-V + LR-HF
 Correlation:  1.0000 wB97X-V
 Using SG-3 standard quadrature grid
 Nonlocal Correlation:  VV10 with C = 0.0100 and b = 6.00 and scale = 1.00000
 Grid used for NLC:  SG-1 standard quadrature
 
 Citation of the SMD model:
 Marenich, A.V.; Cramer, C.J.; Truhlar, D.G.
 J. Phys. Chem. B 2009, 113, 6378-6396.
 iSolventCode=           0
 Solvent: other                                                           
 
 vradii
            1           2           3           4           5           6
    1   1.8500000   2.2940000   1.2000000   2.2940000   2.1476001   2.1476001
 using 40 threads for integral computing
 -------------------------------------------------------
 OpenMP Integral computing Module                
 Release: version 1.0, May 2013, Q-Chem Inc. Pittsburgh 
 -------------------------------------------------------
 using 40 threads for integral computing
 -------------------------------------------------------
 OpenMP Integral computing Module                
 Release: version 1.0, May 2013, Q-Chem Inc. Pittsburgh 
 -------------------------------------------------------
 -------------------------------------------------------
 OpenMP BLAS3 based DFT computing Module                
 Release: version 1.0, May 2013, Q-Chem Inc. Pittsburgh 
 -------------------------------------------------------
 -------------------------------------------------------
 OpenMP BLAS3 based DFT computing Module                
 Release: version 1.0, May 2013, Q-Chem Inc. Pittsburgh 
 -------------------------------------------------------
 -------------------------------------------------------
 OpenMP BLAS3 based DFT computing Module                
 Release: version 1.0, May 2013, Q-Chem Inc. Pittsburgh 
 -------------------------------------------------------
 A unrestricted SCF calculation will be
 performed using DIIS
 SCF converges when DIIS error is below 1.0e-08
 ---------------------------------------
  Cycle       Energy         DIIS error
 ---------------------------------------
    1    -203.5196232725      2.25e-02  
    2    -203.5619455609      9.51e-03  
    3    -201.7810616849      1.95e-02  
    4    -203.9176599043      3.29e-03  
    5    -203.9539758365      2.05e-03  
    6    -203.9694353868      3.11e-04  
    7    -203.9700675480      9.82e-05  
    8    -203.9701568331      3.94e-05  
    9    -203.9701787884      1.10e-05  
   10    -203.9701838479      5.85e-06  
   11    -203.9701858227      2.62e-06  
   12    -203.9701863722      1.05e-06  
   13    -203.9701864333      3.29e-07  
   14    -203.9701864383      1.56e-07  
   15    -203.9701864391      5.04e-08  
   16    -203.9701864392      1.87e-08  
   17    -203.9701864393      7.50e-09  Convergence criterion met
 ---------------------------------------
 SCF time:   CPU 409.64s  wall 13.00s 
<S^2> =          0.753337486
(3)  G-ENP(liq) elect-nuc-pol free energy of system     -203.970186439 a.u.
(4)  G-CDS(liq) cavity-dispersion-solvent structure 
     free energy                                               -0.1822 kcal/mol
(6)  G-S(liq) free energy of system                     -203.970476749 a.u.
 SCF   energy in the final basis set =     -203.9701864393
 Total energy in the final basis set =     -203.9704767488
 
 --------------------------------------------------------------
 
                    Orbital Energies (a.u.)
 --------------------------------------------------------------
 
 Alpha MOs
 -- Occupied --
-19.3054 -19.0562 -10.3992  -2.0335  -2.0194  -1.2417  -0.8411  -0.7379
 -0.6286  -0.5733  -0.5591  -0.3399  -0.3010  -0.2712  -0.2696
 -- Virtual --
  0.0263   0.0324   0.0461   0.0618   0.0649   0.0786   0.0836   0.0890
  0.1121   0.1224   0.1357   0.1518   0.1676   0.1883   0.1973   0.2229
  0.2250   0.2314   0.2450   0.2601   0.2847   0.2908   0.2968   0.3176
  0.3289   0.3375   0.3792   0.3902   0.4239   0.4371   0.4438   0.4680
  0.4900   0.5039   0.5270   0.5693   0.6124   0.6256   0.6370   0.6413
  0.6607   0.6768   0.6845   0.7098   0.7364   0.7601   0.7990   0.8174
  0.8291   0.8644   0.9429   0.9585   1.0057   1.0182   1.0396   1.1534
  1.1932   1.4056   1.4225   1.4820   1.5156   1.6037   1.6162   1.6732
  1.7138   1.7742   1.8890   1.9545   1.9674   2.0747   2.1767   2.6119
  2.7764   2.9120   2.9765   3.0893   3.0933   3.1253   3.1536   3.1639
  3.2488   3.4458   3.8094
 
 Beta MOs
 -- Occupied --
-19.2973 -19.0558 -10.3922  -2.0335  -2.0185  -1.2243  -0.8398  -0.7073
 -0.6013  -0.5497  -0.5158  -0.3006  -0.2706  -0.2684
 -- Virtual --
 -0.0122   0.0273   0.0404   0.0525   0.0622   0.0655   0.0790   0.0847
  0.0911   0.1134   0.1233   0.1387   0.1543   0.1708   0.1892   0.1974
  0.2245   0.2255   0.2361   0.2493   0.2611   0.2867   0.2925   0.3030
  0.3191   0.3353   0.3408   0.3832   0.3924   0.4261   0.4419   0.4515
  0.4702   0.4951   0.5055   0.5345   0.5758   0.6140   0.6302   0.6387
  0.6419   0.6640   0.6820   0.6863   0.7139   0.7391   0.7621   0.8059
  0.8203   0.8320   0.8731   0.9487   0.9624   1.0089   1.0281   1.0482
  1.1593   1.2034   1.4064   1.4245   1.4905   1.5252   1.6216   1.6369
  1.6911   1.7207   1.7816   1.8985   1.9757   1.9895   2.0982   2.1934
  2.6360   2.8001   2.9361   2.9995   3.0906   3.0946   3.1258   3.1552
  3.1647   3.2570   3.4742   3.8226
 --------------------------------------------------------------
 
          Ground-State Mulliken Net Atomic Charges

     Atom                 Charge (a.u.)    Spin (a.u.)
  --------------------------------------------------------
      1 C                     0.208447       0.480326
      2 O                    -0.285399       0.306055
      3 H                     0.065046       0.175410
      4 O                    -1.721890      -0.000087
      5 Li                    0.892241       0.003140
      6 Li                    0.841555       0.035157
  --------------------------------------------------------
  Sum of atomic charges =    -0.000000
  Sum of spin   charges =     1.000000

  Building new vdw surfaces
         Merz-Kollman RESP Net Atomic Charges

     Atom                 Charge (a.u.)
  ----------------------------------------
      1 C                     0.100327
      2 O                    -0.243822
      3 H                     0.220102
      4 O                    -1.772236
      5 Li                    0.905487
      6 Li                    0.790143
  ----------------------------------------
  Sum of atomic charges =     0.000000

  Related Dipole Moment =     1.7422 (X  1.4486 Y -0.2735 Z  0.9285)

 -----------------------------------------------------------------
                    Cartesian Multipole Moments
 -----------------------------------------------------------------
    Charge (ESU x 10^10)
                -0.0000
    Dipole Moment (Debye)
         X       1.3970      Y      -0.3058      Z       0.9804
       Tot       1.7339
    Quadrupole Moments (Debye-Ang)
        XX     -29.0152     XY       9.2709     YY      -1.8125
        XZ       4.7048     YZ       1.9072     ZZ     -21.8233
    Octopole Moments (Debye-Ang^2)
       XXX      15.1096    XXY      -9.3693    XYY       2.7919
       YYY      93.5406    XXZ      -0.5352    XYZ      -4.9854
       YYZ      28.6957    XZZ       2.1759    YZZ       2.2411
       ZZZ       8.8378
    Hexadecapole Moments (Debye-Ang^3)
      XXXX    -196.3966   XXXY     135.3635   XXYY    -124.8974
      XYYY      86.7913   YYYY     -70.0251   XXXZ      27.7269
      XXYZ     -12.5136   XYYZ       2.3362   YYYZ      23.8905
      XXZZ     -40.7104   XYZZ      37.3595   YYZZ     -69.5266
      XZZZ      21.3511   YZZZ     -30.0051   ZZZZ     -59.0188
 -----------------------------------------------------------------
 Calculating analytic gradient of the SCF energy
 Gradient of CDS energy
            1           2           3           4           5           6
    1   0.0002370   0.0001632   0.0000225   0.0000928  -0.0001222  -0.0003934
    2  -0.0005984   0.0000564   0.0000821   0.0000019  -0.0003134   0.0007714
    3   0.0008796  -0.0003073  -0.0003380  -0.0000658  -0.0000785  -0.0000901
 Gradient of SCF Energy
            1           2           3           4           5           6
    1  -0.0063970   0.0066925   0.0002005  -0.0059422   0.0047633   0.0006830
    2   0.0044977  -0.0008337  -0.0034405  -0.0004291   0.0084169  -0.0082113
    3  -0.0081642  -0.0044429   0.0120055  -0.0000856   0.0022227  -0.0015355
 Max gradient component =       1.201E-02
 RMS gradient           =       5.544E-03
 Computing fast CPCM-SWIG gradient
 Updating gradient with PCM contributions...
 -- total gradient after adding PCM contribution --
---------------------------------------------------
  Atom         X              Y              Z     
---------------------------------------------------
   1      -0.000043       0.000045      -0.000034
   2       0.000016      -0.000027       0.000009
   3      -0.000014      -0.000006       0.000008
   4      -0.000056      -0.000001       0.000009
   5       0.000051       0.000045       0.000030
   6       0.000045      -0.000056      -0.000022
---------------------------------------------------
 Number of fixed atoms: 0
 Gradient time:  CPU 44.75 s  wall 1.55 s
 Geometry Optimization Parameters
   NAtoms,    NIC,     NZ,  NCons,   NDum,   NFix, NCnnct, MaxDiis
        6      32       0       0       0       0       0       0

 Cartesian Hessian read from HESS file


** GEOMETRY OPTIMIZATION IN DELOCALIZED INTERNAL COORDINATES **
   Searching for a Transition State

   Optimization Cycle:   1

                       Coordinates (Angstroms)
     ATOM                X               Y               Z
      1  C         0.3967596691   -1.5703473831   -0.0259748355
      2  O         1.2947800350   -1.8337144031   -0.7414502642
      3  H         0.3239679043   -1.8356770991    1.0661458281
      4  O        -1.1224527235    1.5235652923    0.1280034475
      5  Li       -0.5343080478    3.0320255941    0.5057178648
      6  Li       -1.2646768372    0.0154279989   -0.5702820407
   Point Group: c1    Number of degrees of freedom:    12


   Energy is   -203.970476749


 Attempting to generate delocalized internal coordinates

 Transforming Cartesian Hessian to Internal Coordinates
 Hessian Transformation does not Include Derivative of B-matrix

 12 Hessian modes will be used to form the next step
  Hessian Eigenvalues:
    -0.003910   -0.000072    0.000977    0.001152    0.011787    0.014558
     0.019186    0.049557    0.104726    0.120357    0.287146    1.040899
**WARNING** Magnitude of eigenvalue   2 too small.  Replaced by    -0.000100
**WARNING** Hessian does not have the desired local structure
**WARNING** Hessian does not have the desired local structure

 Transition state search - taking P-RFO step
 Searching for Lamda that Maximizes Along the Lowest mode
 Value Taken    Lamda =   0.00000002
 Searching for Lamda that Minimizes Along All other modes
 Value Taken    Lamda =  -0.00010474
 Calculated Step too Large.  Step scaled by  0.064231
 Step Taken.  Stepsize is  0.300000

                             Maximum     Tolerance    Cnvgd?
         Gradient           0.000053      0.000300     YES
         Displacement       0.266976      0.001200      NO
         Energy change     *********      0.000001      NO


 New Cartesian Coordinates Obtained by Inverse Iteration

 Displacement from previous Coordinates is:  0.191371
 ----------------------------------------------------------------
             Standard Nuclear Orientation (Angstroms)
    I     Atom           X                Y                Z
 ----------------------------------------------------------------
    1      C       0.3934375189    -1.5844802376    -0.0280364865
    2      O       1.2808323894    -1.8660221482    -0.7498743478
    3      H       0.3300152555    -1.8352539179     1.0680519570
    4      O      -1.0666082426     1.5268167490     0.1220994430
    5      Li     -0.5938136277     3.0720267106     0.5180402842
    6      Li     -1.2497932935     0.0181928440    -0.5681208498
 ----------------------------------------------------------------
 Nuclear Repulsion Energy =          72.90874214 hartrees
 There are       15 alpha and       14 beta electrons
 Discretize the solute cavity surface with Lebedev spheres
	Using 110 Lebedev grid points for each H atom
	Using 194 Lebedev grid points for other atoms
	Atomic van der Waals radii will be scaled by 1.20
 Remove points where switching function is < 1.0e-08
 Keep 659 surface tesserae and discard 421 interior tesserae
 Molecular Surface Area = 155.735 Angst**2
 Applying Cartesian multipole field
    Component          Value
    ---------          -----
     (2,0,0)        1.00000E-11
     (0,2,0)        2.00000E-11
     (0,0,2)       -3.00000E-11
 Nucleus-field energy     =     0.0000000069 hartrees
 Requested basis set is def2-SVPD
 There are 42 shells and 98 basis functions
 A cutoff of  1.0D-14 yielded    881 shell pairs
 There are      4845 function pairs (      5462 Cartesian)
 Smallest overlap matrix eigenvalue = 5.14E-04
 Guess from superposition of atomic densities
 Warning:  Energy on first SCF cycle will be non-variational
 SAD guess density has 29.000000 electrons

 -----------------------------------------------------------------------
  General SCF calculation program by
  Eric Jon Sundstrom, Paul Horn, Yuezhi Mao, Dmitri Zuev, Alec White,
  David Stuck, Shaama M.S., Shane Yost, Joonho Lee, David Small,
  Daniel Levine, Susi Lehtola, Hugh Burton, Evgeny Epifanovsky,
  Bang C. Huynh
 -----------------------------------------------------------------------
 Exchange:     0.1670 Hartree-Fock + 1.0000 wB97X-V + LR-HF
 Correlation:  1.0000 wB97X-V
 Using SG-3 standard quadrature grid
 Nonlocal Correlation:  VV10 with C = 0.0100 and b = 6.00 and scale = 1.00000
 Grid used for NLC:  SG-1 standard quadrature
 
 Citation of the SMD model:
 Marenich, A.V.; Cramer, C.J.; Truhlar, D.G.
 J. Phys. Chem. B 2009, 113, 6378-6396.
 iSolventCode=           0
 Solvent: other                                                           
 
 vradii
            1           2           3           4           5           6
    1   1.8500000   2.2940000   1.2000000   2.2940000   2.1476001   2.1476001
 using 40 threads for integral computing
 -------------------------------------------------------
 OpenMP Integral computing Module                
 Release: version 1.0, May 2013, Q-Chem Inc. Pittsburgh 
 -------------------------------------------------------
 using 40 threads for integral computing
 -------------------------------------------------------
 OpenMP Integral computing Module                
 Release: version 1.0, May 2013, Q-Chem Inc. Pittsburgh 
 -------------------------------------------------------
 -------------------------------------------------------
 OpenMP BLAS3 based DFT computing Module                
 Release: version 1.0, May 2013, Q-Chem Inc. Pittsburgh 
 -------------------------------------------------------
 -------------------------------------------------------
 OpenMP BLAS3 based DFT computing Module                
 Release: version 1.0, May 2013, Q-Chem Inc. Pittsburgh 
 -------------------------------------------------------
 -------------------------------------------------------
 OpenMP BLAS3 based DFT computing Module                
 Release: version 1.0, May 2013, Q-Chem Inc. Pittsburgh 
 -------------------------------------------------------
 A unrestricted SCF calculation will be
 performed using DIIS
 SCF converges when DIIS error is below 1.0e-08
 ---------------------------------------
  Cycle       Energy         DIIS error
 ---------------------------------------
    1    -203.3607379901      2.25e-02  
    2    -203.5619722678      9.51e-03  
    3    -201.7785726634      1.96e-02  
    4    -203.9180029681      3.28e-03  
    5    -203.9540173283      2.05e-03  
    6    -203.9694435897      3.09e-04  
    7    -203.9700699682      9.83e-05  
    8    -203.9701601470      3.94e-05  
    9    -203.9701823422      1.09e-05  
   10    -203.9701873417      5.84e-06  
   11    -203.9701892769      2.60e-06  
   12    -203.9701898221      1.07e-06  
   13    -203.9701898839      3.26e-07  
   14    -203.9701898888      1.51e-07  
   15    -203.9701898896      4.96e-08  
   16    -203.9701898897      1.86e-08  
   17    -203.9701898898      7.60e-09  Convergence criterion met
 ---------------------------------------
 SCF time:   CPU 419.41s  wall 13.00s 
<S^2> =          0.753331346
(3)  G-ENP(liq) elect-nuc-pol free energy of system     -203.970189890 a.u.
(4)  G-CDS(liq) cavity-dispersion-solvent structure 
     free energy                                               -0.1850 kcal/mol
(6)  G-S(liq) free energy of system                     -203.970484642 a.u.
 SCF   energy in the final basis set =     -203.9701898898
 Total energy in the final basis set =     -203.9704846420
 
 --------------------------------------------------------------
 
                    Orbital Energies (a.u.)
 --------------------------------------------------------------
 
 Alpha MOs
 -- Occupied --
-19.3052 -19.0562 -10.3990  -2.0337  -2.0195  -1.2415  -0.8409  -0.7377
 -0.6284  -0.5732  -0.5589  -0.3398  -0.3013  -0.2708  -0.2694
 -- Virtual --
  0.0263   0.0326   0.0460   0.0619   0.0648   0.0784   0.0835   0.0889
  0.1119   0.1225   0.1356   0.1521   0.1677   0.1881   0.1975   0.2229
  0.2255   0.2313   0.2447   0.2623   0.2843   0.2899   0.2977   0.3166
  0.3301   0.3386   0.3800   0.3908   0.4227   0.4378   0.4442   0.4700
  0.4897   0.5052   0.5268   0.5691   0.6108   0.6252   0.6360   0.6405
  0.6604   0.6745   0.6844   0.7115   0.7402   0.7528   0.8013   0.8132
  0.8263   0.8649   0.9462   0.9643   1.0062   1.0254   1.0405   1.1538
  1.1950   1.4049   1.4231   1.4838   1.5158   1.6035   1.6163   1.6725
  1.7104   1.7785   1.8913   1.9549   1.9675   2.0749   2.1772   2.6120
  2.7766   2.9125   2.9767   3.0878   3.0925   3.1251   3.1539   3.1667
  3.2491   3.4459   3.8096
 
 Beta MOs
 -- Occupied --
-19.2971 -19.0558 -10.3920  -2.0337  -2.0186  -1.2241  -0.8397  -0.7071
 -0.6011  -0.5495  -0.5156  -0.3008  -0.2703  -0.2682
 -- Virtual --
 -0.0120   0.0273   0.0405   0.0525   0.0622   0.0654   0.0788   0.0846
  0.0910   0.1133   0.1233   0.1387   0.1546   0.1709   0.1891   0.1977
  0.2246   0.2261   0.2360   0.2488   0.2633   0.2863   0.2918   0.3035
  0.3182   0.3368   0.3417   0.3841   0.3930   0.4251   0.4430   0.4515
  0.4720   0.4946   0.5069   0.5341   0.5756   0.6125   0.6298   0.6376
  0.6412   0.6638   0.6800   0.6860   0.7158   0.7430   0.7550   0.8067
  0.8162   0.8299   0.8734   0.9531   0.9681   1.0110   1.0332   1.0490
  1.1596   1.2053   1.4057   1.4250   1.4923   1.5254   1.6213   1.6369
  1.6890   1.7197   1.7852   1.9007   1.9761   1.9895   2.0983   2.1939
  2.6361   2.8003   2.9365   2.9997   3.0890   3.0937   3.1256   3.1553
  3.1677   3.2573   3.4743   3.8228
 --------------------------------------------------------------
 
          Ground-State Mulliken Net Atomic Charges

     Atom                 Charge (a.u.)    Spin (a.u.)
  --------------------------------------------------------
      1 C                     0.209026       0.480371
      2 O                    -0.285795       0.306014
      3 H                     0.064508       0.175452
      4 O                    -1.717675      -0.000680
      5 Li                    0.890088       0.003317
      6 Li                    0.839848       0.035527
  --------------------------------------------------------
  Sum of atomic charges =    -0.000000
  Sum of spin   charges =     1.000000

  Building new vdw surfaces
         Merz-Kollman RESP Net Atomic Charges

     Atom                 Charge (a.u.)
  ----------------------------------------
      1 C                     0.112589
      2 O                    -0.247100
      3 H                     0.215988
      4 O                    -1.782538
      5 Li                    0.911402
      6 Li                    0.789659
  ----------------------------------------
  Sum of atomic charges =     0.000000

  Related Dipole Moment =     1.3409 (X  0.8273 Y -0.1013 Z  1.0505)

 -----------------------------------------------------------------
                    Cartesian Multipole Moments
 -----------------------------------------------------------------
    Charge (ESU x 10^10)
                 0.0000
    Dipole Moment (Debye)
         X       0.7924      Y      -0.1253      Z       1.0951
       Tot       1.3575
    Quadrupole Moments (Debye-Ang)
        XX     -27.9527     XY       7.7237     YY      -0.9651
        XZ       4.3969     YZ       2.1648     ZZ     -21.7889
    Octopole Moments (Debye-Ang^2)
       XXX      12.3901    XXY      -6.9098    XYY      -1.9348
       YYY      99.2720    XXZ      -0.0174    XYZ      -5.7595
       YYZ      30.1892    XZZ       1.5907    YZZ       2.7254
       ZZZ       9.2528
    Hexadecapole Moments (Debye-Ang^3)
      XXXX    -185.6052   XXXY     130.3017   XXYY    -119.5047
      XYYY      72.9472   YYYY     -57.1072   XXXZ      26.7987
      XXYZ     -11.9422   XYYZ       0.2212   YYYZ      27.4397
      XXZZ     -39.2266   XYZZ      36.3207   YYZZ     -70.0612
      XZZZ      20.9486   YZZZ     -30.4452   ZZZZ     -59.4102
 -----------------------------------------------------------------
 Calculating analytic gradient of the SCF energy
 Gradient of CDS energy
            1           2           3           4           5           6
    1   0.0002380   0.0001602   0.0000196   0.0000603  -0.0000981  -0.0003800
    2  -0.0005942   0.0000530   0.0000776   0.0000094  -0.0003207   0.0007749
    3   0.0008845  -0.0003105  -0.0003393  -0.0000603  -0.0000822  -0.0000922
 Gradient of SCF Energy
            1           2           3           4           5           6
    1  -0.0058462   0.0060176   0.0003083  -0.0041953   0.0036779   0.0000377
    2   0.0039912  -0.0006682  -0.0031764  -0.0008392   0.0091150  -0.0084224
    3  -0.0081537  -0.0040046   0.0115601  -0.0004328   0.0024985  -0.0014675
 Max gradient component =       1.156E-02
 RMS gradient           =       5.310E-03
 Computing fast CPCM-SWIG gradient
 Updating gradient with PCM contributions...
 -- total gradient after adding PCM contribution --
---------------------------------------------------
  Atom         X              Y              Z     
---------------------------------------------------
   1      -0.000102       0.000022      -0.000020
   2       0.000040      -0.000033      -0.000014
   3      -0.000011       0.000011       0.000008
   4      -0.000124      -0.000026      -0.000020
   5       0.000146       0.000294       0.000106
   6       0.000051      -0.000269      -0.000060
---------------------------------------------------
 Number of fixed atoms: 0
 Gradient time:  CPU 46.93 s  wall 1.74 s
 Geometry Optimization Parameters
   NAtoms,    NIC,     NZ,  NCons,   NDum,   NFix, NCnnct, MaxDiis
        6      32       0       0       0       0       0       0

 Cartesian Hessian Update
 Hessian updated using Powell/Murtagh-Sargent update
  Mixing factors:     0.999999 Powell                      0.000001 Murtagh-Sargent


** GEOMETRY OPTIMIZATION IN DELOCALIZED INTERNAL COORDINATES **
   Searching for a Transition State

   Optimization Cycle:   2

                       Coordinates (Angstroms)
     ATOM                X               Y               Z
      1  C         0.3934375189   -1.5844802376   -0.0280364865
      2  O         1.2808323894   -1.8660221482   -0.7498743478
      3  H         0.3300152555   -1.8352539179    1.0680519570
      4  O        -1.0666082426    1.5268167490    0.1220994430
      5  Li       -0.5938136277    3.0720267106    0.5180402842
      6  Li       -1.2497932935    0.0181928440   -0.5681208498
   Point Group: c1    Number of degrees of freedom:    12


   Energy is   -203.970484642

 Hessian updated using Powell/Murtagh-Sargent update
  Mixing factors:     0.979836 Powell                      0.020164 Murtagh-Sargent

 12 Hessian modes will be used to form the next step
  Hessian Eigenvalues:
    -0.003911   -0.000005    0.001000    0.001164    0.011788    0.014558
     0.019188    0.049652    0.104726    0.120360    0.287146    1.040903
**WARNING** Magnitude of eigenvalue   2 too small.  Replaced by    -0.000100
**WARNING** Hessian does not have the desired local structure
**WARNING** Hessian does not have the desired local structure

 Transition state search - taking P-RFO step
 Searching for Lamda that Maximizes Along the Lowest mode
 Value Taken    Lamda =   0.00000011
 Searching for Lamda that Minimizes Along All other modes
 Value Taken    Lamda =  -0.00010366
 Calculated Step too Large.  Step scaled by  0.056970
 Step Taken.  Stepsize is  0.300000

                             Maximum     Tolerance    Cnvgd?
         Gradient           0.000167      0.000300     YES
         Displacement       0.283786      0.001200      NO
         Energy change     -0.000008      0.000001      NO


 New Cartesian Coordinates Obtained by Inverse Iteration

 Displacement from previous Coordinates is:  0.151094
 ----------------------------------------------------------------
             Standard Nuclear Orientation (Angstroms)
    I     Atom           X                Y                Z
 ----------------------------------------------------------------
    1      C       0.3926974614    -1.5968746662    -0.0291288262
    2      O       1.2691022001    -1.8957487686    -0.7573800009
    3      H       0.3363093159    -1.8388968207     1.0692843661
    4      O      -1.0296799404     1.5355012638     0.1181627360
    5      Li     -0.6420299237     3.1019962936     0.5257500317
    6      Li     -1.2323291133     0.0253026982    -0.5645283067
 ----------------------------------------------------------------
 Nuclear Repulsion Energy =          72.82918034 hartrees
 There are       15 alpha and       14 beta electrons
 Discretize the solute cavity surface with Lebedev spheres
	Using 110 Lebedev grid points for each H atom
	Using 194 Lebedev grid points for other atoms
	Atomic van der Waals radii will be scaled by 1.20
 Remove points where switching function is < 1.0e-08
 Keep 660 surface tesserae and discard 420 interior tesserae
 Molecular Surface Area = 155.789 Angst**2
 Applying Cartesian multipole field
    Component          Value
    ---------          -----
     (2,0,0)        1.00000E-11
     (0,2,0)        2.00000E-11
     (0,0,2)       -3.00000E-11
 Nucleus-field energy     =     0.0000000070 hartrees
 Requested basis set is def2-SVPD
 There are 42 shells and 98 basis functions
 A cutoff of  1.0D-14 yielded    881 shell pairs
 There are      4845 function pairs (      5462 Cartesian)
 Smallest overlap matrix eigenvalue = 5.13E-04
 Guess from superposition of atomic densities
 Warning:  Energy on first SCF cycle will be non-variational
 SAD guess density has 29.000000 electrons

 -----------------------------------------------------------------------
  General SCF calculation program by
  Eric Jon Sundstrom, Paul Horn, Yuezhi Mao, Dmitri Zuev, Alec White,
  David Stuck, Shaama M.S., Shane Yost, Joonho Lee, David Small,
  Daniel Levine, Susi Lehtola, Hugh Burton, Evgeny Epifanovsky,
  Bang C. Huynh
 -----------------------------------------------------------------------
 Exchange:     0.1670 Hartree-Fock + 1.0000 wB97X-V + LR-HF
 Correlation:  1.0000 wB97X-V
 Using SG-3 standard quadrature grid
 Nonlocal Correlation:  VV10 with C = 0.0100 and b = 6.00 and scale = 1.00000
 Grid used for NLC:  SG-1 standard quadrature
 
 Citation of the SMD model:
 Marenich, A.V.; Cramer, C.J.; Truhlar, D.G.
 J. Phys. Chem. B 2009, 113, 6378-6396.
 iSolventCode=           0
 Solvent: other                                                           
 
 vradii
            1           2           3           4           5           6
    1   1.8500000   2.2940000   1.2000000   2.2940000   2.1476001   2.1476001
 using 40 threads for integral computing
 -------------------------------------------------------
 OpenMP Integral computing Module                
 Release: version 1.0, May 2013, Q-Chem Inc. Pittsburgh 
 -------------------------------------------------------
 using 40 threads for integral computing
 -------------------------------------------------------
 OpenMP Integral computing Module                
 Release: version 1.0, May 2013, Q-Chem Inc. Pittsburgh 
 -------------------------------------------------------
 -------------------------------------------------------
 OpenMP BLAS3 based DFT computing Module                
 Release: version 1.0, May 2013, Q-Chem Inc. Pittsburgh 
 -------------------------------------------------------
 -------------------------------------------------------
 OpenMP BLAS3 based DFT computing Module                
 Release: version 1.0, May 2013, Q-Chem Inc. Pittsburgh 
 -------------------------------------------------------
 -------------------------------------------------------
 OpenMP BLAS3 based DFT computing Module                
 Release: version 1.0, May 2013, Q-Chem Inc. Pittsburgh 
 -------------------------------------------------------
 A unrestricted SCF calculation will be
 performed using DIIS
 SCF converges when DIIS error is below 1.0e-08
 ---------------------------------------
  Cycle       Energy         DIIS error
 ---------------------------------------
    1    -203.3383610784      2.25e-02  
    2    -203.5619976938      9.51e-03  
    3    -201.7769314620      1.96e-02  
    4    -203.9181950851      3.27e-03  
    5    -203.9540279705      2.05e-03  
    6    -203.9694431984      3.07e-04  
    7    -203.9700653726      9.83e-05  
    8    -203.9701553925      3.93e-05  
    9    -203.9701773476      1.07e-05  
   10    -203.9701821584      5.75e-06  
   11    -203.9701840073      2.58e-06  
   12    -203.9701845408      1.07e-06  
   13    -203.9701846025      3.22e-07  
   14    -203.9701846073      1.47e-07  
   15    -203.9701846081      4.86e-08  
   16    -203.9701846082      1.83e-08  
   17    -203.9701846082      7.50e-09  Convergence criterion met
 ---------------------------------------
 SCF time:   CPU 401.84s  wall 13.00s 
<S^2> =          0.753325084
(3)  G-ENP(liq) elect-nuc-pol free energy of system     -203.970184608 a.u.
(4)  G-CDS(liq) cavity-dispersion-solvent structure 
     free energy                                               -0.1857 kcal/mol
(6)  G-S(liq) free energy of system                     -203.970480575 a.u.
 SCF   energy in the final basis set =     -203.9701846082
 Total energy in the final basis set =     -203.9704805748
 
 --------------------------------------------------------------
 
                    Orbital Energies (a.u.)
 --------------------------------------------------------------
 
 Alpha MOs
 -- Occupied --
-19.3054 -19.0562 -10.3991  -2.0337  -2.0195  -1.2416  -0.8408  -0.7378
 -0.6285  -0.5733  -0.5590  -0.3398  -0.3013  -0.2706  -0.2693
 -- Virtual --
  0.0263   0.0325   0.0459   0.0620   0.0648   0.0784   0.0835   0.0888
  0.1119   0.1225   0.1358   0.1522   0.1678   0.1882   0.1977   0.2229
  0.2259   0.2310   0.2444   0.2631   0.2840   0.2896   0.2981   0.3162
  0.3311   0.3391   0.3803   0.3908   0.4221   0.4380   0.4442   0.4710
  0.4897   0.5061   0.5267   0.5686   0.6103   0.6255   0.6350   0.6402
  0.6607   0.6730   0.6840   0.7125   0.7388   0.7518   0.8020   0.8104
  0.8262   0.8649   0.9475   0.9668   1.0057   1.0288   1.0413   1.1545
  1.1957   1.4044   1.4236   1.4840   1.5159   1.6036   1.6163   1.6721
  1.7076   1.7803   1.8929   1.9547   1.9674   2.0747   2.1771   2.6120
  2.7765   2.9125   2.9765   3.0869   3.0920   3.1249   3.1536   3.1686
  3.2490   3.4459   3.8097
 
 Beta MOs
 -- Occupied --
-19.2972 -19.0558 -10.3921  -2.0337  -2.0186  -1.2242  -0.8396  -0.7072
 -0.6012  -0.5496  -0.5157  -0.3009  -0.2701  -0.2682
 -- Virtual --
 -0.0120   0.0272   0.0405   0.0524   0.0623   0.0653   0.0787   0.0846
  0.0909   0.1133   0.1233   0.1390   0.1547   0.1709   0.1893   0.1979
  0.2247   0.2265   0.2358   0.2483   0.2642   0.2859   0.2915   0.3035
  0.3179   0.3378   0.3422   0.3844   0.3930   0.4246   0.4432   0.4515
  0.4729   0.4944   0.5079   0.5339   0.5750   0.6120   0.6300   0.6366
  0.6409   0.6641   0.6786   0.6856   0.7169   0.7414   0.7545   0.8057
  0.8145   0.8299   0.8735   0.9552   0.9703   1.0105   1.0363   1.0496
  1.1603   1.2060   1.4052   1.4254   1.4926   1.5256   1.6213   1.6368
  1.6878   1.7182   1.7868   1.9022   1.9759   1.9895   2.0982   2.1938
  2.6361   2.8002   2.9366   2.9996   3.0881   3.0932   3.1255   3.1548
  3.1697   3.2573   3.4743   3.8228
 --------------------------------------------------------------
 
          Ground-State Mulliken Net Atomic Charges

     Atom                 Charge (a.u.)    Spin (a.u.)
  --------------------------------------------------------
      1 C                     0.208833       0.480256
      2 O                    -0.285495       0.306250
      3 H                     0.064684       0.175514
      4 O                    -1.715720      -0.001402
      5 Li                    0.888839       0.003425
      6 Li                    0.838861       0.035957
  --------------------------------------------------------
  Sum of atomic charges =    -0.000000
  Sum of spin   charges =     1.000000

  Building new vdw surfaces
         Merz-Kollman RESP Net Atomic Charges

     Atom                 Charge (a.u.)
  ----------------------------------------
      1 C                     0.123431
      2 O                    -0.249576
      3 H                     0.212330
      4 O                    -1.788660
      5 Li                    0.914820
      6 Li                    0.787655
  ----------------------------------------
  Sum of atomic charges =     0.000000

  Related Dipole Moment =     1.2145 (X  0.4174 Y -0.0154 Z  1.1404)

 -----------------------------------------------------------------
                    Cartesian Multipole Moments
 -----------------------------------------------------------------
    Charge (ESU x 10^10)
                -0.0000
    Dipole Moment (Debye)
         X       0.3947      Y      -0.0315      Z       1.1775
       Tot       1.2423
    Quadrupole Moments (Debye-Ang)
        XX     -27.2677     XY       6.5797     YY      -0.4708
        XZ       4.1442     YZ       2.3058     ZZ     -21.7797
    Octopole Moments (Debye-Ang^2)
       XXX      10.7881    XXY      -5.1433    XYY      -5.4542
       YYY     103.1540    XXZ       0.4248    XYZ      -6.3539
       YYZ      31.2685    XZZ       1.2246    YZZ       3.0334
       ZZZ       9.5597
    Hexadecapole Moments (Debye-Ang^3)
      XXXX    -178.7697   XXXY     127.1984   XXYY    -115.8273
      XYYY      62.7994   YYYY     -49.9722   XXXZ      26.0643
      XXYZ     -11.5261   XYYZ      -1.4022   YYYZ      29.7245
      XXZZ     -38.2834   XYZZ      35.7246   YYZZ     -70.8924
      XZZZ      20.6926   YZZZ     -30.9328   ZZZZ     -59.7641
 -----------------------------------------------------------------
 Calculating analytic gradient of the SCF energy
 Gradient of CDS energy
            1           2           3           4           5           6
    1   0.0002379   0.0001575   0.0000175   0.0000386  -0.0000804  -0.0003711
    2  -0.0005922   0.0000495   0.0000749   0.0000134  -0.0003248   0.0007792
    3   0.0008873  -0.0003130  -0.0003401  -0.0000563  -0.0000845  -0.0000935
 Gradient of SCF Energy
            1           2           3           4           5           6
    1  -0.0056748   0.0057532   0.0003826  -0.0030031   0.0028973  -0.0003553
    2   0.0038137  -0.0006498  -0.0030367  -0.0011194   0.0095230  -0.0085308
    3  -0.0081333  -0.0038656   0.0113982  -0.0006353   0.0026579  -0.0014219
 Max gradient component =       1.140E-02
 RMS gradient           =       5.230E-03
 Computing fast CPCM-SWIG gradient
 Updating gradient with PCM contributions...
 -- total gradient after adding PCM contribution --
---------------------------------------------------
  Atom         X              Y              Z     
---------------------------------------------------
   1      -0.000172       0.000001       0.000011
   2       0.000074      -0.000033      -0.000044
   3      -0.000000       0.000036       0.000007
   4      -0.000014      -0.000081      -0.000052
   5       0.000063       0.000462       0.000172
   6       0.000049      -0.000386      -0.000094
---------------------------------------------------
 Number of fixed atoms: 0
 Gradient time:  CPU 49.32 s  wall 1.95 s
 Geometry Optimization Parameters
   NAtoms,    NIC,     NZ,  NCons,   NDum,   NFix, NCnnct, MaxDiis
        6      32       0       0       0       0       0       0

 Cartesian Hessian Update
 Hessian updated using Powell/Murtagh-Sargent update
  Mixing factors:     0.998606 Powell                      0.001394 Murtagh-Sargent


** GEOMETRY OPTIMIZATION IN DELOCALIZED INTERNAL COORDINATES **
   Searching for a Transition State

   Optimization Cycle:   3

                       Coordinates (Angstroms)
     ATOM                X               Y               Z
      1  C         0.3926974614   -1.5968746662   -0.0291288262
      2  O         1.2691022001   -1.8957487686   -0.7573800009
      3  H         0.3363093159   -1.8388968207    1.0692843661
      4  O        -1.0296799404    1.5355012638    0.1181627360
      5  Li       -0.6420299237    3.1019962936    0.5257500317
      6  Li       -1.2323291133    0.0253026982   -0.5645283067
   Point Group: c1    Number of degrees of freedom:    12


   Energy is   -203.970480575

 Hessian updated using Powell/Murtagh-Sargent update
  Mixing factors:     0.891013 Powell                      0.108987 Murtagh-Sargent

 12 Hessian modes will be used to form the next step
  Hessian Eigenvalues:
    -0.003894    0.000015    0.001105    0.001434    0.011796    0.014559
     0.019196    0.049688    0.104727    0.120364    0.287147    1.040912
**WARNING** Magnitude of eigenvalue   2 too small.  Replaced by     0.000100

 Transition state search - taking P-RFO step
 Searching for Lamda that Maximizes Along the Lowest mode
 Value Taken    Lamda =   0.00000265
 Searching for Lamda that Minimizes Along All other modes
 Value Taken    Lamda =  -0.00003183
 Step Taken.  Stepsize is  0.219344

                             Maximum     Tolerance    Cnvgd?
         Gradient           0.000238      0.000300     YES
         Displacement       0.138556      0.001200      NO
         Energy change      0.000004      0.000001      NO


 New Cartesian Coordinates Obtained by Inverse Iteration

 Displacement from previous Coordinates is:  0.209962
 ----------------------------------------------------------------
             Standard Nuclear Orientation (Angstroms)
    I     Atom           X                Y                Z
 ----------------------------------------------------------------
    1      C       0.4001186265    -1.6032300375    -0.0314598123
    2      O       1.2827041548    -1.8904296688    -0.7566431293
    3      H       0.3204687196    -1.8860262187     1.0558062630
    4      O      -1.0518491249     1.5380494569     0.1797863745
    5      Li     -0.6473848944     3.1220078806     0.4677367203
    6      Li     -1.2099874817     0.0509085874    -0.5530664163
 ----------------------------------------------------------------
 Nuclear Repulsion Energy =          72.72861692 hartrees
 There are       15 alpha and       14 beta electrons
 Discretize the solute cavity surface with Lebedev spheres
	Using 110 Lebedev grid points for each H atom
	Using 194 Lebedev grid points for other atoms
	Atomic van der Waals radii will be scaled by 1.20
 Remove points where switching function is < 1.0e-08
 Keep 660 surface tesserae and discard 420 interior tesserae
 Molecular Surface Area = 155.889 Angst**2
 Applying Cartesian multipole field
    Component          Value
    ---------          -----
     (2,0,0)        1.00000E-11
     (0,2,0)        2.00000E-11
     (0,0,2)       -3.00000E-11
 Nucleus-field energy     =     0.0000000071 hartrees
 Requested basis set is def2-SVPD
 There are 42 shells and 98 basis functions
 A cutoff of  1.0D-14 yielded    881 shell pairs
 There are      4845 function pairs (      5462 Cartesian)
 Smallest overlap matrix eigenvalue = 5.11E-04
 Guess from superposition of atomic densities
 Warning:  Energy on first SCF cycle will be non-variational
 SAD guess density has 29.000000 electrons

 -----------------------------------------------------------------------
  General SCF calculation program by
  Eric Jon Sundstrom, Paul Horn, Yuezhi Mao, Dmitri Zuev, Alec White,
  David Stuck, Shaama M.S., Shane Yost, Joonho Lee, David Small,
  Daniel Levine, Susi Lehtola, Hugh Burton, Evgeny Epifanovsky,
  Bang C. Huynh
 -----------------------------------------------------------------------
 Exchange:     0.1670 Hartree-Fock + 1.0000 wB97X-V + LR-HF
 Correlation:  1.0000 wB97X-V
 Using SG-3 standard quadrature grid
 Nonlocal Correlation:  VV10 with C = 0.0100 and b = 6.00 and scale = 1.00000
 Grid used for NLC:  SG-1 standard quadrature
 
 Citation of the SMD model:
 Marenich, A.V.; Cramer, C.J.; Truhlar, D.G.
 J. Phys. Chem. B 2009, 113, 6378-6396.
 iSolventCode=           0
 Solvent: other                                                           
 
 vradii
            1           2           3           4           5           6
    1   1.8500000   2.2940000   1.2000000   2.2940000   2.1476001   2.1476001
 using 40 threads for integral computing
 -------------------------------------------------------
 OpenMP Integral computing Module                
 Release: version 1.0, May 2013, Q-Chem Inc. Pittsburgh 
 -------------------------------------------------------
 using 40 threads for integral computing
 -------------------------------------------------------
 OpenMP Integral computing Module                
 Release: version 1.0, May 2013, Q-Chem Inc. Pittsburgh 
 -------------------------------------------------------
 -------------------------------------------------------
 OpenMP BLAS3 based DFT computing Module                
 Release: version 1.0, May 2013, Q-Chem Inc. Pittsburgh 
 -------------------------------------------------------
 -------------------------------------------------------
 OpenMP BLAS3 based DFT computing Module                
 Release: version 1.0, May 2013, Q-Chem Inc. Pittsburgh 
 -------------------------------------------------------
 -------------------------------------------------------
 OpenMP BLAS3 based DFT computing Module                
 Release: version 1.0, May 2013, Q-Chem Inc. Pittsburgh 
 -------------------------------------------------------
 A unrestricted SCF calculation will be
 performed using DIIS
 SCF converges when DIIS error is below 1.0e-08
 ---------------------------------------
  Cycle       Energy         DIIS error
 ---------------------------------------
    1    -203.3290059582      2.25e-02  
    2    -203.5617972279      9.52e-03  
    3    -201.8016411659      1.95e-02  
    4    -203.9185781426      3.26e-03  
    5    -203.9541497821      2.04e-03  
    6    -203.9694673135      3.04e-04  
    7    -203.9700801560      9.76e-05  
    8    -203.9701686008      3.88e-05  
    9    -203.9701897006      1.03e-05  
   10    -203.9701941209      5.54e-06  
   11    -203.9701957943      2.51e-06  
   12    -203.9701963003      1.06e-06  
   13    -203.9701963623      3.19e-07  
   14    -203.9701963672      1.44e-07  
   15    -203.9701963679      4.73e-08  
   16    -203.9701963680      1.79e-08  
   17    -203.9701963680      7.35e-09  Convergence criterion met
 ---------------------------------------
 SCF time:   CPU 407.24s  wall 13.00s 
<S^2> =          0.753322607
(3)  G-ENP(liq) elect-nuc-pol free energy of system     -203.970196368 a.u.
(4)  G-CDS(liq) cavity-dispersion-solvent structure 
     free energy                                               -0.1746 kcal/mol
(6)  G-S(liq) free energy of system                     -203.970474546 a.u.
 SCF   energy in the final basis set =     -203.9701963680
 Total energy in the final basis set =     -203.9704745459
 
 --------------------------------------------------------------
 
                    Orbital Energies (a.u.)
 --------------------------------------------------------------
 
 Alpha MOs
 -- Occupied --
-19.3057 -19.0558 -10.3993  -2.0330  -2.0190  -1.2420  -0.8411  -0.7380
 -0.6288  -0.5736  -0.5593  -0.3399  -0.3010  -0.2713  -0.2696
 -- Virtual --
  0.0263   0.0324   0.0460   0.0619   0.0649   0.0786   0.0836   0.0889
  0.1124   0.1230   0.1360   0.1522   0.1678   0.1886   0.1982   0.2229
  0.2257   0.2326   0.2439   0.2605   0.2826   0.2880   0.2977   0.3174
  0.3328   0.3400   0.3791   0.3877   0.4224   0.4369   0.4431   0.4716
  0.4901   0.5066   0.5258   0.5706   0.6098   0.6269   0.6338   0.6455
  0.6620   0.6746   0.6816   0.7134   0.7414   0.7437   0.8017   0.8200
  0.8275   0.8660   0.9416   0.9605   1.0024   1.0292   1.0409   1.1560
  1.1936   1.4059   1.4237   1.4822   1.5158   1.6047   1.6162   1.6731
  1.7068   1.7752   1.8920   1.9536   1.9678   2.0746   2.1759   2.6123
  2.7761   2.9119   2.9761   3.0881   3.0921   3.1268   3.1513   3.1678
  3.2487   3.4462   3.8098
 
 Beta MOs
 -- Occupied --
-19.2976 -19.0554 -10.3923  -2.0330  -2.0181  -1.2246  -0.8399  -0.7074
 -0.6014  -0.5499  -0.5160  -0.3006  -0.2707  -0.2685
 -- Virtual --
 -0.0122   0.0273   0.0406   0.0522   0.0623   0.0654   0.0790   0.0847
  0.0910   0.1137   0.1238   0.1391   0.1547   0.1709   0.1898   0.1984
  0.2248   0.2263   0.2370   0.2481   0.2616   0.2845   0.2896   0.3034
  0.3190   0.3394   0.3432   0.3831   0.3898   0.4250   0.4412   0.4513
  0.4739   0.4947   0.5081   0.5332   0.5767   0.6116   0.6317   0.6357
  0.6460   0.6653   0.6799   0.6830   0.7177   0.7441   0.7459   0.8085
  0.8231   0.8293   0.8753   0.9463   0.9665   1.0070   1.0372   1.0494
  1.1618   1.2035   1.4067   1.4255   1.4908   1.5255   1.6228   1.6368
  1.6908   1.7138   1.7827   1.9014   1.9749   1.9899   2.0981   2.1926
  2.6364   2.7998   2.9360   2.9992   3.0892   3.0932   3.1273   3.1525
  3.1688   3.2569   3.4746   3.8229
 --------------------------------------------------------------
 
          Ground-State Mulliken Net Atomic Charges

     Atom                 Charge (a.u.)    Spin (a.u.)
  --------------------------------------------------------
      1 C                     0.207430       0.479978
      2 O                    -0.284504       0.306519
      3 H                     0.066013       0.175494
      4 O                    -1.720689      -0.001551
      5 Li                    0.890123       0.003649
      6 Li                    0.841628       0.035911
  --------------------------------------------------------
  Sum of atomic charges =    -0.000000
  Sum of spin   charges =     1.000000

  Building new vdw surfaces
         Merz-Kollman RESP Net Atomic Charges

     Atom                 Charge (a.u.)
  ----------------------------------------
      1 C                     0.133953
      2 O                    -0.255259
      3 H                     0.212429
      4 O                    -1.771178
      5 Li                    0.906198
      6 Li                    0.773856
  ----------------------------------------
  Sum of atomic charges =     0.000000

  Related Dipole Moment =     0.7800 (X  0.6448 Y  0.0554 Z  0.4354)

 -----------------------------------------------------------------
                    Cartesian Multipole Moments
 -----------------------------------------------------------------
    Charge (ESU x 10^10)
                -0.0000
    Dipole Moment (Debye)
         X       0.6012      Y       0.0368      Z       0.4811
       Tot       0.7708
    Quadrupole Moments (Debye-Ang)
        XX     -27.8408     XY       6.6595     YY       0.2506
        XZ       4.6785     YZ       0.7296     ZZ     -22.2251
    Octopole Moments (Debye-Ang^2)
       XXX      12.0117    XXY      -5.4216    XYY      -5.4234
       YYY     104.8676    XXZ      -0.5711    XYZ      -5.0407
       YYZ      27.1456    XZZ       1.6911    YZZ       1.9611
       ZZZ       7.3993
    Hexadecapole Moments (Debye-Ang^3)
      XXXX    -184.2860   XXXY     129.7127   XXYY    -117.2323
      XYYY      63.1421   YYYY     -38.8650   XXXZ      28.7780
      XXYZ     -13.6824   XYYZ       2.0141   YYYZ      17.9070
      XXZZ     -39.5006   XYZZ      37.0489   YYZZ     -73.8655
      XZZZ      23.1264   YZZZ     -34.4018   ZZZZ     -60.7247
 -----------------------------------------------------------------
 Calculating analytic gradient of the SCF energy
 Gradient of CDS energy
            1           2           3           4           5           6
    1   0.0002201   0.0001604   0.0000246   0.0000515  -0.0000843  -0.0003723
    2  -0.0006205   0.0000570   0.0000875   0.0000220  -0.0003300   0.0007840
    3   0.0008752  -0.0003099  -0.0003364  -0.0000918  -0.0000600  -0.0000771
 Gradient of SCF Energy
            1           2           3           4           5           6
    1  -0.0055162   0.0060001   0.0001039  -0.0033516   0.0028493  -0.0000853
    2   0.0045021  -0.0007999  -0.0035972  -0.0014685   0.0086248  -0.0072612
    3  -0.0079475  -0.0039929   0.0114388   0.0012626   0.0011819  -0.0019428
 Max gradient component =       1.144E-02
 RMS gradient           =       5.086E-03
 Computing fast CPCM-SWIG gradient
 Updating gradient with PCM contributions...
 -- total gradient after adding PCM contribution --
---------------------------------------------------
  Atom         X              Y              Z     
---------------------------------------------------
   1       0.000174       0.000039      -0.000011
   2      -0.000133      -0.000012       0.000062
   3      -0.000019      -0.000044       0.000015
   4       0.000104      -0.000027       0.000001
   5      -0.000103      -0.000520      -0.000178
   6      -0.000021       0.000564       0.000110
---------------------------------------------------
 Number of fixed atoms: 0
 Gradient time:  CPU 43.26 s  wall 1.56 s
 Geometry Optimization Parameters
   NAtoms,    NIC,     NZ,  NCons,   NDum,   NFix, NCnnct, MaxDiis
        6      32       0       0       0       0       0       0

 Cartesian Hessian Update
 Hessian updated using Powell/Murtagh-Sargent update
  Mixing factors:     0.994142 Powell                      0.005858 Murtagh-Sargent


** GEOMETRY OPTIMIZATION IN DELOCALIZED INTERNAL COORDINATES **
   Searching for a Transition State

   Optimization Cycle:   4

                       Coordinates (Angstroms)
     ATOM                X               Y               Z
      1  C         0.4001186265   -1.6032300375   -0.0314598123
      2  O         1.2827041548   -1.8904296688   -0.7566431293
      3  H         0.3204687196   -1.8860262187    1.0558062630
      4  O        -1.0518491249    1.5380494569    0.1797863745
      5  Li       -0.6473848944    3.1220078806    0.4677367203
      6  Li       -1.2099874817    0.0509085874   -0.5530664163
   Point Group: c1    Number of degrees of freedom:    12


   Energy is   -203.970474546

 Hessian updated using Powell/Murtagh-Sargent update
  Mixing factors:     0.899398 Powell                      0.100602 Murtagh-Sargent

 12 Hessian modes will be used to form the next step
  Hessian Eigenvalues:
    -0.003983   -0.000024    0.001079    0.002129    0.011835    0.014560
     0.019231    0.050426    0.104728    0.120364    0.287149    1.040958
**WARNING** Magnitude of eigenvalue   2 too small.  Replaced by    -0.000100
**WARNING** Hessian does not have the desired local structure
**WARNING** Hessian does not have the desired local structure

 Transition state search - taking P-RFO step
 Searching for Lamda that Maximizes Along the Lowest mode
 Value Taken    Lamda =   0.00000112
 Searching for Lamda that Minimizes Along All other modes
 Value Taken    Lamda =  -0.00010164
 Calculated Step too Large.  Step scaled by  0.041445
 Step Taken.  Stepsize is  0.300000

                             Maximum     Tolerance    Cnvgd?
         Gradient           0.000309      0.000300      NO
         Displacement       0.289947      0.001200      NO
         Energy change      0.000006      0.000001      NO


 New Cartesian Coordinates Obtained by Inverse Iteration

 Displacement from previous Coordinates is:  0.147415
 ----------------------------------------------------------------
             Standard Nuclear Orientation (Angstroms)
    I     Atom           X                Y                Z
 ----------------------------------------------------------------
    1      C       0.3999013617    -1.5915299837    -0.0279666301
    2      O       1.2826961046    -1.8769710326    -0.7536303473
    3      H       0.3276632912    -1.8636384425     1.0625087160
    4      O      -1.0809596621     1.5343846847     0.1556039722
    5      Li     -0.6068629457     3.0893596731     0.4885576445
    6      Li     -1.2283681499     0.0396751009    -0.5629133553
 ----------------------------------------------------------------
 Nuclear Repulsion Energy =          72.79574995 hartrees
 There are       15 alpha and       14 beta electrons
 Discretize the solute cavity surface with Lebedev spheres
	Using 110 Lebedev grid points for each H atom
	Using 194 Lebedev grid points for other atoms
	Atomic van der Waals radii will be scaled by 1.20
 Remove points where switching function is < 1.0e-08
 Keep 660 surface tesserae and discard 420 interior tesserae
 Molecular Surface Area = 155.820 Angst**2
 Applying Cartesian multipole field
    Component          Value
    ---------          -----
     (2,0,0)        1.00000E-11
     (0,2,0)        2.00000E-11
     (0,0,2)       -3.00000E-11
 Nucleus-field energy     =     0.0000000070 hartrees
 Requested basis set is def2-SVPD
 There are 42 shells and 98 basis functions
 A cutoff of  1.0D-14 yielded    881 shell pairs
 There are      4845 function pairs (      5462 Cartesian)
 Smallest overlap matrix eigenvalue = 5.12E-04
 Guess from superposition of atomic densities
 Warning:  Energy on first SCF cycle will be non-variational
 SAD guess density has 29.000000 electrons

 -----------------------------------------------------------------------
  General SCF calculation program by
  Eric Jon Sundstrom, Paul Horn, Yuezhi Mao, Dmitri Zuev, Alec White,
  David Stuck, Shaama M.S., Shane Yost, Joonho Lee, David Small,
  Daniel Levine, Susi Lehtola, Hugh Burton, Evgeny Epifanovsky,
  Bang C. Huynh
 -----------------------------------------------------------------------
 Exchange:     0.1670 Hartree-Fock + 1.0000 wB97X-V + LR-HF
 Correlation:  1.0000 wB97X-V
 Using SG-3 standard quadrature grid
 Nonlocal Correlation:  VV10 with C = 0.0100 and b = 6.00 and scale = 1.00000
 Grid used for NLC:  SG-1 standard quadrature
 
 Citation of the SMD model:
 Marenich, A.V.; Cramer, C.J.; Truhlar, D.G.
 J. Phys. Chem. B 2009, 113, 6378-6396.
 iSolventCode=           0
 Solvent: other                                                           
 
 vradii
            1           2           3           4           5           6
    1   1.8500000   2.2940000   1.2000000   2.2940000   2.1476001   2.1476001
 using 40 threads for integral computing
 -------------------------------------------------------
 OpenMP Integral computing Module                
 Release: version 1.0, May 2013, Q-Chem Inc. Pittsburgh 
 -------------------------------------------------------
 using 40 threads for integral computing
 -------------------------------------------------------
 OpenMP Integral computing Module                
 Release: version 1.0, May 2013, Q-Chem Inc. Pittsburgh 
 -------------------------------------------------------
 -------------------------------------------------------
 OpenMP BLAS3 based DFT computing Module                
 Release: version 1.0, May 2013, Q-Chem Inc. Pittsburgh 
 -------------------------------------------------------
 -------------------------------------------------------
 OpenMP BLAS3 based DFT computing Module                
 Release: version 1.0, May 2013, Q-Chem Inc. Pittsburgh 
 -------------------------------------------------------
 -------------------------------------------------------
 OpenMP BLAS3 based DFT computing Module                
 Release: version 1.0, May 2013, Q-Chem Inc. Pittsburgh 
 -------------------------------------------------------
 A unrestricted SCF calculation will be
 performed using DIIS
 SCF converges when DIIS error is below 1.0e-08
 ---------------------------------------
  Cycle       Energy         DIIS error
 ---------------------------------------
    1    -203.3426942103      2.25e-02  
    2    -203.5617139268      9.52e-03  
    3    -201.8016278064      1.95e-02  
    4    -203.9182936070      3.27e-03  
    5    -203.9541217138      2.04e-03  
    6    -203.9694634016      3.07e-04  
    7    -203.9700829381      9.74e-05  
    8    -203.9701712721      3.88e-05  
    9    -203.9701924653      1.05e-05  
   10    -203.9701970380      5.61e-06  
   11    -203.9701987885      2.54e-06  
   12    -203.9701993062      1.06e-06  
   13    -203.9701993679      3.22e-07  
   14    -203.9701993728      1.48e-07  
   15    -203.9701993736      4.82e-08  
   16    -203.9701993737      1.81e-08  
   17    -203.9701993737      7.38e-09  Convergence criterion met
 ---------------------------------------
 SCF time:   CPU 412.52s  wall 13.00s 
<S^2> =          0.753328804
(3)  G-ENP(liq) elect-nuc-pol free energy of system     -203.970199374 a.u.
(4)  G-CDS(liq) cavity-dispersion-solvent structure 
     free energy                                               -0.1742 kcal/mol
(6)  G-S(liq) free energy of system                     -203.970476988 a.u.
 SCF   energy in the final basis set =     -203.9701993737
 Total energy in the final basis set =     -203.9704769880
 
 --------------------------------------------------------------
 
                    Orbital Energies (a.u.)
 --------------------------------------------------------------
 
 Alpha MOs
 -- Occupied --
-19.3056 -19.0558 -10.3993  -2.0329  -2.0189  -1.2419  -0.8411  -0.7379
 -0.6287  -0.5735  -0.5593  -0.3399  -0.3011  -0.2713  -0.2697
 -- Virtual --
  0.0263   0.0324   0.0460   0.0619   0.0649   0.0787   0.0836   0.0890
  0.1122   0.1228   0.1359   0.1521   0.1677   0.1884   0.1979   0.2230
  0.2256   0.2321   0.2444   0.2604   0.2839   0.2889   0.2974   0.3173
  0.3319   0.3390   0.3790   0.3889   0.4228   0.4369   0.4431   0.4706
  0.4902   0.5060   0.5259   0.5695   0.6103   0.6265   0.6349   0.6433
  0.6618   0.6754   0.6828   0.7124   0.7399   0.7498   0.8009   0.8188
  0.8276   0.8652   0.9428   0.9608   1.0051   1.0264   1.0404   1.1554
  1.1936   1.4058   1.4232   1.4819   1.5159   1.6047   1.6163   1.6730
  1.7094   1.7756   1.8909   1.9537   1.9677   2.0746   2.1760   2.6123
  2.7762   2.9119   2.9762   3.0882   3.0922   3.1262   3.1526   3.1666
  3.2487   3.4462   3.8096
 
 Beta MOs
 -- Occupied --
-19.2975 -19.0554 -10.3923  -2.0329  -2.0180  -1.2245  -0.8399  -0.7073
 -0.6014  -0.5499  -0.5159  -0.3007  -0.2707  -0.2685
 -- Virtual --
 -0.0121   0.0273   0.0405   0.0523   0.0622   0.0654   0.0790   0.0847
  0.0911   0.1135   0.1236   0.1389   0.1546   0.1709   0.1895   0.1981
  0.2249   0.2261   0.2365   0.2487   0.2614   0.2859   0.2906   0.3032
  0.3189   0.3384   0.3421   0.3830   0.3910   0.4252   0.4413   0.4513
  0.4728   0.4950   0.5075   0.5333   0.5757   0.6121   0.6313   0.6368
  0.6438   0.6651   0.6809   0.6842   0.7166   0.7426   0.7519   0.8076
  0.8216   0.8301   0.8744   0.9482   0.9659   1.0096   1.0345   1.0490
  1.1613   1.2036   1.4067   1.4251   1.4904   1.5255   1.6226   1.6369
  1.6906   1.7167   1.7829   1.9003   1.9751   1.9898   2.0981   2.1927
  2.6364   2.7999   2.9360   2.9993   3.0894   3.0934   3.1267   3.1539
  3.1675   3.2569   3.4746   3.8228
 --------------------------------------------------------------
 
          Ground-State Mulliken Net Atomic Charges

     Atom                 Charge (a.u.)    Spin (a.u.)
  --------------------------------------------------------
      1 C                     0.208413       0.480326
      2 O                    -0.284718       0.306266
      3 H                     0.065110       0.175386
      4 O                    -1.719713      -0.001099
      5 Li                    0.890237       0.003443
      6 Li                    0.840670       0.035678
  --------------------------------------------------------
  Sum of atomic charges =    -0.000000
  Sum of spin   charges =     1.000000

  Building new vdw surfaces
         Merz-Kollman RESP Net Atomic Charges

     Atom                 Charge (a.u.)
  ----------------------------------------
      1 C                     0.118643
      2 O                    -0.249711
      3 H                     0.215941
      4 O                    -1.775324
      5 Li                    0.907356
      6 Li                    0.783096
  ----------------------------------------
  Sum of atomic charges =     0.000000

  Related Dipole Moment =     1.1929 (X  0.9817 Y -0.0594 Z  0.6751)

 -----------------------------------------------------------------
                    Cartesian Multipole Moments
 -----------------------------------------------------------------
    Charge (ESU x 10^10)
                 0.0000
    Dipole Moment (Debye)
         X       0.9323      Y      -0.0853      Z       0.7248
       Tot       1.1840
    Quadrupole Moments (Debye-Ang)
        XX     -28.3209     XY       7.6544     YY      -0.5910
        XZ       4.6522     YZ       1.3050     ZZ     -22.0105
    Octopole Moments (Debye-Ang^2)
       XXX      13.4542    XXY      -6.9860    XYY      -2.2399
       YYY     100.7686    XXZ      -0.4709    XYZ      -5.1677
       YYZ      28.2488    XZZ       1.8650    YZZ       2.2223
       ZZZ       8.1348
    Hexadecapole Moments (Debye-Ang^3)
      XXXX    -188.8351   XXXY     132.2036   XXYY    -120.5717
      XYYY      72.6379   YYYY     -52.2933   XXXZ      28.1895
      XXYZ     -13.1579   XYYZ       1.8294   YYYZ      21.3482
      XXZZ     -39.8939   XYZZ      37.1610   YYZZ     -72.1551
      XZZZ      22.3266   YZZZ     -32.6294   ZZZZ     -60.0713
 -----------------------------------------------------------------
 Calculating analytic gradient of the SCF energy
 Gradient of CDS energy
            1           2           3           4           5           6
    1   0.0002296   0.0001555   0.0000224   0.0000683  -0.0000988  -0.0003768
    2  -0.0006125   0.0000603   0.0000842   0.0000144  -0.0003242   0.0007778
    3   0.0008882  -0.0003152  -0.0003375  -0.0000795  -0.0000694  -0.0000866
 Gradient of SCF Energy
            1           2           3           4           5           6
    1  -0.0058041   0.0061848   0.0001959  -0.0042646   0.0034607   0.0002273
    2   0.0045449  -0.0008777  -0.0035202  -0.0010720   0.0081950  -0.0072699
    3  -0.0079854  -0.0042002   0.0116820   0.0005473   0.0015950  -0.0016386
 Max gradient component =       1.168E-02
 RMS gradient           =       5.167E-03
 Computing fast CPCM-SWIG gradient
 Updating gradient with PCM contributions...
 -- total gradient after adding PCM contribution --
---------------------------------------------------
  Atom         X              Y              Z     
---------------------------------------------------
   1       0.000205       0.000052      -0.000021
   2      -0.000165      -0.000013       0.000070
   3      -0.000017      -0.000048       0.000016
   4       0.000133      -0.000010      -0.000035
   5      -0.000146      -0.000658      -0.000205
   6      -0.000010       0.000678       0.000174
---------------------------------------------------
 Number of fixed atoms: 0
 Gradient time:  CPU 46.01 s  wall 1.54 s
 Geometry Optimization Parameters
   NAtoms,    NIC,     NZ,  NCons,   NDum,   NFix, NCnnct, MaxDiis
        6      32       0       0       0       0       0       0

 Cartesian Hessian Update
 Hessian updated using Powell/Murtagh-Sargent update
  Mixing factors:     0.994561 Powell                      0.005439 Murtagh-Sargent


** GEOMETRY OPTIMIZATION IN DELOCALIZED INTERNAL COORDINATES **
   Searching for a Transition State

   Optimization Cycle:   5

                       Coordinates (Angstroms)
     ATOM                X               Y               Z
      1  C         0.3999013617   -1.5915299837   -0.0279666301
      2  O         1.2826961046   -1.8769710326   -0.7536303473
      3  H         0.3276632912   -1.8636384425    1.0625087160
      4  O        -1.0809596621    1.5343846847    0.1556039722
      5  Li       -0.6068629457    3.0893596731    0.4885576445
      6  Li       -1.2283681499    0.0396751009   -0.5629133553
   Point Group: c1    Number of degrees of freedom:    12


   Energy is   -203.970476988

 Hessian updated using Powell/Murtagh-Sargent update
  Mixing factors:     0.985902 Powell                      0.014098 Murtagh-Sargent

 12 Hessian modes will be used to form the next step
  Hessian Eigenvalues:
    -0.003983    0.000033    0.001081    0.002131    0.011835    0.014560
     0.019232    0.050486    0.104728    0.120364    0.287149    1.040961
**WARNING** Magnitude of eigenvalue   2 too small.  Replaced by     0.000100

 Transition state search - taking P-RFO step
 Searching for Lamda that Maximizes Along the Lowest mode
 Value Taken    Lamda =   0.00000187
 Searching for Lamda that Minimizes Along All other modes
 Value Taken    Lamda =  -0.00001668
 Step Taken.  Stepsize is  0.074122

                             Maximum     Tolerance    Cnvgd?
         Gradient           0.000383      0.000300      NO
         Displacement       0.053591      0.001200      NO
         Energy change     -0.000002      0.000001      NO


 New Cartesian Coordinates Obtained by Inverse Iteration

 Displacement from previous Coordinates is:  0.067026
 ----------------------------------------------------------------
             Standard Nuclear Orientation (Angstroms)
    I     Atom           X                Y                Z
 ----------------------------------------------------------------
    1      C       0.3959606307    -1.5906651779    -0.0283848705
    2      O       1.2815435161    -1.8712952487    -0.7526807745
    3      H       0.3289097801    -1.8539051254     1.0645732912
    4      O      -1.0652429259     1.5321510946     0.1368039711
    5      Li     -0.6070441945     3.0873110173     0.5031856418
    6      Li     -1.2400568067     0.0276834400    -0.5613372590
 ----------------------------------------------------------------
 Nuclear Repulsion Energy =          72.84268304 hartrees
 There are       15 alpha and       14 beta electrons
 Discretize the solute cavity surface with Lebedev spheres
	Using 110 Lebedev grid points for each H atom
	Using 194 Lebedev grid points for other atoms
	Atomic van der Waals radii will be scaled by 1.20
 Remove points where switching function is < 1.0e-08
 Keep 659 surface tesserae and discard 421 interior tesserae
 Molecular Surface Area = 155.798 Angst**2
 Applying Cartesian multipole field
    Component          Value
    ---------          -----
     (2,0,0)        1.00000E-11
     (0,2,0)        2.00000E-11
     (0,0,2)       -3.00000E-11
 Nucleus-field energy     =     0.0000000069 hartrees
 Requested basis set is def2-SVPD
 There are 42 shells and 98 basis functions
 A cutoff of  1.0D-14 yielded    881 shell pairs
 There are      4845 function pairs (      5462 Cartesian)
 Smallest overlap matrix eigenvalue = 5.13E-04
 Guess from superposition of atomic densities
 Warning:  Energy on first SCF cycle will be non-variational
 SAD guess density has 29.000000 electrons

 -----------------------------------------------------------------------
  General SCF calculation program by
  Eric Jon Sundstrom, Paul Horn, Yuezhi Mao, Dmitri Zuev, Alec White,
  David Stuck, Shaama M.S., Shane Yost, Joonho Lee, David Small,
  Daniel Levine, Susi Lehtola, Hugh Burton, Evgeny Epifanovsky,
  Bang C. Huynh
 -----------------------------------------------------------------------
 Exchange:     0.1670 Hartree-Fock + 1.0000 wB97X-V + LR-HF
 Correlation:  1.0000 wB97X-V
 Using SG-3 standard quadrature grid
 Nonlocal Correlation:  VV10 with C = 0.0100 and b = 6.00 and scale = 1.00000
 Grid used for NLC:  SG-1 standard quadrature
 
 Citation of the SMD model:
 Marenich, A.V.; Cramer, C.J.; Truhlar, D.G.
 J. Phys. Chem. B 2009, 113, 6378-6396.
 iSolventCode=           0
 Solvent: other                                                           
 
 vradii
            1           2           3           4           5           6
    1   1.8500000   2.2940000   1.2000000   2.2940000   2.1476001   2.1476001
 using 40 threads for integral computing
 -------------------------------------------------------
 OpenMP Integral computing Module                
 Release: version 1.0, May 2013, Q-Chem Inc. Pittsburgh 
 -------------------------------------------------------
 using 40 threads for integral computing
 -------------------------------------------------------
 OpenMP Integral computing Module                
 Release: version 1.0, May 2013, Q-Chem Inc. Pittsburgh 
 -------------------------------------------------------
 -------------------------------------------------------
 OpenMP BLAS3 based DFT computing Module                
 Release: version 1.0, May 2013, Q-Chem Inc. Pittsburgh 
 -------------------------------------------------------
 -------------------------------------------------------
 OpenMP BLAS3 based DFT computing Module                
 Release: version 1.0, May 2013, Q-Chem Inc. Pittsburgh 
 -------------------------------------------------------
 -------------------------------------------------------
 OpenMP BLAS3 based DFT computing Module                
 Release: version 1.0, May 2013, Q-Chem Inc. Pittsburgh 
 -------------------------------------------------------
 A unrestricted SCF calculation will be
 performed using DIIS
 SCF converges when DIIS error is below 1.0e-08
 ---------------------------------------
  Cycle       Energy         DIIS error
 ---------------------------------------
    1    -203.3500334034      2.25e-02  
    2    -203.5618640711      9.51e-03  
    3    -201.7873131355      1.95e-02  
    4    -203.9181594087      3.27e-03  
    5    -203.9540667039      2.04e-03  
    6    -203.9694588450      3.08e-04  
    7    -203.9700811992      9.80e-05  
    8    -203.9701705331      3.91e-05  
    9    -203.9701922598      1.07e-05  
   10    -203.9701970539      5.74e-06  
   11    -203.9701989041      2.57e-06  
   12    -203.9701994373      1.06e-06  
   13    -203.9701994989      3.24e-07  
   14    -203.9701995038      1.49e-07  
   15    -203.9701995045      4.89e-08  
   16    -203.9701995046      1.83e-08  
   17    -203.9701995046      7.48e-09  Convergence criterion met
 ---------------------------------------
 SCF time:   CPU 426.49s  wall 13.00s 
<S^2> =          0.753328532
(3)  G-ENP(liq) elect-nuc-pol free energy of system     -203.970199505 a.u.
(4)  G-CDS(liq) cavity-dispersion-solvent structure 
     free energy                                               -0.1800 kcal/mol
(6)  G-S(liq) free energy of system                     -203.970486389 a.u.
 SCF   energy in the final basis set =     -203.9701995046
[...]
         Energy change     -0.000004      0.000001      NO


 New Cartesian Coordinates Obtained by Inverse Iteration

 Displacement from previous Coordinates is:  0.050646
 ----------------------------------------------------------------
             Standard Nuclear Orientation (Angstroms)
    I     Atom           X                Y                Z
 ----------------------------------------------------------------
    1      C       0.3960571497    -1.5958064007    -0.0282279861
    2      O       1.2767933321    -1.8828648507    -0.7558720479
    3      H       0.3322620130    -1.8566608950     1.0655006366
    4      O      -1.0526227416     1.5373646072     0.1319756077
    5      Li     -0.6250083147     3.0992048727     0.5079507896
    6      Li     -1.2334114386     0.0300426665    -0.5591670000
 ----------------------------------------------------------------
 Nuclear Repulsion Energy =          72.80031295 hartrees
 There are       15 alpha and       14 beta electrons
 Discretize the solute cavity surface with Lebedev spheres
	Using 110 Lebedev grid points for each H atom
	Using 194 Lebedev grid points for other atoms
	Atomic van der Waals radii will be scaled by 1.20
 Remove points where switching function is < 1.0e-08
 Keep 660 surface tesserae and discard 420 interior tesserae
 Molecular Surface Area = 155.819 Angst**2
 Applying Cartesian multipole field
    Component          Value
    ---------          -----
     (2,0,0)        1.00000E-11
     (0,2,0)        2.00000E-11
     (0,0,2)       -3.00000E-11
 Nucleus-field energy     =     0.0000000070 hartrees
 Requested basis set is def2-SVPD
 There are 42 shells and 98 basis functions
 A cutoff of  1.0D-14 yielded    881 shell pairs
 There are      4845 function pairs (      5462 Cartesian)
 Smallest overlap matrix eigenvalue = 5.13E-04
 Guess from superposition of atomic densities
 Warning:  Energy on first SCF cycle will be non-variational
 SAD guess density has 29.000000 electrons

 -----------------------------------------------------------------------
  General SCF calculation program by
  Eric Jon Sundstrom, Paul Horn, Yuezhi Mao, Dmitri Zuev, Alec White,
  David Stuck, Shaama M.S., Shane Yost, Joonho Lee, David Small,
  Daniel Levine, Susi Lehtola, Hugh Burton, Evgeny Epifanovsky,
  Bang C. Huynh
 -----------------------------------------------------------------------
 Exchange:     0.1670 Hartree-Fock + 1.0000 wB97X-V + LR-HF
 Correlation:  1.0000 wB97X-V
 Using SG-3 standard quadrature grid
 Nonlocal Correlation:  VV10 with C = 0.0100 and b = 6.00 and scale = 1.00000
 Grid used for NLC:  SG-1 standard quadrature
 
 Citation of the SMD model:
 Marenich, A.V.; Cramer, C.J.; Truhlar, D.G.
 J. Phys. Chem. B 2009, 113, 6378-6396.
 iSolventCode=           0
 Solvent: other                                                           
 
 vradii
            1           2           3           4           5           6
    1   1.8500000   2.2940000   1.2000000   2.2940000   2.1476001   2.1476001
 using 40 threads for integral computing
 -------------------------------------------------------
 OpenMP Integral computing Module                
 Release: version 1.0, May 2013, Q-Chem Inc. Pittsburgh 
 -------------------------------------------------------
 using 40 threads for integral computing
 -------------------------------------------------------
 OpenMP Integral computing Module                
 Release: version 1.0, May 2013, Q-Chem Inc. Pittsburgh 
 -------------------------------------------------------
 -------------------------------------------------------
 OpenMP BLAS3 based DFT computing Module                
 Release: version 1.0, May 2013, Q-Chem Inc. Pittsburgh 
 -------------------------------------------------------
 -------------------------------------------------------
 OpenMP BLAS3 based DFT computing Module                
 Release: version 1.0, May 2013, Q-Chem Inc. Pittsburgh 
 -------------------------------------------------------
 -------------------------------------------------------
 OpenMP BLAS3 based DFT computing Module                
 Release: version 1.0, May 2013, Q-Chem Inc. Pittsburgh 
 -------------------------------------------------------
 A unrestricted SCF calculation will be
 performed using DIIS
 SCF converges when DIIS error is below 1.0e-08
 ---------------------------------------
  Cycle       Energy         DIIS error
 ---------------------------------------
    1    -203.3357332557      2.25e-02  
    2    -203.5618640859      9.51e-03  
    3    -201.7864157128      1.95e-02  
    4    -203.9181999845      3.27e-03  
    5    -203.9540681321      2.04e-03  
    6    -203.9694618294      3.07e-04  
    7    -203.9700829968      9.79e-05  
    8    -203.9701720203      3.91e-05  
    9    -203.9701935417      1.06e-05  
   10    -203.9701982350      5.68e-06  
   11    -203.9702000425      2.56e-06  
   12    -203.9702005693      1.06e-06  
   13    -203.9702006306      3.21e-07  
   14    -203.9702006354      1.47e-07  
   15    -203.9702006361      4.85e-08  
   16    -203.9702006362      1.82e-08  
   17    -203.9702006362      7.41e-09  Convergence criterion met
 ---------------------------------------
 SCF time:   CPU 420.77s  wall 13.00s 
<S^2> =          0.753326285
(3)  G-ENP(liq) elect-nuc-pol free energy of system     -203.970200636 a.u.
(4)  G-CDS(liq) cavity-dispersion-solvent structure 
     free energy                                               -0.1799 kcal/mol
(6)  G-S(liq) free energy of system                     -203.970487397 a.u.
 SCF   energy in the final basis set =     -203.9702006362
 Total energy in the final basis set =     -203.9704873968
 
 --------------------------------------------------------------
 
                    Orbital Energies (a.u.)
 --------------------------------------------------------------
 
 Alpha MOs
 -- Occupied --
-19.3055 -19.0560 -10.3992  -2.0334  -2.0193  -1.2417  -0.8409  -0.7379
 -0.6286  -0.5734  -0.5591  -0.3399  -0.3013  -0.2708  -0.2694
 -- Virtual --
  0.0263   0.0324   0.0459   0.0619   0.0648   0.0784   0.0835   0.0889
  0.1120   0.1226   0.1358   0.1521   0.1678   0.1883   0.1977   0.2229
  0.2257   0.2315   0.2444   0.2621   0.2842   0.2896   0.2977   0.3167
  0.3312   0.3387   0.3796   0.3901   0.4227   0.4376   0.4440   0.4706
  0.4898   0.5053   0.5264   0.5689   0.6103   0.6258   0.6344   0.6413
  0.6611   0.6741   0.6833   0.7123   0.7408   0.7497   0.8016   0.8137
  0.8263   0.8648   0.9462   0.9640   1.0056   1.0279   1.0408   1.1547
  1.1946   1.4049   1.4235   1.4821   1.5158   1.6040   1.6161   1.6725
  1.7083   1.7788   1.8922   1.9543   1.9675   2.0746   2.1765   2.6121
  2.7763   2.9122   2.9763   3.0873   3.0919   3.1253   3.1532   3.1676
  3.2489   3.4460   3.8096
 
 Beta MOs
 -- Occupied --
-19.2974 -19.0556 -10.3922  -2.0334  -2.0184  -1.2243  -0.8397  -0.7073
 -0.6013  -0.5497  -0.5158  -0.3008  -0.2703  -0.2683
 -- Virtual --
 -0.0121   0.0273   0.0405   0.0523   0.0623   0.0654   0.0788   0.0846
  0.0910   0.1134   0.1235   0.1389   0.1546   0.1709   0.1893   0.1979
  0.2248   0.2263   0.2362   0.2485   0.2632   0.2861   0.2914   0.3033
  0.3183   0.3379   0.3418   0.3837   0.3923   0.4252   0.4426   0.4515
  0.4726   0.4945   0.5070   0.5338   0.5752   0.6120   0.6303   0.6362
  0.6420   0.6645   0.6796   0.6849   0.7166   0.7435   0.7520   0.8073
  0.8162   0.8299   0.8737   0.9531   0.9680   1.0103   1.0356   1.0492
  1.1606   1.2048   1.4057   1.4254   1.4906   1.5255   1.6219   1.6366
  1.6889   1.7177   1.7855   1.9015   1.9755   1.9896   2.0981   2.1932
  2.6362   2.8000   2.9363   2.9994   3.0885   3.0931   3.1259   3.1545
  3.1686   3.2571   3.4744   3.8227
 --------------------------------------------------------------
 
          Ground-State Mulliken Net Atomic Charges

     Atom                 Charge (a.u.)    Spin (a.u.)
  --------------------------------------------------------
      1 C                     0.208923       0.480415
      2 O                    -0.285252       0.306190
      3 H                     0.065052       0.175493
      4 O                    -1.717264      -0.001290
      5 Li                    0.889234       0.003441
      6 Li                    0.839306       0.035752
  --------------------------------------------------------
  Sum of atomic charges =    -0.000000
  Sum of spin   charges =     1.000000

  Building new vdw surfaces
         Merz-Kollman RESP Net Atomic Charges

     Atom                 Charge (a.u.)
  ----------------------------------------
      1 C                     0.119590
      2 O                    -0.248963
      3 H                     0.214469
      4 O                    -1.784836
      5 Li                    0.912443
      6 Li                    0.787297
  ----------------------------------------
  Sum of atomic charges =     0.000000

  Related Dipole Moment =     1.1732 (X  0.6636 Y -0.0611 Z  0.9655)

 -----------------------------------------------------------------
                    Cartesian Multipole Moments
 -----------------------------------------------------------------
    Charge (ESU x 10^10)
                -0.0000
    Dipole Moment (Debye)
         X       0.6293      Y      -0.0826      Z       1.0088
       Tot       1.1919
    Quadrupole Moments (Debye-Ang)
        XX     -27.7219     XY       7.0919     YY      -0.4564
        XZ       4.3390     YZ       1.8850     ZZ     -21.9094
    Octopole Moments (Debye-Ang^2)
       XXX      11.8951    XXY      -6.0639    XYY      -3.9048
       YYY     102.0542    XXZ       0.0906    XYZ      -5.8417
       YYZ      29.9741    XZZ       1.5309    YZZ       2.6018
       ZZZ       9.0171
    Hexadecapole Moments (Debye-Ang^3)
      XXXX    -183.3259   XXXY     129.5563   XXYY    -118.1115
      XYYY      67.2544   YYYY     -49.6148   XXXZ      26.9104
      XXYZ     -12.1667   XYYZ       0.0079   YYYZ      26.2648
      XXZZ     -39.0447   XYZZ      36.3950   YYZZ     -71.4681
      XZZZ      21.3190   YZZZ     -31.4949   ZZZZ     -59.8500
 -----------------------------------------------------------------
 Calculating analytic gradient of the SCF energy
 Gradient of CDS energy
            1           2           3           4           5           6
    1   0.0002344   0.0001550   0.0000197   0.0000515  -0.0000889  -0.0003719
    2  -0.0006070   0.0000589   0.0000807   0.0000132  -0.0003246   0.0007788
    3   0.0008889  -0.0003157  -0.0003385  -0.0000646  -0.0000781  -0.0000920
 Gradient of SCF Energy
            1           2           3           4           5           6
    1  -0.0057390   0.0059699   0.0002840  -0.0035433   0.0031784  -0.0001500
    2   0.0041436  -0.0006920  -0.0033047  -0.0010362   0.0089987  -0.0081094
    3  -0.0081295  -0.0040299   0.0115943  -0.0001676   0.0022283  -0.0014956
 Max gradient component =       1.159E-02
 RMS gradient           =       5.227E-03
 Computing fast CPCM-SWIG gradient
 Updating gradient with PCM contributions...
 -- total gradient after adding PCM contribution --
---------------------------------------------------
  Atom         X              Y              Z     
---------------------------------------------------
   1      -0.000007      -0.000005       0.000003
   2      -0.000018      -0.000010       0.000005
   3      -0.000009       0.000000       0.000006
   4       0.000016      -0.000001      -0.000003
   5       0.000021       0.000014      -0.000004
   6      -0.000002       0.000001      -0.000007
---------------------------------------------------
 Number of fixed atoms: 0
 Gradient time:  CPU 47.11 s  wall 1.68 s
 Geometry Optimization Parameters
   NAtoms,    NIC,     NZ,  NCons,   NDum,   NFix, NCnnct, MaxDiis
        6      32       0       0       0       0       0       0

 Cartesian Hessian Update
 Hessian updated using Powell/Murtagh-Sargent update
  Mixing factors:     0.994690 Powell                      0.005310 Murtagh-Sargent


** GEOMETRY OPTIMIZATION IN DELOCALIZED INTERNAL COORDINATES **
   Searching for a Transition State

   Optimization Cycle:  10

                       Coordinates (Angstroms)
     ATOM                X               Y               Z
      1  C         0.3960571497   -1.5958064007   -0.0282279861
      2  O         1.2767933321   -1.8828648507   -0.7558720479
      3  H         0.3322620130   -1.8566608950    1.0655006366
      4  O        -1.0526227416    1.5373646072    0.1319756077
      5  Li       -0.6250083147    3.0992048727    0.5079507896
      6  Li       -1.2334114386    0.0300426665   -0.5591670000
   Point Group: c1    Number of degrees of freedom:    12


   Energy is   -203.970487397

 Hessian updated using Powell/Murtagh-Sargent update
  Mixing factors:     0.855021 Powell                      0.144979 Murtagh-Sargent

 12 Hessian modes will be used to form the next step
  Hessian Eigenvalues:
    -0.003936    0.000091    0.001113    0.001753    0.011829    0.014560
     0.019211    0.050541    0.104726    0.120366    0.287150    1.040970
**WARNING** Magnitude of eigenvalue   2 too small.  Replaced by     0.000100

 Transition state search - taking P-RFO step
 Searching for Lamda that Maximizes Along the Lowest mode
 Value Taken    Lamda =   0.00000001
 Searching for Lamda that Minimizes Along All other modes
 Value Taken    Lamda =  -0.00000004
 Step Taken.  Stepsize is  0.009381

                             Maximum     Tolerance    Cnvgd?
         Gradient           0.000006      0.000300     YES
         Displacement       0.007577      0.001200      NO
         Energy change     -0.000001      0.000001     YES


                       Distance Matrix (Angstroms)
             C (  1)   O (  2)   H (  3)   O (  4)   Li(  5)
   O (  2)  1.177949
   H (  3)  1.126214  2.051883
   O (  4)  3.455590  4.232307  3.782695
   Li(  5)  4.834583  5.480430  5.078172  1.662395
   Li(  6)  2.362297  3.162125  2.941178  1.668047  3.305851
 
 Final energy is   -203.970487396766     


 ******************************
 **  OPTIMIZATION CONVERGED  **
 ******************************

                       Coordinates (Angstroms)
     ATOM                X               Y               Z
      1  C         0.3960571497   -1.5958064007   -0.0282279861
      2  O         1.2767933321   -1.8828648507   -0.7558720479
      3  H         0.3322620130   -1.8566608950    1.0655006366
      4  O        -1.0526227416    1.5373646072    0.1319756077
      5  Li       -0.6250083147    3.0992048727    0.5079507896
      6  Li       -1.2334114386    0.0300426665   -0.5591670000

Z-matrix Print:
$molecule
0 2
O 
C  1 1.177949
H  2 1.126214 1 125.860368
Li 2 2.362297 1 122.999070 3 165.367641 0
O  4 1.668047 2 117.003570 1 -101.410942 0
Li 5 1.662395 4 166.066062 2 84.026043 0
$end

 
 --------------------------------------------------------------
 
                    Orbital Energies (a.u.)
 --------------------------------------------------------------
 
 Alpha MOs
 -- Occupied --
-19.3055 -19.0560 -10.3992  -2.0334  -2.0193  -1.2417  -0.8409  -0.7379
 -0.6286  -0.5734  -0.5591  -0.3399  -0.3013  -0.2708  -0.2694
 -- Virtual --
  0.0263   0.0324   0.0459   0.0619   0.0648   0.0784   0.0835   0.0889
  0.1120   0.1226   0.1358   0.1521   0.1678   0.1883   0.1977   0.2229
  0.2257   0.2315   0.2444   0.2621   0.2842   0.2896   0.2977   0.3167
  0.3312   0.3387   0.3796   0.3901   0.4227   0.4376   0.4440   0.4706
  0.4898   0.5053   0.5264   0.5689   0.6103   0.6258   0.6344   0.6413
  0.6611   0.6741   0.6833   0.7123   0.7408   0.7497   0.8016   0.8137
  0.8263   0.8648   0.9462   0.9640   1.0056   1.0279   1.0408   1.1547
  1.1946   1.4049   1.4235   1.4821   1.5158   1.6040   1.6161   1.6725
  1.7083   1.7788   1.8922   1.9543   1.9675   2.0746   2.1765   2.6121
  2.7763   2.9122   2.9763   3.0873   3.0919   3.1253   3.1532   3.1676
  3.2489   3.4460   3.8096
 
 Beta MOs
 -- Occupied --
-19.2974 -19.0556 -10.3922  -2.0334  -2.0184  -1.2243  -0.8397  -0.7073
 -0.6013  -0.5497  -0.5158  -0.3008  -0.2703  -0.2683
 -- Virtual --
 -0.0121   0.0273   0.0405   0.0523   0.0623   0.0654   0.0788   0.0846
  0.0910   0.1134   0.1235   0.1389   0.1546   0.1709   0.1893   0.1979
  0.2248   0.2263   0.2362   0.2485   0.2632   0.2861   0.2914   0.3033
  0.3183   0.3379   0.3418   0.3837   0.3923   0.4252   0.4426   0.4515
  0.4726   0.4945   0.5070   0.5338   0.5752   0.6120   0.6303   0.6362
  0.6420   0.6645   0.6796   0.6849   0.7166   0.7435   0.7520   0.8073
  0.8162   0.8299   0.8737   0.9531   0.9680   1.0103   1.0356   1.0492
  1.1606   1.2048   1.4057   1.4254   1.4906   1.5255   1.6219   1.6366
  1.6889   1.7177   1.7855   1.9015   1.9755   1.9896   2.0981   2.1932
  2.6362   2.8000   2.9363   2.9994   3.0885   3.0931   3.1259   3.1545
  3.1686   3.2571   3.4744   3.8227
 --------------------------------------------------------------
 
          Ground-State Mulliken Net Atomic Charges

     Atom                 Charge (a.u.)    Spin (a.u.)
  --------------------------------------------------------
      1 C                     0.208923       0.480415
      2 O                    -0.285252       0.306190
      3 H                     0.065052       0.175493
      4 O                    -1.717264      -0.001290
      5 Li                    0.889234       0.003441
      6 Li                    0.839306       0.035752
  --------------------------------------------------------
  Sum of atomic charges =    -0.000000
  Sum of spin   charges =     1.000000

         Merz-Kollman RESP Net Atomic Charges

     Atom                 Charge (a.u.)
  ----------------------------------------
      1 C                     0.119590
      2 O                    -0.248963
      3 H                     0.214469
      4 O                    -1.784836
      5 Li                    0.912443
      6 Li                    0.787297
  ----------------------------------------
  Sum of atomic charges =     0.000000

  Related Dipole Moment =     1.1732 (X  0.6636 Y -0.0611 Z  0.9655)

 -----------------------------------------------------------------
                    Cartesian Multipole Moments
 -----------------------------------------------------------------
    Charge (ESU x 10^10)
                -0.0000
    Dipole Moment (Debye)
         X       0.6293      Y      -0.0826      Z       1.0088
       Tot       1.1919
    Quadrupole Moments (Debye-Ang)
        XX     -27.7219     XY       7.0919     YY      -0.4564
        XZ       4.3390     YZ       1.8850     ZZ     -21.9094
    Octopole Moments (Debye-Ang^2)
       XXX      11.8951    XXY      -6.0639    XYY      -3.9048
       YYY     102.0542    XXZ       0.0906    XYZ      -5.8417
       YYZ      29.9741    XZZ       1.5309    YZZ       2.6018
       ZZZ       9.0171
    Hexadecapole Moments (Debye-Ang^3)
      XXXX    -183.3259   XXXY     129.5563   XXYY    -118.1115
      XYYY      67.2544   YYYY     -49.6148   XXXZ      26.9104
      XXYZ     -12.1667   XYYZ       0.0079   YYYZ      26.2648
      XXZZ     -39.0447   XYZZ      36.3950   YYZZ     -71.4681
      XZZZ      21.3190   YZZZ     -31.4949   ZZZZ     -59.8500
 -----------------------------------------------------------------
Archival summary:
1\1\n0102.lr6\TS\ProcedureUnspecified\BasisUnspecified\21i21(2)\ewcspott\WedNov1109:00:172020WedNov1109:00:172020\0\\#,TS,ProcedureUnspecified,BasisUnspecified,\\0,2\O\C,1,1.17795\H,2,1.12621,1,125.86\Li,2,2.3623,1,122.999,3,165.368,0\O,4,1.66805,2,117.004,1,-101.411,0\Li,5,1.66239,4,166.066,2,84.026,0\\\@

 Total job time:  151.63s(wall), 4758.64s(cpu) 
 Wed Nov 11 09:00:17 2020

        *************************************************************
        *                                                           *
        *  Thank you very much for using Q-Chem.  Have a nice day.  *
        *                                                           *
        *************************************************************


