
Running Job 1 of 1 mol.qin
qchem mol.qin_50702.0 /tmp/qchem50702/ 1
/global/common/cori/software/qchem/5.1/exe/qcprog.exe mol.qin_50702.0 /tmp/qchem50702/
Check license passed

                  Welcome to Q-Chem
     A Quantum Leap Into The Future Of Chemistry


 Q-Chem 5.1, Q-Chem, Inc., Pleasanton, CA (2018)

 Yihan Shao,  Zhengting Gan,  E. Epifanovsky,  A. T. B. Gilbert,  M. Wormit,  
 J. Kussmann,  A. W. Lange,  A. Behn,  Jia Deng,  Xintian Feng,  D. Ghosh,  
 M. Goldey,  P. R. Horn,  L. D. Jacobson,  I. Kaliman,  T. Kus,  A. Landau,  
 Jie Liu,  E. I. Proynov,  R. M. Richard,  R. P. Steele,  E. J. Sundstrom,  
 H. L. Woodcock III,  P. M. Zimmerman,  D. Zuev,  B. Albrecht,  E. Alguire,  
 S. A. Baeppler,  D. Barton,  Z. Benda,  Y. A. Bernard,  E. J. Berquist,  
 K. B. Bravaya,  H. Burton,  D. Casanova,  Chun-Min Chang,  Yunqing Chen,  
 A. Chien,  K. D. Closser,  M. P. Coons,  S. Coriani,  S. Dasgupta,  
 A. L. Dempwolff,  M. Diedenhofen,  Hainam Do,  R. G. Edgar,  Po-Tung Fang,  
 S. Faraji,  S. Fatehi,  Qingguo Feng,  K. D. Fenk,  J. Fosso-Tande,  
 Qinghui Ge,  A. Ghysels,  G. Gidofalvi,  J. Gomes,  J. Gonthier,  A. Gunina,  
 D. Hait,  M. W. D. Hanson-Heine,  P. H. P. Harbach,  A. W. Hauser,  
 J. E. Herr,  E. G. Hohenstein,  Z. C. Holden,  Kerwin Hui,  B. C. Huynh,  
 T.-C. Jagau,  Hyunjun Ji,  B. Kaduk,  K. Khistyaev,  Jaehoon Kim,  
 P. Klunzinger,  K. Koh,  D. Kosenkov,  L. Koulias,  T. Kowalczyk,  
 C. M. Krauter,  A. Kunitsa,  Ka Un Lao,  A. Laurent,  K. V. Lawler,  
 Joonho Lee,  D. Lefrancois,  S. Lehtola,  D. S. Levine,  Yi-Pei Li,  
 You-Sheng Lin,  Fenglai Liu,  E. Livshits,  A. Luenser,  P. Manohar,  
 E. Mansoor,  S. F. Manzer,  Shan-Ping Mao,  Yuezhi Mao,  N. Mardirossian,  
 A. V. Marenich,  T. Markovich,  L. A. Martinez-Martinez,  S. A. Maurer,  
 N. J. Mayhall,  S. C. McKenzie,  J.-M. Mewes,  A. F. Morrison,  
 J. W. Mullinax,  K. Nanda,  T. S. Nguyen-Beck,  R. Olivares-Amaya,  
 J. A. Parkhill,  T. M. Perrine,  F. Plasser,  P. Pokhilko,  S. Prager,  
 A. Prociuk,  E. Ramos,  D. R. Rehn,  F. Rob,  M. Schneider,  N. Sergueev,  
 S. M. Sharada,  S. Sharma,  D. W. Small,  T. Stauch,  T. Stein,  
 Yu-Chuan Su,  A. J. W. Thom,  A. Tkatchenko,  T. Tsuchimochi,  N. M. Tubman,  
 L. Vogt,  M. L. Vidal,  O. Vydrov,  M. A. Watson,  J. Wenzel,  
 M. de Wergifosse,  T. A. Wesolowski,  A. White,  J. Witte,  A. Yamada,  
 Jun Yang,  K. Yao,  S. Yeganeh,  S. R. Yost,  Zhi-Qiang You,  A. Zech,  
 Igor Ying Zhang,  Xing Zhang,  Yan Zhao,  Ying Zhu,  B. R. Brooks,  
 G. K. L. Chan,  C. J. Cramer,  M. S. Gordon,  W. J. Hehre,  A. Klamt,  
 M. W. Schmidt,  C. D. Sherrill,  D. G. Truhlar,  A. Aspuru-Guzik,  R. Baer,  
 A. T. Bell,  N. A. Besley,  Jeng-Da Chai,  R. A. DiStasio Jr.,  A. Dreuw,  
 B. D. Dunietz,  T. R. Furlani,  Chao-Ping Hsu,  Yousung Jung,  Jing Kong,  
 D. S. Lambrecht,  WanZhen Liang,  C. Ochsenfeld,  V. A. Rassolov,  
 L. V. Slipchenko,  J. E. Subotnik,  T. Van Voorhis,  J. M. Herbert,  
 A. I. Krylov,  P. M. W. Gill,  M. Head-Gordon

 Contributors to earlier versions of Q-Chem not listed above: 
 R. D. Adamson,  B. Austin,  J. Baker,  G. J. O. Beran,  K. Brandhorst,  
 S. T. Brown,  E. F. C. Byrd,  A. K. Chakraborty,  C.-L. Cheng,  
 Siu Hung Chien,  D. M. Chipman,  D. L. Crittenden,  H. Dachsel,  
 R. J. Doerksen,  A. D. Dutoi,  L. Fusti-Molnar,  W. A. Goddard III,  
 A. Golubeva-Zadorozhnaya,  S. R. Gwaltney,  G. Hawkins,  A. Heyden,  
 S. Hirata,  G. Kedziora,  F. J. Keil,  C. Kelley,  Jihan Kim,  R. A. King,  
 R. Z. Khaliullin,  P. P. Korambath,  W. Kurlancheek,  A. M. Lee,  M. S. Lee,  
 S. V. Levchenko,  Ching Yeh Lin,  D. Liotard,  R. C. Lochan,  I. Lotan,  
 P. E. Maslen,  N. Nair,  D. P. O'Neill,  D. Neuhauser,  E. Neuscamman,  
 C. M. Oana,  R. Olson,  B. Peters,  R. Peverati,  P. A. Pieniazek,  
 Y. M. Rhee,  J. Ritchie,  M. A. Rohrdanz,  E. Rosta,  N. J. Russ,  
 H. F. Schaefer III,  N. E. Schultz,  N. Shenvi,  A. C. Simmonett,  A. Sodt,  
 D. Stuck,  K. S. Thanthiriwatte,  V. Vanovschi,  Tao Wang,  A. Warshel,  
 C. F. Williams,  Q. Wu,  X. Xu,  W. Zhang

 Please cite Q-Chem as follows:
 Y. Shao et al., Mol. Phys. 113, 184-215 (2015)
 DOI: 10.1080/00268976.2014.952696

 Q-Chem 5.1.0 for Intel X86 EM64T Linux

 Parts of Q-Chem use Armadillo 8.300.2 (Tropical Shenanigans).
 http://arma.sourceforge.net/

 Q-Chem begins on Tue Nov 13 20:08:53 2018  

Host: cori01
0

     Scratch files written to /tmp/qchem50702//
 Jun2518 |scratch|qcdevops|jenkins|workspace|build_RNUM -1
Processing $rem in /global/common/cori/software/qchem/5.1/config/preferences.
 MEM_TOTAL  96000 
Symmetry turned off for PCM/SM12/SMD calculation

Checking the input file for inconsistencies... 	...done.

--------------------------------------------------------------
User input:
--------------------------------------------------------------
$molecule
-1 2
S      1.1727440742     -0.0357153007     -0.2082361994
C      0.6717261235      1.3714384481      0.8778158290
N      0.1918588951      0.0484677162     -1.4760802246
O      1.0420711044     -1.2500426616      0.5950541982
O      2.4978242037      0.3417473216     -0.6603358729
F     -0.5327102037      1.2664499563      1.4063749187
F      1.5654944785      1.6555947993      1.8236270324
S     -1.3383450195     -0.4072105009     -1.5211459498
C     -2.1754846503      1.2649991007     -1.7329921524
O     -1.6219670274     -1.0975866895     -2.7776883124
O     -1.8924433407     -0.9474578508     -0.2890597091
F     -1.7764402596      1.8596758148     -2.8561471462
F     -3.5035603664      1.1035525720     -1.7989533106
F     -1.8958782388      2.0715841629     -0.6963423133
$end

$rem
job_type = opt
basis = 6-311++g*
max_scf_cycles = 200
gen_scfman = true
scf_algorithm = gdm
method = wb97xd
geom_opt_max_cycles = 200
solvent_method = pcm
xc_grid = 3
$end

$pcm
heavypoints 194
hpoints 194
radii uff
theory cpcm
vdwscale 1.1
$end

$solvent
dielectric 3.0
$end
--------------------------------------------------------------
 ----------------------------------------------------------------
             Standard Nuclear Orientation (Angstroms)
    I     Atom           X                Y                Z
 ----------------------------------------------------------------
    1      S       1.1727440742    -0.0357153007    -0.2082361994
    2      C       0.6717261235     1.3714384481     0.8778158290
    3      N       0.1918588951     0.0484677162    -1.4760802246
    4      O       1.0420711044    -1.2500426616     0.5950541982
    5      O       2.4978242037     0.3417473216    -0.6603358729
    6      F      -0.5327102037     1.2664499563     1.4063749187
    7      F       1.5654944785     1.6555947993     1.8236270324
    8      S      -1.3383450195    -0.4072105009    -1.5211459498
    9      C      -2.1754846503     1.2649991007    -1.7329921524
   10      O      -1.6219670274    -1.0975866895    -2.7776883124
   11      O      -1.8924433407    -0.9474578508    -0.2890597091
   12      F      -1.7764402596     1.8596758148    -2.8561471462
   13      F      -3.5035603664     1.1035525720    -1.7989533106
   14      F      -1.8958782388     2.0715841629    -0.6963423133
 ----------------------------------------------------------------
 Nuclear Repulsion Energy =  1413.5638413880 hartrees
 There are       65 alpha and       64 beta electrons
 Requested basis set is 6-311++G(d)
 There are 98 shells and 324 basis functions

 Total QAlloc Memory Limit  96000 MB
 Mega-Array Size       188 MB
 MEM_STATIC part       192 MB
 Discretize the solute cavity surface with Lebedev spheres
	Using 194 Lebedev grid points for each H atom
	Using 194 Lebedev grid points for other atoms
	Atomic van der Waals radii will be scaled by 1.10
 Remove points where switching function is < 1.0e-08
 Keep 1239 surface tesserae and discard 1477 interior tesserae
 Molecular Surface Area = 219.031 Angst**2
 A cutoff of  1.0D-12 yielded   3799 shell pairs
 There are     43770 function pairs (     47337 Cartesian)
 
 -------------------------------------------------------
 OpenMP Integral Computing Module                       
 Release: version 1.0, May 2013, Q-Chem Inc. Pittsburgh 
 -------------------------------------------------------
 Integral Job Info:
 Integral job number is                      11
 Integral operator is                         1
 short-range coefficients              22203600
 long-range coefficients              100000000
 Omega coefficients                         200
 if combine SR and LR in K                    1
 Integral screening is                        0
 Integral computing path is                   2
 max size of driver memory is            800000
 size of driver memory is                593474
 size of scratch memory is              4293864
 max col of scratch BK array               1296
 max len of scratch array in speh3          155
 max len of scratch index in speh4           18
 max int batch size is                      520
 min int batch size is                       52
 fixed nKL is                                52
 max L of basis functions is                  2
 order of int derivative is                   0
 number of shells is                         98
 number of basis is                         338
 number of cartesian basis is               338
 number of contracted shell pairs          3799
 number of primitive shell pairs          10136
 maxK2 (contraction) of shell pair           36
 max number of K2 of shell pair               1
 max number of CS2 of shell pair            738
 max number of PS2 of shell pair           2562
 mem total for path MDJ                  604572
 -------------------------------------------------------
 Smallest overlap matrix eigenvalue = 4.95E-05

 Scale SEOQF with 1.000000e-01/1.000000e-01/1.000000e-01

 Standard Electronic Orientation quadrupole field applied
 Nucleus-field energy     =    -0.0000000058 hartrees
 Guess from superposition of atomic densities
 Warning:  Energy on first SCF cycle will be non-variational
 SAD guess density has 128.000000 electrons

 -----------------------------------------------------------------------
  General SCF calculation program by
  Eric Jon Sundstrom, Paul Horn, Yuezhi Mao, Dmitri Zuev, Alec White,
  David Stuck, Shaama M.S., Shane Yost, Joonho Lee, David Small,
  Daniel Levine, Susi Lehtola, Hugh Burton, Evgeny Epifanovsky
 -----------------------------------------------------------------------
 Exchange:     0.2220 Hartree-Fock + 1.0000 wB97X-D + LR-HF
 Correlation:  1.0000 wB97X-D
 Using SG-3 standard quadrature grid
 Dispersion:   Grimme D
 using 32 threads for integral computing
 -------------------------------------------------------
 OpenMP Integral computing Module                
 Release: version 1.0, May 2013, Q-Chem Inc. Pittsburgh 
 -------------------------------------------------------
 using 32 threads for integral computing
 -------------------------------------------------------
 OpenMP Integral computing Module                
 Release: version 1.0, May 2013, Q-Chem Inc. Pittsburgh 
 -------------------------------------------------------
 -------------------------------------------------------
 OpenMP BLAS3 based DFT computing Module                
 Release: version 1.0, May 2013, Q-Chem Inc. Pittsburgh 
 -------------------------------------------------------
 A unrestricted SCF calculation will be
 performed using Roothaan-Hall, GDM
 SCF converges when RMS gradient is below 1.0e-08
 ---------------------------------------
  Cycle       Energy         DIIS error
 ---------------------------------------
    1   -1730.6252121741      1.90e-02  Roothaan Step
 ---------------------------------------
  Cycle       Energy        RMS Gradient
 ---------------------------------------
    1   -1726.6975438030      1.76e-01   Descent step
    2   -1727.1480773570      6.75e-02   Descent step
    3   -1727.3276375315      2.14e-02   Normal BFGS step
    4   -1727.3464298650      9.33e-03   Normal BFGS step
    5   -1727.3477905550      8.37e-03   Normal BFGS step
    6   -1727.3494118108      3.08e-03   Normal BFGS step
    7   -1727.3494859632      1.48e-03   Normal BFGS step
    8   -1727.3495106492      3.35e-04   Normal BFGS step
    9   -1727.3495145672      2.63e-04   Normal BFGS step
   10   -1727.3495168564      1.53e-04   Normal BFGS step
   11   -1727.3495169712      6.99e-05   Normal BFGS step
   12   -1727.3495170475      1.80e-05   Normal BFGS step
   13   -1727.3495170523      5.48e-06   Normal BFGS step
   14   -1727.3495170542      2.09e-06   Normal BFGS step
   15   -1727.3495170544      1.66e-06   Normal BFGS step
   16   -1727.3495170545      3.86e-07   Normal BFGS step
   17   -1727.3495170545      2.01e-07   Normal BFGS step
   18   -1727.3495170545      1.22e-07   Normal BFGS step
   19   -1727.3495170545      4.90e-08   Normal BFGS step
   20   -1727.3495170545      1.24e-08   Normal BFGS step
   21   -1727.3495170545      7.16e-09  Convergence criterion met
 ---------------------------------------
 SCF time:   CPU 1698.49s  wall 104.00s 
<S^2> =          0.753286591

************** Final PCM Free Energy Summary **************
 G_electrostatic  =      -0.05103559 hartree =     -32.02531898 kcal/mol
 G_cavitation     =       0.00000000 hartree =       0.00000000 kcal/mol
 G_dispersion     =       0.00000000 hartree =       0.00000000 kcal/mol
 G_repulsion      =       0.00000000 hartree =       0.00000000 kcal/mol
 --------------------------------------------------
 Non-electrostatic Free Energy =       0.00000000 hartree =       0.00000000 kcal/mol
 Total                         =      -0.05103559 hartree =     -32.02531898 kcal/mol
 --------------------------------------------------
 SCF Energy (H0 + V/2)                       =   -1727.34951705 
 Solute Internal Energy (H0)                 =   -1727.29848146 
 Total Free Energy (H0 + V/2 + non-elec)     =   -1727.34951705 hartree
                                             = -1083928.18167896 kcal/mol
***********************************************************

 SCF   energy in the final basis set =    -1727.3495170545
 Total energy in the final basis set =    -1727.3495170545
 
 --------------------------------------------------------------
 
                    Orbital Energies (a.u.)
 --------------------------------------------------------------
 
 Alpha MOs
 -- Occupied --
-89.211 -89.210 -24.834 -24.833 -24.831 -24.831 -24.830 -19.219
-19.217 -19.217 -19.213 -14.408 -10.532 -10.453  -8.232  -8.231
 -6.181  -6.180  -6.180  -6.179  -6.179  -6.179  -1.417  -1.388
 -1.328  -1.327  -1.325  -1.211  -1.194  -1.088  -1.085  -0.989
 -0.834  -0.809  -0.759  -0.708  -0.680  -0.680  -0.668  -0.656
 -0.616  -0.600  -0.570  -0.556  -0.552  -0.542  -0.540  -0.535
 -0.526  -0.518  -0.515  -0.514  -0.501  -0.493  -0.460  -0.415
 -0.408  -0.403  -0.387  -0.383  -0.372  -0.364  -0.339  -0.334
 -0.297
 -- Virtual --
  0.103   0.110   0.117   0.128   0.139   0.140   0.144   0.148
  0.153   0.155   0.159   0.170   0.177   0.182   0.185   0.187
  0.199   0.202   0.204   0.216   0.231   0.239   0.257   0.260
  0.286   0.290   0.304   0.305   0.320   0.325   0.330   0.340
  0.346   0.348   0.350   0.355   0.363   0.371   0.374   0.380
  0.387   0.391   0.406   0.410   0.411   0.414   0.421   0.425
  0.427   0.437   0.441   0.446   0.447   0.456   0.463   0.467
  0.476   0.481   0.491   0.494   0.498   0.514   0.517   0.529
  0.533   0.553   0.562   0.573   0.592   0.603   0.617   0.620
  0.641   0.652   0.667   0.686   0.714   0.723   0.751   0.802
  0.831   0.862   0.921   0.930   0.941   0.946   0.971   1.011
  1.026   1.059   1.078   1.125   1.125   1.153   1.161   1.172
  1.195   1.211   1.239   1.243   1.255   1.261   1.271   1.274
  1.293   1.296   1.305   1.307   1.313   1.329   1.344   1.369
  1.373   1.405   1.417   1.473   1.479   1.511   1.515   1.532
  1.541   1.555   1.566   1.579   1.582   1.587   1.605   1.621
  1.634   1.652   1.680   1.731   1.748   1.767   1.815   1.834
  1.857   1.909   1.928   1.943   1.989   2.010   2.031   2.046
  2.051   2.080   2.085   2.107   2.148   2.168   2.249   2.284
  2.338   2.355   2.693   2.726   2.818   2.885   2.924   2.932
  2.944   2.953   2.965   2.966   2.977   2.985   3.013   3.036
  3.052   3.064   3.068   3.126   3.142   3.168   3.196   3.239
  3.270   3.292   3.590   3.602   3.721   3.732   3.813   3.849
  3.852   3.854   3.860   3.864   3.875   3.879   3.880   3.892
  3.912   3.916   3.963   3.981   4.074   4.089   4.104   4.168
  4.222   4.288   4.294   4.298   4.352   4.478   4.619   5.018
  5.036   5.047   5.151   5.159   5.169   5.193   5.213   5.215
  5.225   5.250   5.286   5.307   5.441   5.459   6.399   6.414
  6.420   6.460   6.465   6.489   6.503   6.512   6.521   6.544
  6.556   6.575   6.876   6.887   6.919   8.280   8.313  17.495
 17.527  17.553  17.602  17.654  17.677  23.622  23.654  35.596
 50.035  50.038  50.083  50.088  66.911  66.921  66.925  66.933
 66.974 189.506 189.540
 
 Beta MOs
 -- Occupied --
-89.211 -89.209 -24.831 -24.831 -24.831 -24.830 -24.830 -19.219
-19.217 -19.215 -19.213 -14.408 -10.532 -10.440  -8.232  -8.230
 -6.181  -6.180  -6.180  -6.179  -6.178  -6.178  -1.417  -1.379
 -1.327  -1.326  -1.318  -1.210  -1.193  -1.088  -1.083  -0.989
 -0.830  -0.797  -0.753  -0.704  -0.680  -0.679  -0.662  -0.648
 -0.599  -0.582  -0.567  -0.556  -0.552  -0.540  -0.535  -0.525
 -0.523  -0.516  -0.514  -0.511  -0.498  -0.493  -0.458  -0.413
 -0.403  -0.389  -0.383  -0.382  -0.370  -0.361  -0.337  -0.331
 -- Virtual --
  0.001   0.105   0.111   0.118   0.128   0.140   0.142   0.146
  0.150   0.155   0.156   0.159   0.172   0.178   0.183   0.186
  0.187   0.200   0.206   0.211   0.221   0.238   0.240   0.259
  0.265   0.287   0.295   0.305   0.310   0.322   0.325   0.333
  0.342   0.348   0.350   0.353   0.357   0.365   0.374   0.375
  0.381   0.390   0.391   0.407   0.411   0.412   0.414   0.422
  0.425   0.427   0.437   0.442   0.446   0.447   0.457   0.464
  0.469   0.477   0.481   0.492   0.495   0.498   0.515   0.518
  0.530   0.533   0.554   0.562   0.574   0.593   0.603   0.617
  0.621   0.641   0.652   0.669   0.689   0.721   0.727   0.756
  0.811   0.833   0.871   0.922   0.932   0.941   0.948   0.975
  1.013   1.035   1.059   1.079   1.126   1.128   1.154   1.162
  1.172   1.196   1.212   1.241   1.245   1.257   1.262   1.272
  1.275   1.296   1.298   1.308   1.310   1.313   1.333   1.347
  1.374   1.384   1.406   1.424   1.476   1.483   1.512   1.517
  1.534   1.542   1.559   1.573   1.580   1.587   1.592   1.607
  1.624   1.642   1.658   1.700   1.737   1.752   1.771   1.820
  1.851   1.859   1.911   1.938   1.948   1.990   2.015   2.034
  2.052   2.054   2.083   2.086   2.112   2.152   2.172   2.250
  2.285   2.339   2.356   2.693   2.730   2.866   2.885   2.929
  2.933   2.946   2.956   2.967   2.969   2.979   2.986   3.017
  3.039   3.053   3.066   3.073   3.133   3.145   3.178   3.197
  3.243   3.270   3.297   3.590   3.604   3.722   3.733   3.813
  3.850   3.854   3.859   3.865   3.869   3.879   3.880   3.883
  3.899   3.914   3.919   3.963   3.981   4.080   4.094   4.115
  4.168   4.222   4.288   4.297   4.300   4.353   4.478   4.627
  5.022   5.036   5.050   5.153   5.159   5.171   5.193   5.214
  5.218   5.225   5.250   5.289   5.307   5.442   5.460   6.402
  6.419   6.430   6.464   6.466   6.489   6.503   6.514   6.521
  6.545   6.558   6.577   6.876   6.887   6.925   8.280   8.313
 17.496  17.527  17.554  17.603  17.654  17.677  23.622  23.677
 35.596  50.036  50.037  50.083  50.089  66.912  66.922  66.927
 66.933  66.974 189.506 189.541
 --------------------------------------------------------------
 
          Ground-State Mulliken Net Atomic Charges

     Atom                 Charge (a.u.)    Spin (a.u.)
  --------------------------------------------------------
      1 S                     0.650296       0.022743
      2 C                    -0.275775       0.804286
      3 N                    -0.715382       0.005991
      4 O                    -0.150838       0.063306
      5 O                    -0.212593       0.007969
      6 F                     0.003185       0.047311
      7 F                    -0.059679       0.045629
      8 S                     0.325355      -0.003809
      9 C                    -0.043582       0.006358
     10 O                    -0.128635      -0.001077
     11 O                    -0.192496       0.000526
     12 F                    -0.056638       0.000319
     13 F                    -0.084775      -0.000072
     14 F                    -0.058442       0.000521
  --------------------------------------------------------
  Sum of atomic charges =    -1.000000
  Sum of spin   charges =     1.000000

 -----------------------------------------------------------------
                    Cartesian Multipole Moments
 -----------------------------------------------------------------
    Charge (ESU x 10^10)
                -4.8032
    Dipole Moment (Debye)
         X      -0.2654      Y       3.0969      Z       4.5911
       Tot       5.5443
    Quadrupole Moments (Debye-Ang)
        XX    -114.3795     XY      -4.1687     YY     -99.4820
        XZ      -4.4943     YZ      -1.8245     ZZ    -110.5213
    Octopole Moments (Debye-Ang^2)
       XXX     114.2472    XXY     -30.0990    XYY      45.2133
       YYY     -92.0316    XXZ      85.0094    XYZ       8.4403
       YYZ      70.0245    XZZ      56.5255    YZZ     -23.5886
       ZZZ     243.6323
    Hexadecapole Moments (Debye-Ang^3)
      XXXX   -1788.3304   XXXY      75.5817   XXYY    -421.0145
      XYYY      94.3280   YYYY    -756.5092   XXXZ    -448.9208
      XXYZ      -2.1009   XYYZ    -163.4237   YYYZ      13.4868
      XXZZ    -539.0587   XYZZ       9.0826   YYZZ    -370.7407
      XZZZ    -501.1073   YZZZ     -23.7334   ZZZZ   -1441.1209
 -----------------------------------------------------------------
 Calculating analytic gradient of the SCF energy
 Gradient of SCF Energy
            1           2           3           4           5           6
    1   0.0004573  -0.0041907  -0.0045796   0.0095060  -0.0229278   0.0075517
    2   0.0089179  -0.0097980  -0.0205489   0.0104351  -0.0097800   0.0039006
    3   0.0038054   0.0087728   0.0115509  -0.0169921   0.0096804  -0.0068007
            7           8           9          10          11          12
    1  -0.0039166   0.0105909  -0.0081117  -0.0037552   0.0133684  -0.0035691
    2   0.0025995   0.0128519   0.0024588   0.0008433   0.0017924  -0.0043024
    3  -0.0048240  -0.0046720  -0.0039315   0.0147757  -0.0179260   0.0085508
           13          14
    1   0.0074561   0.0021202
    2   0.0024694  -0.0018396
    3  -0.0008959  -0.0010939
 Max gradient component =       2.293E-02
 RMS gradient           =       9.164E-03
 Computing fast CPCM-SWIG gradient
 Updating gradient with PCM contributions...
 -- total gradient after adding PCM contribution --
---------------------------------------------------
  Atom         X              Y              Z     
---------------------------------------------------
   1       0.002315       0.004287      -0.001822
   2      -0.002723       0.000755      -0.002823
   3      -0.000430       0.000917      -0.004136
   4       0.000332      -0.006720       0.004609
   5       0.000889      -0.000234      -0.000137
   6      -0.003232       0.000762      -0.001669
   7       0.004050       0.002024       0.004882
   8       0.002135       0.003258       0.006455
   9       0.001977      -0.002834      -0.001653
  10      -0.002938      -0.006921      -0.011740
  11      -0.000253      -0.001376       0.003605
  12       0.000204       0.001152      -0.003902
  13      -0.006166      -0.000301      -0.001786
  14       0.003841       0.005232       0.010118
---------------------------------------------------
 Number of fixed atoms: 0
 Gradient time:  CPU 150.68 s  wall 14.23 s
 Geometry Optimization Parameters
   NAtoms,    NIC,     NZ,  NCons,   NDum,   NFix, NCnnct, MaxDiis
       14      84       0       0       0       0       0       0


** GEOMETRY OPTIMIZATION IN DELOCALIZED INTERNAL COORDINATES **
   Searching for a Minimum

   Optimization Cycle:   1

                       Coordinates (Angstroms)
     ATOM                X               Y               Z
      1  S         1.1727440742   -0.0357153007   -0.2082361994
      2  C         0.6717261235    1.3714384481    0.8778158290
      3  N         0.1918588951    0.0484677162   -1.4760802246
      4  O         1.0420711044   -1.2500426616    0.5950541982
      5  O         2.4978242037    0.3417473216   -0.6603358729
      6  F        -0.5327102037    1.2664499563    1.4063749187
      7  F         1.5654944785    1.6555947993    1.8236270324
      8  S        -1.3383450195   -0.4072105009   -1.5211459498
      9  C        -2.1754846503    1.2649991007   -1.7329921524
     10  O        -1.6219670274   -1.0975866895   -2.7776883124
     11  O        -1.8924433407   -0.9474578508   -0.2890597091
     12  F        -1.7764402596    1.8596758148   -2.8561471462
     13  F        -3.5035603664    1.1035525720   -1.7989533106
     14  F        -1.8958782388    2.0715841629   -0.6963423133
   Point Group: c1    Number of degrees of freedom:    36


   Energy is  -1727.349517054


 Attempting to Generate Delocalized Internal Coordinates

 36 Hessian modes will be used to form the next step
  Hessian Eigenvalues:
     0.002000    0.002000    0.018108    0.019159    0.039249    0.084068
     0.086266    0.099081    0.104740    0.108136    0.122422    0.141594
     0.157637    0.198342    0.205914    0.208698    0.227525    0.250000
     0.250000    0.250000    0.250000    0.250000    0.250000    0.250000
     0.250000    0.502260    0.517537    0.565582    0.573221    0.590244
     0.590444    0.620576    0.908460    0.909857    0.937554    0.959072

 Minimum Search - Taking Simple RFO Step
 Searching for Lamda that Minimizes Along All modes
 Value Taken    Lamda =  -0.00598712
 Calculated Step too Large.  Step scaled by  0.627573
 Step Taken.  Stepsize is  0.300000

                             Maximum     Tolerance    Cnvgd?
         Gradient           0.016468      0.000300      NO
         Displacement       0.134595      0.001200      NO
         Energy change     *********      0.000001      NO


 New Cartesian Coordinates Obtained by Inverse Iteration

 Displacement from previous Coordinates is:  1.073979
 ----------------------------------------------------------------
             Standard Nuclear Orientation (Angstroms)
    I     Atom           X                Y                Z
 ----------------------------------------------------------------
    1      S       1.1816149297    -0.0098285763    -0.2017468210
    2      C       0.7052711150     1.3053749279     0.9965208416
    3      N       0.1632546377     0.1083210062    -1.4340542101
    4      O       1.1143353521    -1.2708211800     0.5288154334
    5      O       2.4771645425     0.4296776750    -0.6816574543
    6      F      -0.4147278034     1.0758733648     1.6529437388
    7      F       1.6749612088     1.5934362950     1.8573621262
    8      S      -1.3644172083    -0.3525759748    -1.4760859370
    9      C      -2.2256951646     1.2755350133    -1.8418884771
   10      O      -1.6097911625    -1.1237157374    -2.6870167705
   11      O      -1.9455430421    -0.8209312542    -0.2286425540
   12      F      -1.8088074683     1.7858050680    -2.9970638077
   13      F      -3.5442004624     1.0766443961    -1.9233451429
   14      F      -1.9985297011     2.1727018649    -0.8782501778
 ----------------------------------------------------------------
 Nuclear Repulsion Energy =  1403.4681312853 hartrees
 There are       65 alpha and       64 beta electrons
 Discretize the solute cavity surface with Lebedev spheres
	Using 194 Lebedev grid points for each H atom
	Using 194 Lebedev grid points for other atoms
	Atomic van der Waals radii will be scaled by 1.10
 Remove points where switching function is < 1.0e-08
 Keep 1268 surface tesserae and discard 1448 interior tesserae
 Molecular Surface Area = 222.068 Angst**2
 Applying Cartesian multipole field
    Component          Value
    ---------          -----
     (2,0,0)        1.00000E-11
     (0,2,0)        2.00000E-11
     (0,0,2)       -3.00000E-11
 Nucleus-field energy     =    -0.0000000078 hartrees
 Requested basis set is 6-311++G(d)
 There are 98 shells and 324 basis functions
 A cutoff of  1.0D-12 yielded   3778 shell pairs
 There are     43491 function pairs (     47009 Cartesian)
 Smallest overlap matrix eigenvalue = 5.24E-05
 Guess MOs from SCF MO coefficient file
 Reading MOs from coefficient file
 Reading MOs from coefficient file

 -----------------------------------------------------------------------
  General SCF calculation program by
  Eric Jon Sundstrom, Paul Horn, Yuezhi Mao, Dmitri Zuev, Alec White,
  David Stuck, Shaama M.S., Shane Yost, Joonho Lee, David Small,
  Daniel Levine, Susi Lehtola, Hugh Burton, Evgeny Epifanovsky
 -----------------------------------------------------------------------
 Exchange:     0.2220 Hartree-Fock + 1.0000 wB97X-D + LR-HF
 Correlation:  1.0000 wB97X-D
 Using SG-3 standard quadrature grid
 Dispersion:   Grimme D
 using 32 threads for integral computing
 -------------------------------------------------------
 OpenMP Integral computing Module                
 Release: version 1.0, May 2013, Q-Chem Inc. Pittsburgh 
 -------------------------------------------------------
 using 32 threads for integral computing
 -------------------------------------------------------
 OpenMP Integral computing Module                
 Release: version 1.0, May 2013, Q-Chem Inc. Pittsburgh 
 -------------------------------------------------------
 -------------------------------------------------------
 OpenMP BLAS3 based DFT computing Module                
 Release: version 1.0, May 2013, Q-Chem Inc. Pittsburgh 
 -------------------------------------------------------
 A unrestricted SCF calculation will be
 performed using Roothaan-Hall, GDM
 SCF converges when RMS gradient is below 1.0e-08
 ---------------------------------------
  Cycle       Energy         DIIS error
 ---------------------------------------
    1   -1715.7204708110      7.83e-04  Roothaan Step
 ---------------------------------------
  Cycle       Energy        RMS Gradient
 ---------------------------------------
    1   -1727.3466841933      1.02e-02   Normal BFGS step
    2   -1727.3496228344      4.86e-03   Normal BFGS step
    3   -1727.3501337001      1.97e-03   Normal BFGS step
    4   -1727.3503683596      7.70e-04   Normal BFGS step
    5   -1727.3503797115      7.12e-04   Normal BFGS step
    6   -1727.3503923640      3.38e-04   Normal BFGS step
    7   -1727.3503930139      9.87e-05   Normal BFGS step
    8   -1727.3503933746      6.47e-05   Normal BFGS step
    9   -1727.3503933951      2.09e-05   Normal BFGS step
   10   -1727.3503934130      1.06e-05   Normal BFGS step
   11   -1727.3503934141      5.01e-06   Normal BFGS step
   12   -1727.3503934149      1.70e-06   Normal BFGS step
   13   -1727.3503934150      8.44e-07   Normal BFGS step
   14   -1727.3503934150      2.79e-07   Normal BFGS step
   15   -1727.3503934150      1.30e-07   Normal BFGS step
   16   -1727.3503934150      4.38e-08   Normal BFGS step
   17   -1727.3503934150      3.33e-08   Normal BFGS step
   18   -1727.3503934150      8.89e-09  Convergence criterion met
 ---------------------------------------
 SCF time:   CPU 1480.56s  wall 92.00s 
<S^2> =          0.753247692

************** Final PCM Free Energy Summary **************
 G_electrostatic  =      -0.05108873 hartree =     -32.05865919 kcal/mol
 G_cavitation     =       0.00000000 hartree =       0.00000000 kcal/mol
 G_dispersion     =       0.00000000 hartree =       0.00000000 kcal/mol
 G_repulsion      =       0.00000000 hartree =       0.00000000 kcal/mol
 --------------------------------------------------
 Non-electrostatic Free Energy =       0.00000000 hartree =       0.00000000 kcal/mol
 Total                         =      -0.05108873 hartree =     -32.05865919 kcal/mol
 --------------------------------------------------
 SCF Energy (H0 + V/2)                       =   -1727.35039341 
 Solute Internal Energy (H0)                 =   -1727.29930469 
 Total Free Energy (H0 + V/2 + non-elec)     =   -1727.35039341 hartree
                                             = -1083928.73160347 kcal/mol
***********************************************************

 SCF   energy in the final basis set =    -1727.3503934150
 Total energy in the final basis set =    -1727.3503934150
 
 --------------------------------------------------------------
 
                    Orbital Energies (a.u.)
 --------------------------------------------------------------
 
 Alpha MOs
 -- Occupied --
-89.210 -89.209 -24.834 -24.833 -24.832 -24.832 -24.831 -19.219
-19.217 -19.214 -19.211 -14.407 -10.532 -10.454  -8.232  -8.231
 -6.180  -6.180  -6.180  -6.179  -6.179  -6.178  -1.420  -1.390
 -1.329  -1.328  -1.327  -1.212  -1.196  -1.088  -1.086  -0.989
 -0.835  -0.810  -0.761  -0.708  -0.683  -0.682  -0.671  -0.658
 -0.617  -0.599  -0.571  -0.557  -0.553  -0.542  -0.540  -0.535
 -0.526  -0.519  -0.515  -0.513  -0.506  -0.493  -0.458  -0.415
 -0.409  -0.404  -0.388  -0.382  -0.374  -0.364  -0.336  -0.333
 -0.299
 -- Virtual --
  0.103   0.110   0.118   0.127   0.138   0.141   0.142   0.146
  0.152   0.155   0.159   0.172   0.178   0.182   0.184   0.188
  0.199   0.203   0.206   0.213   0.233   0.238   0.257   0.263
  0.289   0.290   0.304   0.309   0.322   0.327   0.331   0.340
  0.344   0.347   0.349   0.353   0.361   0.371   0.373   0.374
  0.390   0.394   0.400   0.410   0.412   0.413   0.417   0.421
  0.424   0.431   0.440   0.445   0.452   0.459   0.461   0.467
  0.477   0.478   0.490   0.495   0.498   0.510   0.516   0.527
  0.534   0.547   0.559   0.573   0.579   0.599   0.616   0.619
  0.633   0.657   0.669   0.683   0.713   0.722   0.752   0.790
  0.818   0.858   0.916   0.928   0.932   0.950   0.968   1.011
  1.022   1.053   1.082   1.126   1.126   1.154   1.157   1.177
  1.195   1.211   1.238   1.246   1.254   1.261   1.273   1.276
  1.294   1.299   1.308   1.310   1.319   1.328   1.347   1.358
  1.365   1.404   1.418   1.470   1.482   1.506   1.510   1.521
  1.537   1.542   1.561   1.579   1.581   1.592   1.597   1.609
  1.625   1.657   1.672   1.729   1.749   1.770   1.817   1.836
  1.856   1.913   1.930   1.934   1.990   2.006   2.023   2.035
  2.050   2.072   2.081   2.102   2.146   2.170   2.238   2.280
  2.328   2.349   2.691   2.734   2.812   2.886   2.925   2.934
  2.942   2.954   2.964   2.967   2.977   2.983   3.011   3.037
  3.049   3.062   3.069   3.126   3.145   3.173   3.203   3.247
  3.272   3.293   3.595   3.602   3.726   3.733   3.811   3.848
  3.849   3.852   3.858   3.861   3.870   3.878   3.879   3.887
  3.909   3.912   3.964   3.981   4.075   4.090   4.108   4.163
  4.229   4.296   4.297   4.301   4.362   4.484   4.616   5.019
  5.040   5.044   5.154   5.161   5.172   5.195   5.207   5.215
  5.221   5.256   5.286   5.304   5.446   5.464   6.410   6.413
  6.419   6.453   6.466   6.481   6.490   6.507   6.518   6.530
  6.569   6.572   6.882   6.885   6.915   8.281   8.319  17.499
 17.532  17.557  17.601  17.652  17.681  23.625  23.651  35.593
 50.037  50.039  50.083  50.086  66.907  66.916  66.928  66.928
 66.971 189.507 189.547
 
 Beta MOs
 -- Occupied --
-89.210 -89.209 -24.832 -24.832 -24.831 -24.831 -24.830 -19.219
-19.215 -19.214 -19.211 -14.407 -10.532 -10.441  -8.232  -8.230
 -6.180  -6.180  -6.180  -6.179  -6.178  -6.178  -1.420  -1.381
 -1.328  -1.328  -1.319  -1.211  -1.195  -1.088  -1.083  -0.988
 -0.831  -0.797  -0.755  -0.704  -0.682  -0.682  -0.665  -0.649
 -0.598  -0.584  -0.568  -0.557  -0.553  -0.539  -0.536  -0.525
 -0.523  -0.516  -0.514  -0.511  -0.503  -0.493  -0.457  -0.412
 -0.405  -0.391  -0.382  -0.381  -0.372  -0.362  -0.335  -0.331
 -- Virtual --
 -0.001   0.105   0.111   0.120   0.128   0.139   0.142   0.145
  0.148   0.155   0.156   0.160   0.173   0.180   0.183   0.185
  0.188   0.199   0.207   0.211   0.222   0.239   0.240   0.263
  0.264   0.290   0.295   0.309   0.310   0.323   0.328   0.333
  0.343   0.346   0.348   0.350   0.356   0.364   0.372   0.374
  0.376   0.392   0.394   0.400   0.411   0.413   0.413   0.417
  0.421   0.424   0.431   0.441   0.445   0.452   0.460   0.463
  0.467   0.477   0.479   0.492   0.496   0.499   0.511   0.517
  0.527   0.534   0.547   0.559   0.573   0.580   0.600   0.615
  0.620   0.634   0.657   0.671   0.685   0.721   0.728   0.756
  0.798   0.821   0.867   0.918   0.931   0.933   0.952   0.972
  1.015   1.030   1.054   1.082   1.127   1.129   1.154   1.158
  1.177   1.197   1.212   1.241   1.248   1.256   1.261   1.274
  1.276   1.295   1.300   1.312   1.314   1.320   1.332   1.350
  1.366   1.373   1.407   1.423   1.474   1.484   1.507   1.512
  1.522   1.538   1.546   1.564   1.579   1.584   1.598   1.605
  1.617   1.626   1.663   1.703   1.731   1.754   1.773   1.819
  1.856   1.857   1.916   1.934   1.944   1.991   2.010   2.029
  2.037   2.055   2.073   2.082   2.107   2.150   2.176   2.240
  2.280   2.329   2.351   2.691   2.737   2.861   2.886   2.930
  2.936   2.943   2.958   2.967   2.969   2.979   2.983   3.015
  3.039   3.051   3.063   3.074   3.133   3.147   3.182   3.203
  3.251   3.273   3.297   3.595   3.605   3.728   3.734   3.811
  3.848   3.852   3.856   3.860   3.867   3.877   3.879   3.880
  3.894   3.910   3.916   3.964   3.981   4.080   4.096   4.119
  4.163   4.229   4.296   4.301   4.301   4.362   4.484   4.624
  5.023   5.040   5.047   5.156   5.161   5.174   5.196   5.208
  5.218   5.221   5.256   5.289   5.304   5.447   5.464   6.410
  6.420   6.430   6.454   6.470   6.481   6.492   6.507   6.518
  6.531   6.570   6.575   6.882   6.886   6.920   8.281   8.319
 17.499  17.532  17.557  17.601  17.652  17.681  23.625  23.675
 35.593  50.038  50.039  50.084  50.086  66.909  66.917  66.929
 66.929  66.971 189.507 189.547
 --------------------------------------------------------------
 
          Ground-State Mulliken Net Atomic Charges

     Atom                 Charge (a.u.)    Spin (a.u.)
  --------------------------------------------------------
      1 S                     0.607467       0.010794
      2 C                    -0.235137       0.809629
      3 N                    -0.696365       0.008726
      4 O                    -0.148118       0.063221
      5 O                    -0.232594       0.008281
      6 F                    -0.011192       0.050178
      7 F                    -0.059981       0.046619
      8 S                     0.303336      -0.002336
      9 C                     0.000640       0.006361
     10 O                    -0.146319      -0.001295
     11 O                    -0.180224       0.000408
     12 F                    -0.055894       0.000200
     13 F                    -0.083043      -0.000063
     14 F                    -0.062574      -0.000724
  --------------------------------------------------------
  Sum of atomic charges =    -1.000000
  Sum of spin   charges =     1.000000

 -----------------------------------------------------------------
                    Cartesian Multipole Moments
 -----------------------------------------------------------------
    Charge (ESU x 10^10)
                -4.8032
    Dipole Moment (Debye)
         X      -0.3089      Y       2.9926      Z       4.5944
       Tot       5.4918
    Quadrupole Moments (Debye-Ang)
        XX    -114.5926     XY      -4.3291     YY     -99.5332
        XZ      -4.1025     YZ      -1.7090     ZZ    -109.8497
    Octopole Moments (Debye-Ang^2)
       XXX     115.4163    XXY     -31.7352    XYY      44.0665
       YYY     -94.2808    XXZ      83.7158    XYZ       8.6568
       YYZ      70.5985    XZZ      56.1290    YZZ     -24.9117
       ZZZ     238.8263
    Hexadecapole Moments (Debye-Ang^3)
      XXXX   -1843.2871   XXXY      76.5190   XXYY    -426.5970
      XYYY      99.7620   YYYY    -732.4861   XXXZ    -474.5362
      XXYZ       4.8302   XYYZ    -171.6288   YYYZ      31.1892
      XXZZ    -556.4893   XYZZ      10.2073   YYZZ    -375.1444
      XZZZ    -522.7233   YZZZ      -2.3049   ZZZZ   -1489.2365
 -----------------------------------------------------------------
 Calculating analytic gradient of the SCF energy
 Gradient of SCF Energy
            1           2           3           4           5           6
    1  -0.0020833  -0.0005452  -0.0024933   0.0087685  -0.0228559   0.0108841
    2   0.0066577  -0.0097595  -0.0233642   0.0157262  -0.0122410   0.0046284
    3   0.0077032   0.0090115   0.0094588  -0.0179882   0.0107145  -0.0054202
            7           8           9          10          11          12
    1  -0.0074282   0.0085504  -0.0097782  -0.0013972   0.0136550  -0.0042199
    2   0.0007638   0.0108104   0.0030674   0.0068655   0.0021110  -0.0037341
    3  -0.0058283  -0.0085191  -0.0023951   0.0201894  -0.0195365   0.0112391
           13          14
    1   0.0102354  -0.0012923
    2   0.0039135  -0.0054451
    3   0.0002899  -0.0089190
 Max gradient component =       2.336E-02
 RMS gradient           =       1.025E-02
 Computing fast CPCM-SWIG gradient
 Updating gradient with PCM contributions...
 -- total gradient after adding PCM contribution --
---------------------------------------------------
  Atom         X              Y              Z     
---------------------------------------------------
   1       0.000729       0.003592       0.003429
   2      -0.001634       0.001220      -0.003397
   3       0.001592      -0.002496      -0.005972
   4       0.001830      -0.003704       0.002006
   5      -0.000104      -0.000515      -0.000301
   6       0.001525      -0.000618       0.001168
   7       0.001487       0.000145       0.003181
   8      -0.001377       0.005697       0.006553
   9      -0.000023      -0.003185      -0.001705
  10       0.000063      -0.002984      -0.005500
  11      -0.000635      -0.002126       0.000784
  12      -0.000068       0.000875      -0.001349
  13      -0.003311       0.000917      -0.000611
  14      -0.000073       0.003181       0.001714
---------------------------------------------------
 Number of fixed atoms: 0
 Gradient time:  CPU 146.33 s  wall 13.14 s
 Geometry Optimization Parameters
   NAtoms,    NIC,     NZ,  NCons,   NDum,   NFix, NCnnct, MaxDiis
       14      84       0       0       0       0       0       0

 Cartesian Hessian Update
 Hessian Updated using BFGS Update


** GEOMETRY OPTIMIZATION IN DELOCALIZED INTERNAL COORDINATES **
   Searching for a Minimum

   Optimization Cycle:   2

                       Coordinates (Angstroms)
     ATOM                X               Y               Z
      1  S         1.1816149297   -0.0098285763   -0.2017468210
      2  C         0.7052711150    1.3053749279    0.9965208416
      3  N         0.1632546377    0.1083210062   -1.4340542101
      4  O         1.1143353521   -1.2708211800    0.5288154334
      5  O         2.4771645425    0.4296776750   -0.6816574543
      6  F        -0.4147278034    1.0758733648    1.6529437388
      7  F         1.6749612088    1.5934362950    1.8573621262
      8  S        -1.3644172083   -0.3525759748   -1.4760859370
      9  C        -2.2256951646    1.2755350133   -1.8418884771
     10  O        -1.6097911625   -1.1237157374   -2.6870167705
     11  O        -1.9455430421   -0.8209312542   -0.2286425540
     12  F        -1.8088074683    1.7858050680   -2.9970638077
     13  F        -3.5442004624    1.0766443961   -1.9233451429
     14  F        -1.9985297011    2.1727018649   -0.8782501778
   Point Group: c1    Number of degrees of freedom:    36


   Energy is  -1727.350393415

 Hessian Updated using BFGS Update

 30 Hessian modes will be used to form the next step
  Hessian Eigenvalues:
     0.002000    0.002443    0.018135    0.024860    0.042669    0.084066
     0.086116    0.101447    0.105982    0.117222    0.124014    0.143404
     0.159257    0.199369    0.203123    0.209010    0.226346    0.246081
     0.344966    0.499250    0.516165    0.556536    0.572177    0.586522
     0.590361    0.622080    0.874761    0.908949    0.936799    0.959170

 Minimum Search - Taking Simple RFO Step
 Searching for Lamda that Minimizes Along All modes
 Value Taken    Lamda =  -0.00095986
 Step Taken.  Stepsize is  0.092119

                             Maximum     Tolerance    Cnvgd?
         Gradient           0.012001      0.000300      NO
         Displacement       0.035303      0.001200      NO
         Energy change     -0.000876      0.000001      NO


 New Cartesian Coordinates Obtained by Inverse Iteration

 Displacement from previous Coordinates is:  0.202499
 ----------------------------------------------------------------
             Standard Nuclear Orientation (Angstroms)
    I     Atom           X                Y                Z
 ----------------------------------------------------------------
    1      S       1.1757320889    -0.0095184528    -0.2140655907
    2      C       0.6829137322     1.2997300806     0.9793117213
    3      N       0.1632398976     0.1172943655    -1.4414526593
    4      O       1.0839957692    -1.2688336636     0.5109501801
    5      O       2.4768268291     0.4311305201    -0.6776122420
    6      F      -0.4438442310     1.0758027911     1.6261121020
    7      F       1.6486856161     1.6123267419     1.8305829930
    8      S      -1.3559779575    -0.3580222035    -1.4754326956
    9      C      -2.2033360400     1.2709293763    -1.8248385218
   10      O      -1.6204250656    -1.1255076299    -2.6792453093
   11      O      -1.9298898570    -0.8110135964    -0.2203263036
   12      F      -1.7843233960     1.7890342585    -2.9736987653
   13      F      -3.5184753508     1.0711393810    -1.9010013476
   14      F      -1.9702322622     2.1510049195    -0.8533927737
 ----------------------------------------------------------------
 Nuclear Repulsion Energy =  1410.4487409871 hartrees
 There are       65 alpha and       64 beta electrons
 Discretize the solute cavity surface with Lebedev spheres
	Using 194 Lebedev grid points for each H atom
	Using 194 Lebedev grid points for other atoms
	Atomic van der Waals radii will be scaled by 1.10
 Remove points where switching function is < 1.0e-08
 Keep 1256 surface tesserae and discard 1460 interior tesserae
 Molecular Surface Area = 220.302 Angst**2
 Applying Cartesian multipole field
    Component          Value
    ---------          -----
     (2,0,0)        1.00000E-11
     (0,2,0)        2.00000E-11
     (0,0,2)       -3.00000E-11
 Nucleus-field energy     =    -0.0000000075 hartrees
 Requested basis set is 6-311++G(d)
 There are 98 shells and 324 basis functions
 A cutoff of  1.0D-12 yielded   3786 shell pairs
 There are     43600 function pairs (     47141 Cartesian)
 Smallest overlap matrix eigenvalue = 4.96E-05
 Guess MOs from SCF MO coefficient file
 Reading MOs from coefficient file
 Reading MOs from coefficient file

 -----------------------------------------------------------------------
  General SCF calculation program by
  Eric Jon Sundstrom, Paul Horn, Yuezhi Mao, Dmitri Zuev, Alec White,
  David Stuck, Shaama M.S., Shane Yost, Joonho Lee, David Small,
  Daniel Levine, Susi Lehtola, Hugh Burton, Evgeny Epifanovsky
 -----------------------------------------------------------------------
 Exchange:     0.2220 Hartree-Fock + 1.0000 wB97X-D + LR-HF
 Correlation:  1.0000 wB97X-D
 Using SG-3 standard quadrature grid
 Dispersion:   Grimme D
 using 32 threads for integral computing
 -------------------------------------------------------
 OpenMP Integral computing Module                
 Release: version 1.0, May 2013, Q-Chem Inc. Pittsburgh 
 -------------------------------------------------------
 using 32 threads for integral computing
 -------------------------------------------------------
 OpenMP Integral computing Module                
 Release: version 1.0, May 2013, Q-Chem Inc. Pittsburgh 
 -------------------------------------------------------
 -------------------------------------------------------
 OpenMP BLAS3 based DFT computing Module                
 Release: version 1.0, May 2013, Q-Chem Inc. Pittsburgh 
 -------------------------------------------------------
 A unrestricted SCF calculation will be
 performed using Roothaan-Hall, GDM
 SCF converges when RMS gradient is below 1.0e-08
 ---------------------------------------
  Cycle       Energy         DIIS error
 ---------------------------------------
    1   -1715.7590813322      1.63e-04  Roothaan Step
 ---------------------------------------
  Cycle       Energy        RMS Gradient
 ---------------------------------------
    1   -1727.3499162649      6.11e-03   Normal BFGS step
    2   -1727.3504423339      3.25e-03   Normal BFGS step
    3   -1727.3508420478      8.62e-04   Normal BFGS step
    4   -1727.3508704882      6.64e-04   Normal BFGS step
    5   -1727.3508865717      2.51e-04   Normal BFGS step
    6   -1727.3508877365      8.08e-05   Normal BFGS step
    7   -1727.3508882419      8.97e-05   Normal BFGS step
    8   -1727.3508882909      4.42e-05   Normal BFGS step
    9   -1727.3508883067      1.24e-05   Normal BFGS step
   10   -1727.3508883091      5.54e-06   Normal BFGS step
   11   -1727.3508883100      2.31e-06   Normal BFGS step
   12   -1727.3508883101      1.27e-06   Normal BFGS step
   13   -1727.3508883102      4.59e-07   Normal BFGS step
   14   -1727.3508883102      2.14e-07   Normal BFGS step
   15   -1727.3508883102      4.84e-08   Normal BFGS step
   16   -1727.3508883102      2.41e-08   Normal BFGS step
   17   -1727.3508883102      9.42e-09  Convergence criterion met
 ---------------------------------------
 SCF time:   CPU 1409.48s  wall 87.00s 
<S^2> =          0.753252681

************** Final PCM Free Energy Summary **************
 G_electrostatic  =      -0.05105876 hartree =     -32.03985546 kcal/mol
 G_cavitation     =       0.00000000 hartree =       0.00000000 kcal/mol
 G_dispersion     =       0.00000000 hartree =       0.00000000 kcal/mol
 G_repulsion      =       0.00000000 hartree =       0.00000000 kcal/mol
 --------------------------------------------------
 Non-electrostatic Free Energy =       0.00000000 hartree =       0.00000000 kcal/mol
 Total                         =      -0.05105876 hartree =     -32.03985546 kcal/mol
 --------------------------------------------------
 SCF Energy (H0 + V/2)                       =   -1727.35088831 
 Solute Internal Energy (H0)                 =   -1727.29982955 
 Total Free Energy (H0 + V/2 + non-elec)     =   -1727.35088831 hartree
                                             = -1083929.04215489 kcal/mol
***********************************************************

 SCF   energy in the final basis set =    -1727.3508883102
 Total energy in the final basis set =    -1727.3508883102
 
 --------------------------------------------------------------
 
                    Orbital Energies (a.u.)
 --------------------------------------------------------------
 
 Alpha MOs
 -- Occupied --
-89.209 -89.209 -24.833 -24.833 -24.831 -24.831 -24.830 -19.218
-19.216 -19.214 -19.212 -14.406 -10.530 -10.451  -8.230  -8.230
 -6.179  -6.178  -6.178  -6.178  -6.178  -6.178  -1.421  -1.389
 -1.329  -1.329  -1.327  -1.213  -1.196  -1.089  -1.086  -0.991
 -0.835  -0.809  -0.760  -0.708  -0.683  -0.682  -0.670  -0.658
 -0.617  -0.599  -0.570  -0.557  -0.553  -0.541  -0.540  -0.535
 -0.526  -0.519  -0.515  -0.513  -0.506  -0.493  -0.459  -0.415
 -0.408  -0.404  -0.388  -0.383  -0.374  -0.363  -0.336  -0.333
 -0.296
 -- Virtual --
  0.103   0.111   0.119   0.128   0.141   0.142   0.145   0.148
  0.153   0.156   0.160   0.172   0.180   0.183   0.185   0.190
  0.199   0.204   0.209   0.214   0.233   0.240   0.258   0.264
  0.291   0.293   0.307   0.311   0.323   0.328   0.334   0.342
  0.347   0.349   0.350   0.355   0.363   0.372   0.374   0.375
  0.391   0.394   0.402   0.411   0.413   0.413   0.418   0.422
  0.424   0.432   0.441   0.446   0.453   0.459   0.462   0.468
  0.478   0.479   0.492   0.494   0.499   0.511   0.518   0.527
  0.535   0.547   0.560   0.574   0.584   0.601   0.619   0.621
  0.634   0.658   0.672   0.685   0.715   0.724   0.754   0.794
  0.821   0.862   0.923   0.931   0.936   0.954   0.973   1.010
  1.024   1.057   1.082   1.124   1.126   1.157   1.161   1.180
  1.196   1.214   1.238   1.249   1.257   1.263   1.275   1.278
  1.295   1.299   1.310   1.312   1.321   1.331   1.350   1.365
  1.369   1.406   1.420   1.475   1.487   1.506   1.510   1.521
  1.538   1.544   1.563   1.579   1.581   1.592   1.598   1.610
  1.627   1.661   1.676   1.731   1.754   1.778   1.818   1.839
  1.857   1.916   1.932   1.937   1.993   2.010   2.029   2.044
  2.051   2.078   2.082   2.104   2.155   2.171   2.246   2.285
  2.339   2.353   2.697   2.739   2.814   2.891   2.927   2.936
  2.943   2.955   2.965   2.967   2.979   2.986   3.014   3.040
  3.059   3.068   3.074   3.131   3.152   3.184   3.208   3.246
  3.277   3.296   3.600   3.607   3.728   3.737   3.811   3.848
  3.850   3.852   3.858   3.862   3.873   3.879   3.880   3.888
  3.912   3.916   3.969   3.986   4.081   4.094   4.107   4.168
  4.233   4.300   4.306   4.308   4.368   4.490   4.619   5.023
  5.044   5.050   5.155   5.161   5.173   5.198   5.211   5.214
  5.226   5.256   5.290   5.310   5.449   5.469   6.412   6.416
  6.420   6.456   6.468   6.484   6.491   6.509   6.521   6.534
  6.572   6.573   6.891   6.893   6.925   8.286   8.326  17.499
 17.532  17.557  17.611  17.659  17.689  23.634  23.657  35.600
 50.038  50.041  50.084  50.089  66.909  66.917  66.929  66.931
 66.972 189.513 189.556
 
 Beta MOs
 -- Occupied --
-89.209 -89.208 -24.831 -24.831 -24.830 -24.830 -24.830 -19.218
-19.214 -19.214 -19.212 -14.406 -10.530 -10.438  -8.230  -8.229
 -6.179  -6.178  -6.178  -6.178  -6.178  -6.177  -1.421  -1.380
 -1.329  -1.329  -1.320  -1.212  -1.195  -1.089  -1.084  -0.990
 -0.831  -0.796  -0.755  -0.704  -0.682  -0.682  -0.665  -0.649
 -0.598  -0.583  -0.567  -0.556  -0.553  -0.539  -0.536  -0.525
 -0.523  -0.516  -0.514  -0.510  -0.503  -0.493  -0.457  -0.413
 -0.405  -0.391  -0.383  -0.381  -0.372  -0.361  -0.335  -0.330
 -- Virtual --
  0.003   0.105   0.112   0.120   0.129   0.142   0.143   0.146
  0.149   0.156   0.157   0.161   0.174   0.182   0.183   0.186
  0.190   0.200   0.209   0.212   0.223   0.240   0.241   0.263
  0.266   0.292   0.297   0.311   0.313   0.325   0.329   0.336
  0.345   0.349   0.350   0.352   0.358   0.365   0.374   0.375
  0.377   0.394   0.395   0.402   0.412   0.413   0.413   0.418
  0.422   0.425   0.432   0.442   0.447   0.453   0.460   0.464
  0.468   0.478   0.479   0.494   0.496   0.500   0.512   0.519
  0.528   0.535   0.547   0.560   0.574   0.585   0.602   0.619
  0.622   0.635   0.658   0.674   0.687   0.721   0.730   0.758
  0.803   0.823   0.870   0.924   0.934   0.937   0.956   0.977
  1.013   1.031   1.057   1.083   1.125   1.128   1.158   1.162
  1.180   1.197   1.215   1.241   1.251   1.259   1.265   1.275
  1.279   1.296   1.301   1.314   1.316   1.321   1.336   1.353
  1.371   1.379   1.410   1.424   1.479   1.490   1.507   1.511
  1.521   1.539   1.548   1.566   1.580   1.585   1.596   1.605
  1.619   1.627   1.666   1.706   1.734   1.760   1.781   1.821
  1.856   1.860   1.919   1.937   1.946   1.993   2.013   2.034
  2.046   2.056   2.079   2.083   2.110   2.158   2.176   2.248
  2.286   2.340   2.355   2.697   2.743   2.863   2.891   2.932
  2.938   2.945   2.959   2.968   2.969   2.981   2.987   3.018
  3.042   3.061   3.070   3.079   3.138   3.154   3.193   3.209
  3.250   3.278   3.300   3.600   3.609   3.730   3.737   3.811
  3.848   3.852   3.857   3.861   3.868   3.878   3.880   3.882
  3.896   3.913   3.919   3.969   3.986   4.085   4.101   4.118
  4.168   4.233   4.305   4.306   4.308   4.369   4.490   4.626
  5.027   5.044   5.053   5.157   5.162   5.174   5.198   5.212
  5.217   5.226   5.256   5.292   5.310   5.450   5.469   6.412
  6.425   6.431   6.457   6.472   6.485   6.494   6.509   6.521
  6.534   6.574   6.575   6.891   6.893   6.931   8.287   8.326
 17.499  17.532  17.558  17.611  17.659  17.689  23.634  23.681
 35.600  50.039  50.041  50.085  50.090  66.911  66.919  66.930
 66.931  66.972 189.514 189.556
 --------------------------------------------------------------
 
          Ground-State Mulliken Net Atomic Charges

     Atom                 Charge (a.u.)    Spin (a.u.)
  --------------------------------------------------------
      1 S                     0.614726       0.009754
      2 C                    -0.251768       0.814155
      3 N                    -0.703330       0.008399
      4 O                    -0.148090       0.061361
      5 O                    -0.221251       0.008115
      6 F                    -0.010105       0.049451
      7 F                    -0.059229       0.046549
      8 S                     0.300118      -0.002810
      9 C                    -0.004631       0.006783
     10 O                    -0.130554      -0.001448
     11 O                    -0.185348       0.000282
     12 F                    -0.055982       0.000241
     13 F                    -0.084000      -0.000086
     14 F                    -0.060557      -0.000746
  --------------------------------------------------------
  Sum of atomic charges =    -1.000000
  Sum of spin   charges =     1.000000

 -----------------------------------------------------------------
                    Cartesian Multipole Moments
 -----------------------------------------------------------------
    Charge (ESU x 10^10)
                -4.8032
    Dipole Moment (Debye)
         X      -0.2367      Y       2.9141      Z       4.5423
       Tot       5.4019
    Quadrupole Moments (Debye-Ang)
        XX    -114.3427     XY      -4.4251     YY     -99.4547
        XZ      -4.0081     YZ      -1.6578     ZZ    -109.4805
    Octopole Moments (Debye-Ang^2)
       XXX     115.2888    XXY     -31.7397    XYY      43.8178
       YYY     -94.1607    XXZ      83.7199    XYZ       8.6534
       YYZ      70.4683    XZZ      56.1383    YZZ     -25.1233
       ZZZ     238.5137
    Hexadecapole Moments (Debye-Ang^3)
      XXXX   -1816.4229   XXXY      72.9852   XXYY    -421.2681
      XYYY      96.0456   YYYY    -729.8504   XXXZ    -463.4244
      XXYZ       3.8000   XYYZ    -167.8751   YYYZ      29.0294
      XXZZ    -548.3398   XYZZ       9.1281   YYZZ    -371.4528
      XZZZ    -511.0466   YZZZ      -3.3270   ZZZZ   -1467.3177
 -----------------------------------------------------------------
 Calculating analytic gradient of the SCF energy
 Gradient of SCF Energy
            1           2           3           4           5           6
    1  -0.0030120   0.0002817  -0.0036444   0.0080371  -0.0228164   0.0094676
    2   0.0040067  -0.0107032  -0.0230047   0.0192506  -0.0114785   0.0048739
    3   0.0053133   0.0127410   0.0132664  -0.0197434   0.0103476  -0.0064332
            7           8           9          10          11          12
    1  -0.0081503   0.0103835  -0.0108101  -0.0015862   0.0133876  -0.0039004
    2   0.0003987   0.0064838   0.0059458   0.0107070   0.0040946  -0.0050124
    3  -0.0088306  -0.0108279  -0.0021443   0.0241707  -0.0210848   0.0131209
           13          14
    1   0.0139839  -0.0016215
    2   0.0030373  -0.0085996
    3   0.0014891  -0.0113848
 Max gradient component =       2.417E-02
 RMS gradient           =       1.126E-02
 Computing fast CPCM-SWIG gradient
 Updating gradient with PCM contributions...
 -- total gradient after adding PCM contribution --
---------------------------------------------------
  Atom         X              Y              Z     
---------------------------------------------------
   1       0.001372       0.000789       0.000695
   2      -0.000988      -0.000368       0.000773
   3      -0.000337      -0.001180      -0.002366
   4      -0.000542      -0.000162       0.000451
   5       0.000219       0.000345      -0.000310
   6      -0.000193      -0.000212      -0.000036
   7       0.000899       0.000101      -0.000043
   8       0.000868       0.000068       0.003162
   9      -0.001163       0.000328      -0.001519
  10      -0.000506       0.000762      -0.001638
  11      -0.000300       0.000448      -0.000052
  12       0.000438      -0.000491       0.000644
  13       0.000615      -0.000192       0.000732
  14      -0.000382      -0.000236      -0.000493
---------------------------------------------------
 Number of fixed atoms: 0
 Gradient time:  CPU 147.60 s  wall 12.36 s
 Geometry Optimization Parameters
   NAtoms,    NIC,     NZ,  NCons,   NDum,   NFix, NCnnct, MaxDiis
       14      84       0       0       0       0       0       0

 Cartesian Hessian Update
 Hessian Updated using BFGS Update


** GEOMETRY OPTIMIZATION IN DELOCALIZED INTERNAL COORDINATES **
   Searching for a Minimum

   Optimization Cycle:   3

                       Coordinates (Angstroms)
     ATOM                X               Y               Z
      1  S         1.1757320889   -0.0095184528   -0.2140655907
      2  C         0.6829137322    1.2997300806    0.9793117213
      3  N         0.1632398976    0.1172943655   -1.4414526593
      4  O         1.0839957692   -1.2688336636    0.5109501801
      5  O         2.4768268291    0.4311305201   -0.6776122420
      6  F        -0.4438442310    1.0758027911    1.6261121020
      7  F         1.6486856161    1.6123267419    1.8305829930
      8  S        -1.3559779575   -0.3580222035   -1.4754326956
      9  C        -2.2033360400    1.2709293763   -1.8248385218
     10  O        -1.6204250656   -1.1255076299   -2.6792453093
     11  O        -1.9298898570   -0.8110135964   -0.2203263036
     12  F        -1.7843233960    1.7890342585   -2.9736987653
     13  F        -3.5184753508    1.0711393810   -1.9010013476
     14  F        -1.9702322622    2.1510049195   -0.8533927737
   Point Group: c1    Number of degrees of freedom:    36


   Energy is  -1727.350888310

 Hessian Updated using BFGS Update

 31 Hessian modes will be used to form the next step
  Hessian Eigenvalues:
     0.002000    0.002472    0.016999    0.025876    0.042694    0.084039
     0.086598    0.101258    0.104581    0.115911    0.122737    0.154489
     0.164427    0.195910    0.204014    0.209977    0.225542    0.245301
     0.258777    0.324115    0.470889    0.519913    0.559100    0.573116
     0.585880    0.592092    0.622595    0.864877    0.909163    0.937175
     0.959709

 Minimum Search - Taking Simple RFO Step
 Searching for Lamda that Minimizes Along All modes
 Value Taken    Lamda =  -0.00020463
 Step Taken.  Stepsize is  0.081345

                             Maximum     Tolerance    Cnvgd?
         Gradient           0.002439      0.000300      NO
         Displacement       0.036656      0.001200      NO
         Energy change     -0.000495      0.000001      NO


 New Cartesian Coordinates Obtained by Inverse Iteration

 Displacement from previous Coordinates is:  0.210986
 ----------------------------------------------------------------
             Standard Nuclear Orientation (Angstroms)
    I     Atom           X                Y                Z
 ----------------------------------------------------------------
    1      S       1.1685799766    -0.0136293445    -0.2109836085
    2      C       0.6960915680     1.3177496650     0.9640161433
    3      N       0.1617656293     0.1226788634    -1.4383994901
    4      O       1.0562119519    -1.2660041547     0.5214184352
    5      O       2.4779557168     0.4015197922    -0.6739683345
    6      F      -0.4460734376     1.1330041155     1.5954120495
    7      F       1.6545239478     1.6106213206     1.8284151830
    8      S      -1.3526334527    -0.3642581113    -1.4879481527
    9      C      -2.2040803683     1.2670259039    -1.8102821575
   10      O      -1.6033213764    -1.1275433951    -2.6954304529
   11      O      -1.9233839520    -0.8392862148    -0.2397968660
   12      F      -1.7822480075     1.8131181405    -2.9452448505
   13      F      -3.5176148517     1.0642113194    -1.9024239726
   14      F      -1.9808835711     2.1262889883    -0.8188931381
 ----------------------------------------------------------------
 Nuclear Repulsion Energy =  1411.6174970008 hartrees
 There are       65 alpha and       64 beta electrons
 Discretize the solute cavity surface with Lebedev spheres
	Using 194 Lebedev grid points for each H atom
	Using 194 Lebedev grid points for other atoms
	Atomic van der Waals radii will be scaled by 1.10
 Remove points where switching function is < 1.0e-08
 Keep 1254 surface tesserae and discard 1462 interior tesserae
 Molecular Surface Area = 219.924 Angst**2
 Applying Cartesian multipole field
    Component          Value
    ---------          -----
     (2,0,0)        1.00000E-11
     (0,2,0)        2.00000E-11
     (0,0,2)       -3.00000E-11
 Nucleus-field energy     =    -0.0000000072 hartrees
 Requested basis set is 6-311++G(d)
 There are 98 shells and 324 basis functions
 A cutoff of  1.0D-12 yielded   3788 shell pairs
 There are     43652 function pairs (     47193 Cartesian)
 Smallest overlap matrix eigenvalue = 4.90E-05
 Guess MOs from SCF MO coefficient file
 Reading MOs from coefficient file
 Reading MOs from coefficient file

 -----------------------------------------------------------------------
  General SCF calculation program by
  Eric Jon Sundstrom, Paul Horn, Yuezhi Mao, Dmitri Zuev, Alec White,
  David Stuck, Shaama M.S., Shane Yost, Joonho Lee, David Small,
  Daniel Levine, Susi Lehtola, Hugh Burton, Evgeny Epifanovsky
 -----------------------------------------------------------------------
 Exchange:     0.2220 Hartree-Fock + 1.0000 wB97X-D + LR-HF
 Correlation:  1.0000 wB97X-D
 Using SG-3 standard quadrature grid
 Dispersion:   Grimme D
 using 32 threads for integral computing
 -------------------------------------------------------
 OpenMP Integral computing Module                
 Release: version 1.0, May 2013, Q-Chem Inc. Pittsburgh 
 -------------------------------------------------------
 using 32 threads for integral computing
 -------------------------------------------------------
 OpenMP Integral computing Module                
 Release: version 1.0, May 2013, Q-Chem Inc. Pittsburgh 
 -------------------------------------------------------
 -------------------------------------------------------
 OpenMP BLAS3 based DFT computing Module                
 Release: version 1.0, May 2013, Q-Chem Inc. Pittsburgh 
 -------------------------------------------------------
 A unrestricted SCF calculation will be
 performed using Roothaan-Hall, GDM
 SCF converges when RMS gradient is below 1.0e-08
 ---------------------------------------
  Cycle       Energy         DIIS error
 ---------------------------------------
    1   -1715.7303034929      2.12e-04  Roothaan Step
 ---------------------------------------
  Cycle       Energy        RMS Gradient
 ---------------------------------------
    1   -1727.3499676753      8.10e-03   Normal BFGS step
    2   -1727.3506092854      2.85e-03   Normal BFGS step
    3   -1727.3509592192      8.80e-04   Normal BFGS step
    4   -1727.3509863351      6.15e-04   Normal BFGS step
    5   -1727.3509990634      2.95e-04   Normal BFGS step
    6   -1727.3510006032      9.95e-05   Normal BFGS step
    7   -1727.3510011436      9.01e-05   Normal BFGS step
    8   -1727.3510012033      4.81e-05   Normal BFGS step
    9   -1727.3510012231      1.42e-05   Normal BFGS step
   10   -1727.3510012269      4.86e-06   Normal BFGS step
   11   -1727.3510012277      2.41e-06   Normal BFGS step
   12   -1727.3510012278      1.16e-06   Normal BFGS step
   13   -1727.3510012279      5.31e-07   Normal BFGS step
   14   -1727.3510012279      2.54e-07   Normal BFGS step
   15   -1727.3510012279      6.51e-08   Normal BFGS step
   16   -1727.3510012279      3.04e-08   Normal BFGS step
   17   -1727.3510012279      1.49e-08   Normal BFGS step
   18   -1727.3510012279      6.57e-09  Convergence criterion met
 ---------------------------------------
 SCF time:   CPU 1492.03s  wall 87.00s 
<S^2> =          0.753250687

************** Final PCM Free Energy Summary **************
 G_electrostatic  =      -0.05115530 hartree =     -32.10043270 kcal/mol
 G_cavitation     =       0.00000000 hartree =       0.00000000 kcal/mol
 G_dispersion     =       0.00000000 hartree =       0.00000000 kcal/mol
 G_repulsion      =       0.00000000 hartree =       0.00000000 kcal/mol
 --------------------------------------------------
 Non-electrostatic Free Energy =       0.00000000 hartree =       0.00000000 kcal/mol
 Total                         =      -0.05115530 hartree =     -32.10043270 kcal/mol
 --------------------------------------------------
 SCF Energy (H0 + V/2)                       =   -1727.35100123 
 Solute Internal Energy (H0)                 =   -1727.29984593 
 Total Free Energy (H0 + V/2 + non-elec)     =   -1727.35100123 hartree
                                             = -1083929.11301183 kcal/mol
***********************************************************

 SCF   energy in the final basis set =    -1727.3510012279
 Total energy in the final basis set =    -1727.3510012279
 
 --------------------------------------------------------------
 
                    Orbital Energies (a.u.)
 --------------------------------------------------------------
 
 Alpha MOs
 -- Occupied --
-89.209 -89.208 -24.833 -24.833 -24.832 -24.831 -24.830 -19.217
-19.216 -19.215 -19.211 -14.405 -10.530 -10.451  -8.230  -8.229
 -6.179  -6.178  -6.178  -6.178  -6.178  -6.177  -1.422  -1.390
 -1.329  -1.329  -1.327  -1.213  -1.196  -1.089  -1.086  -0.991
 -0.836  -0.810  -0.760  -0.708  -0.683  -0.682  -0.670  -0.658
 -0.617  -0.599  -0.570  -0.557  -0.553  -0.541  -0.540  -0.535
 -0.526  -0.519  -0.515  -0.513  -0.505  -0.493  -0.459  -0.415
 -0.408  -0.404  -0.387  -0.383  -0.373  -0.364  -0.336  -0.332
 -0.296
 -- Virtual --
  0.103   0.111   0.119   0.128   0.141   0.141   0.145   0.149
  0.153   0.156   0.160   0.173   0.179   0.183   0.185   0.189
  0.199   0.204   0.209   0.214   0.233   0.240   0.259   0.264
  0.291   0.293   0.308   0.311   0.323   0.328   0.334   0.342
  0.347   0.349   0.351   0.355   0.363   0.373   0.374   0.376
  0.391   0.393   0.402   0.411   0.413   0.414   0.419   0.422
  0.424   0.433   0.441   0.447   0.451   0.459   0.462   0.468
  0.477   0.479   0.492   0.495   0.498   0.511   0.518   0.529
  0.535   0.549   0.562   0.573   0.586   0.603   0.617   0.622
  0.635   0.657   0.671   0.686   0.714   0.725   0.753   0.796
  0.825   0.862   0.923   0.932   0.937   0.953   0.973   1.010
  1.025   1.057   1.082   1.125   1.127   1.158   1.163   1.180
  1.197   1.214   1.239   1.247   1.256   1.263   1.273   1.279
  1.297   1.299   1.310   1.312   1.320   1.330   1.348   1.367
  1.371   1.407   1.419   1.477   1.486   1.503   1.511   1.521
  1.539   1.546   1.564   1.579   1.581   1.590   1.598   1.610
  1.627   1.659   1.678   1.733   1.753   1.777   1.819   1.841
  1.855   1.917   1.933   1.938   1.993   2.010   2.032   2.043
  2.050   2.077   2.083   2.106   2.155   2.167   2.248   2.287
  2.342   2.356   2.696   2.741   2.816   2.892   2.927   2.936
  2.943   2.955   2.965   2.967   2.979   2.986   3.015   3.041
  3.060   3.070   3.075   3.133   3.151   3.184   3.206   3.246
  3.278   3.297   3.600   3.609   3.729   3.739   3.811   3.848
  3.850   3.852   3.859   3.861   3.873   3.879   3.880   3.889
  3.912   3.916   3.969   3.985   4.081   4.096   4.108   4.168
  4.233   4.302   4.305   4.308   4.371   4.490   4.620   5.023
  5.044   5.050   5.155   5.161   5.173   5.197   5.213   5.215
  5.226   5.254   5.291   5.312   5.449   5.470   6.411   6.417
  6.422   6.457   6.466   6.487   6.491   6.508   6.521   6.533
  6.570   6.574   6.890   6.894   6.925   8.288   8.326  17.500
 17.532  17.558  17.612  17.660  17.688  23.634  23.659  35.601
 50.039  50.042  50.085  50.090  66.909  66.918  66.928  66.931
 66.973 189.516 189.556
 
 Beta MOs
 -- Occupied --
-89.209 -89.208 -24.831 -24.831 -24.830 -24.830 -24.830 -19.217
-19.215 -19.214 -19.211 -14.405 -10.530 -10.438  -8.230  -8.229
 -6.179  -6.178  -6.178  -6.178  -6.177  -6.177  -1.422  -1.380
 -1.329  -1.329  -1.320  -1.212  -1.195  -1.089  -1.084  -0.990
 -0.832  -0.797  -0.755  -0.705  -0.682  -0.682  -0.665  -0.649
 -0.598  -0.583  -0.567  -0.557  -0.553  -0.539  -0.536  -0.525
 -0.523  -0.516  -0.514  -0.510  -0.502  -0.493  -0.458  -0.413
 -0.405  -0.391  -0.383  -0.381  -0.371  -0.361  -0.335  -0.330
 -- Virtual --
  0.003   0.105   0.112   0.120   0.129   0.142   0.143   0.147
  0.150   0.156   0.157   0.161   0.174   0.181   0.183   0.187
  0.190   0.200   0.209   0.212   0.223   0.240   0.241   0.264
  0.267   0.292   0.298   0.312   0.314   0.325   0.329   0.336
  0.344   0.348   0.350   0.353   0.358   0.366   0.374   0.376
  0.378   0.393   0.394   0.403   0.412   0.413   0.414   0.420
  0.423   0.425   0.433   0.442   0.447   0.452   0.459   0.464
  0.469   0.477   0.479   0.493   0.496   0.499   0.512   0.519
  0.530   0.536   0.549   0.562   0.573   0.587   0.604   0.617
  0.623   0.635   0.657   0.673   0.687   0.721   0.731   0.758
  0.805   0.827   0.871   0.924   0.934   0.938   0.955   0.977
  1.013   1.033   1.058   1.083   1.127   1.129   1.158   1.164
  1.180   1.198   1.215   1.242   1.250   1.258   1.264   1.274
  1.279   1.298   1.301   1.314   1.315   1.321   1.334   1.350
  1.373   1.380   1.411   1.423   1.482   1.488   1.504   1.512
  1.522   1.539   1.550   1.566   1.580   1.585   1.595   1.605
  1.619   1.627   1.666   1.705   1.737   1.760   1.780   1.822
  1.856   1.861   1.919   1.939   1.946   1.994   2.013   2.036
  2.045   2.055   2.079   2.084   2.112   2.158   2.172   2.250
  2.287   2.342   2.357   2.696   2.745   2.864   2.892   2.932
  2.937   2.945   2.958   2.968   2.969   2.981   2.986   3.019
  3.044   3.062   3.071   3.079   3.139   3.153   3.193   3.207
  3.250   3.279   3.302   3.601   3.611   3.731   3.740   3.811
  3.848   3.852   3.857   3.861   3.867   3.878   3.880   3.882
  3.897   3.913   3.919   3.969   3.985   4.086   4.102   4.120
  4.169   4.233   4.305   4.307   4.309   4.371   4.490   4.628
  5.028   5.044   5.053   5.157   5.162   5.174   5.197   5.214
  5.218   5.226   5.254   5.293   5.312   5.450   5.470   6.411
  6.426   6.432   6.458   6.471   6.488   6.493   6.509   6.522
  6.534   6.572   6.577   6.890   6.894   6.931   8.289   8.326
 17.501  17.533  17.558  17.612  17.660  17.688  23.634  23.683
 35.601  50.039  50.042  50.085  50.090  66.911  66.919  66.930
 66.932  66.973 189.516 189.556
 --------------------------------------------------------------
 
          Ground-State Mulliken Net Atomic Charges

     Atom                 Charge (a.u.)    Spin (a.u.)
  --------------------------------------------------------
      1 S                     0.628333       0.012695
      2 C                    -0.256699       0.812200
      3 N                    -0.715740       0.007810
      4 O                    -0.147277       0.061637
      5 O                    -0.221985       0.007951
      6 F                    -0.010049       0.049231
      7 F                    -0.057967       0.046553
      8 S                     0.304612      -0.003455
      9 C                    -0.010563       0.006877
     10 O                    -0.121570      -0.001385
     11 O                    -0.191755       0.000292
     12 F                    -0.056244       0.000270
     13 F                    -0.083717      -0.000089
     14 F                    -0.059379      -0.000589
  --------------------------------------------------------
  Sum of atomic charges =    -1.000000
  Sum of spin   charges =     1.000000

 -----------------------------------------------------------------
                    Cartesian Multipole Moments
 -----------------------------------------------------------------
    Charge (ESU x 10^10)
                -4.8032
    Dipole Moment (Debye)
         X      -0.2656      Y       2.9754      Z       4.5229
       Tot       5.4204
    Quadrupole Moments (Debye-Ang)
        XX    -114.1878     XY      -4.3919     YY     -99.4224
        XZ      -3.9216     YZ      -1.6843     ZZ    -109.4501
    Octopole Moments (Debye-Ang^2)
       XXX     114.7767    XXY     -31.3509    XYY      44.2680
       YYY     -93.6043    XXZ      83.6698    XYZ       8.5491
       YYZ      70.4896    XZZ      55.9119    YZZ     -24.9766
       ZZZ     238.9060
    Hexadecapole Moments (Debye-Ang^3)
      XXXX   -1811.6335   XXXY      72.9728   XXYY    -420.7727
      XYYY      95.1272   YYYY    -733.9279   XXXZ    -461.8551
      XXYZ       2.4299   XYYZ    -167.5131   YYYZ      25.4635
      XXZZ    -545.9435   XYZZ       9.2866   YYZZ    -371.5572
      XZZZ    -509.9151   YZZZ      -7.6132   ZZZZ   -1461.2261
 -----------------------------------------------------------------
 Calculating analytic gradient of the SCF energy
 Gradient of SCF Energy
            1           2           3           4           5           6
    1  -0.0034517   0.0001231  -0.0029057   0.0083040  -0.0236937   0.0104936
    2   0.0047780  -0.0105709  -0.0242918   0.0193543  -0.0112315   0.0046981
    3   0.0054433   0.0127875   0.0142781  -0.0209028   0.0102380  -0.0064035
            7           8           9          10          11          12
    1  -0.0090713   0.0084092  -0.0099359  -0.0009459   0.0142124  -0.0045180
    2   0.0002939   0.0072064   0.0056319   0.0103032   0.0039162  -0.0051198
    3  -0.0094207  -0.0120169  -0.0012811   0.0260642  -0.0215063   0.0130577
           13          14
    1   0.0142566  -0.0012766
    2   0.0033128  -0.0082809
    3   0.0011321  -0.0114696
 Max gradient component =       2.606E-02
 RMS gradient           =       1.161E-02
 Computing fast CPCM-SWIG gradient
 Updating gradient with PCM contributions...
 -- total gradient after adding PCM contribution --
---------------------------------------------------
  Atom         X              Y              Z     
---------------------------------------------------
   1       0.000391       0.000473       0.000890
   2      -0.000536       0.000007       0.000911
   3       0.000033      -0.001372      -0.000764
   4      -0.000417       0.000321      -0.000418
   5      -0.000428       0.000048      -0.000264
   6       0.000651       0.000155      -0.000089
   7      -0.000218      -0.000218      -0.000499
   8      -0.000616       0.000897      -0.000091
   9      -0.000160       0.000069      -0.000088
  10       0.000147      -0.000023       0.000331
  11       0.000670      -0.000052      -0.000379
  12      -0.000265      -0.000264       0.000727
  13       0.000992       0.000052       0.000163
  14      -0.000245      -0.000091      -0.000431
---------------------------------------------------
 Number of fixed atoms: 0
 Gradient time:  CPU 148.67 s  wall 13.21 s
 Geometry Optimization Parameters
   NAtoms,    NIC,     NZ,  NCons,   NDum,   NFix, NCnnct, MaxDiis
       14      84       0       0       0       0       0       0

 Cartesian Hessian Update
 Hessian Updated using BFGS Update


** GEOMETRY OPTIMIZATION IN DELOCALIZED INTERNAL COORDINATES **
   Searching for a Minimum

   Optimization Cycle:   4

                       Coordinates (Angstroms)
     ATOM                X               Y               Z
      1  S         1.1685799766   -0.0136293445   -0.2109836085
      2  C         0.6960915680    1.3177496650    0.9640161433
      3  N         0.1617656293    0.1226788634   -1.4383994901
[...]
  1.011   1.041   1.057   1.086   1.123   1.135   1.157   1.167
  1.186   1.198   1.213   1.244   1.249   1.254   1.261   1.271
  1.279   1.297   1.300   1.312   1.316   1.320   1.333   1.352
  1.371   1.380   1.413   1.423   1.466   1.490   1.504   1.510
  1.520   1.538   1.545   1.561   1.584   1.587   1.598   1.608
  1.616   1.627   1.667   1.704   1.740   1.762   1.777   1.821
  1.856   1.863   1.921   1.932   1.940   1.992   2.013   2.034
  2.036   2.051   2.078   2.081   2.108   2.145   2.172   2.243
  2.296   2.340   2.363   2.696   2.751   2.863   2.894   2.931
  2.937   2.944   2.956   2.966   2.969   2.981   2.985   3.020
  3.046   3.063   3.070   3.080   3.139   3.149   3.184   3.204
  3.245   3.282   3.303   3.599   3.609   3.731   3.741   3.811
  3.848   3.852   3.858   3.860   3.867   3.878   3.880   3.883
  3.896   3.913   3.919   3.971   3.985   4.086   4.105   4.118
  4.165   4.233   4.305   4.307   4.308   4.380   4.491   4.629
  5.025   5.042   5.045   5.156   5.162   5.170   5.195   5.212
  5.221   5.225   5.258   5.295   5.311   5.450   5.469   6.413
  6.421   6.430   6.455   6.469   6.484   6.492   6.507   6.524
  6.533   6.574   6.578   6.889   6.893   6.928   8.286   8.324
 17.501  17.532  17.561  17.613  17.659  17.681  23.631  23.681
 35.603  50.038  50.043  50.085  50.087  66.909  66.917  66.927
 66.932  66.971 189.513 189.554
 --------------------------------------------------------------
 
          Ground-State Mulliken Net Atomic Charges

     Atom                 Charge (a.u.)    Spin (a.u.)
  --------------------------------------------------------
      1 S                     0.610524       0.014844
      2 C                    -0.238611       0.813988
      3 N                    -0.715806       0.006480
      4 O                    -0.153518       0.063239
      5 O                    -0.230002       0.006730
      6 F                    -0.008843       0.048798
      7 F                    -0.055984       0.045205
      8 S                     0.312165      -0.003694
      9 C                     0.005176       0.005344
     10 O                    -0.123673      -0.001004
     11 O                    -0.194642       0.000076
     12 F                    -0.055331       0.000234
     13 F                    -0.084454      -0.000084
     14 F                    -0.067000      -0.000157
  --------------------------------------------------------
  Sum of atomic charges =    -1.000000
  Sum of spin   charges =     1.000000

 -----------------------------------------------------------------
                    Cartesian Multipole Moments
 -----------------------------------------------------------------
    Charge (ESU x 10^10)
                -4.8032
    Dipole Moment (Debye)
         X      -0.2369      Y       2.8806      Z       4.4505
       Tot       5.3067
    Quadrupole Moments (Debye-Ang)
        XX    -114.2102     XY      -4.0782     YY     -99.5727
        XZ      -3.5127     YZ      -1.5201     ZZ    -108.7772
    Octopole Moments (Debye-Ang^2)
       XXX     113.9539    XXY     -31.8811    XYY      44.4717
       YYY     -94.5936    XXZ      82.7101    XYZ       8.4448
       YYZ      71.1677    XZZ      54.3552    YZZ     -26.3974
       ZZZ     234.8577
    Hexadecapole Moments (Debye-Ang^3)
      XXXX   -1863.8481   XXXY      79.2095   XXYY    -425.2170
      XYYY     102.5331   YYYY    -718.3467   XXXZ    -475.9081
      XXYZ       5.8586   XYYZ    -171.4482   YYYZ      33.1742
      XXZZ    -556.2274   XYZZ      11.7343   YYZZ    -371.6639
      XZZZ    -523.0178   YZZZ       2.4625   ZZZZ   -1471.9237
 -----------------------------------------------------------------
 Calculating analytic gradient of the SCF energy
 Gradient of SCF Energy
            1           2           3           4           5           6
    1  -0.0030395  -0.0007575  -0.0028002   0.0069105  -0.0227746   0.0104262
    2   0.0071707  -0.0115769  -0.0268562   0.0193457  -0.0115788   0.0041127
    3   0.0051908   0.0112496   0.0124406  -0.0203052   0.0110502  -0.0059195
            7           8           9          10          11          12
    1  -0.0085602   0.0094918  -0.0096506  -0.0015658   0.0138998  -0.0046586
    2   0.0016833   0.0034499   0.0054886   0.0120242   0.0066944  -0.0046491
    3  -0.0091768  -0.0100169  -0.0015607   0.0244016  -0.0199384   0.0123251
           13          14
    1   0.0129792   0.0000994
    2   0.0037572  -0.0090656
    3   0.0015377  -0.0112781
 Max gradient component =       2.686E-02
 RMS gradient           =       1.140E-02
 Computing fast CPCM-SWIG gradient
 Updating gradient with PCM contributions...
 -- total gradient after adding PCM contribution --
---------------------------------------------------
  Atom         X              Y              Z     
---------------------------------------------------
   1       0.000076      -0.000031       0.000002
   2       0.000029       0.000015       0.000044
   3      -0.000061      -0.000048      -0.000027
   4       0.000003       0.000026      -0.000025
   5      -0.000037      -0.000023      -0.000022
   6       0.000013       0.000004      -0.000024
   7       0.000020       0.000009      -0.000043
   8       0.000010       0.000048       0.000035
   9      -0.000016      -0.000014      -0.000014
  10      -0.000011      -0.000011       0.000016
  11       0.000003      -0.000004       0.000001
  12      -0.000017      -0.000003      -0.000001
  13      -0.000017       0.000009       0.000024
  14       0.000005       0.000022       0.000034
---------------------------------------------------
 Number of fixed atoms: 0
 Gradient time:  CPU 148.56 s  wall 12.45 s
 Geometry Optimization Parameters
   NAtoms,    NIC,     NZ,  NCons,   NDum,   NFix, NCnnct, MaxDiis
       14      84       0       0       0       0       0       0

 Cartesian Hessian Update
 Hessian Updated using BFGS Update


** GEOMETRY OPTIMIZATION IN DELOCALIZED INTERNAL COORDINATES **
   Searching for a Minimum

   Optimization Cycle:  11

                       Coordinates (Angstroms)
     ATOM                X               Y               Z
      1  S         1.1836851906    0.0036823011   -0.2156229670
      2  C         0.7914028251    1.3007878182    1.0190606134
      3  N         0.1260353797    0.2422281653   -1.3784218087
      4  O         1.0599531297   -1.2766256490    0.4664931059
      5  O         2.4907585442    0.3965250257   -0.7046703225
      6  F        -0.3953071694    1.1972701760    1.5859350494
      7  F         1.7288513135    1.4517353027    1.9420684929
      8  S        -1.3584264209   -0.3309517459   -1.4537960934
      9  C        -2.2548347175    1.2575259789   -1.8595776687
     10  O        -1.5498994398   -1.1520692556   -2.6349854392
     11  O        -1.9465765276   -0.7818113561   -0.2039704867
     12  F        -1.8079427859    1.7890316338   -2.9926260463
     13  F        -3.5554137890    0.9985341137   -2.0001898186
     14  F        -2.1073957597    2.1496343795   -0.8838058229
   Point Group: c1    Number of degrees of freedom:    36


   Energy is  -1727.351161504

 Hessian Updated using BFGS Update

 36 Hessian modes will be used to form the next step
  Hessian Eigenvalues:
     0.001182    0.002120    0.003922    0.013884    0.047441    0.085646
     0.086082    0.100955    0.111987    0.123088    0.128513    0.179733
     0.185705    0.196230    0.203801    0.207099    0.218651    0.230334
     0.244133    0.248795    0.250778    0.252884    0.269480    0.300907
     0.341478    0.482843    0.495600    0.558529    0.571352    0.587419
     0.596981    0.621253    0.848750    0.904423    0.931806    0.959369

 Minimum Search - Taking Simple RFO Step
 Searching for Lamda that Minimizes Along All modes
 Value Taken    Lamda =   0.00000000
 Step Taken.  Stepsize is  0.004957

                             Maximum     Tolerance    Cnvgd?
         Gradient           0.000041      0.000300     YES
         Displacement       0.003419      0.001200      NO
         Energy change     -0.000000      0.000001     YES


                       Distance Matrix (Angstroms)
             S (  1)   C (  2)   N (  3)   O (  4)   O (  5)   F (  6)
   C (  2)  1.833252
   N (  3)  1.589852  2.703920
   O (  4)  1.455947  2.649625  2.565703
   O (  5)  1.449805  2.583941  2.463669  2.493644
   F (  6)  2.676468  1.319221  3.157739  3.080762  3.770602
   F (  7)  2.655126  1.324212  3.880410  3.173122  2.949440  2.168786
   S (  8)  2.847347  3.660514  1.593061  3.229608  3.988313  3.535962
   C (  9)  4.012248  4.191419  2.632657  4.777065  4.959414  3.915741
   O ( 10)  3.829042  4.985003  2.516302  4.055369  4.738267  4.966754
   O ( 11)  3.227332  3.650966  2.593012  3.119869  4.618346  3.086578
   F ( 12)  4.455228  4.805061  2.956100  5.439539  5.064844  4.827934
   F ( 13)  5.160762  5.301136  3.809418  5.706355  6.212647  4.783938
   F ( 14)  3.985322  3.569940  2.978432  4.857434  4.924277  3.152438
             F (  7)   S (  8)   C (  9)   O ( 10)   O ( 11)   F ( 12)
   S (  8)  4.923531
   C (  9)  5.509990  1.868547
   O ( 10)  6.203179  1.451242  2.627611
   O ( 11)  4.806556  1.453017  2.644798  2.490839
   F ( 12)  6.080616  2.657892  1.328913  2.973982  3.795399
   F ( 13)  6.608347  2.625420  1.333550  3.008346  2.997397  2.159507
   F ( 14)  4.815539  2.653140  1.330311  3.778714  3.013538  2.160285
             F ( 13)
   F ( 14)  2.160579
 
 Final energy is   -1727.35116150359     


 ******************************
 **  OPTIMIZATION CONVERGED  **
 ******************************

                       Coordinates (Angstroms)
     ATOM                X               Y               Z
      1  S         1.1836851906    0.0036823011   -0.2156229670
      2  C         0.7914028251    1.3007878182    1.0190606134
      3  N         0.1260353797    0.2422281653   -1.3784218087
      4  O         1.0599531297   -1.2766256490    0.4664931059
      5  O         2.4907585442    0.3965250257   -0.7046703225
      6  F        -0.3953071694    1.1972701760    1.5859350494
      7  F         1.7288513135    1.4517353027    1.9420684929
      8  S        -1.3584264209   -0.3309517459   -1.4537960934
      9  C        -2.2548347175    1.2575259789   -1.8595776687
     10  O        -1.5498994398   -1.1520692556   -2.6349854392
     11  O        -1.9465765276   -0.7818113561   -0.2039704867
     12  F        -1.8079427859    1.7890316338   -2.9926260463
     13  F        -3.5554137890    0.9985341137   -2.0001898186
     14  F        -2.1073957597    2.1496343795   -0.8838058229

Z-matrix Print:
$molecule
-1 2
S 
O  1 1.451242
O  1 1.453017 2 118.107509
N  1 1.593061 2 111.409283 3 139.035817 0
S  4 1.589852 1 126.907170 2 -120.600996 0
O  5 1.449805 4 108.203329 1 165.092940 0
O  5 1.455947 4 114.712465 1 30.716237 0
C  5 1.833252 4 104.127004 1 -85.597305 0
F  8 1.319221 5 115.237473 4 64.586892 0
F  8 1.324212 5 113.491352 4 -166.932386 0
C  1 1.868547 2 103.942539 3 -115.600836 0
F  11 1.328913 1 111.336043 2 -55.583416 0
F  11 1.330311 1 110.954731 2 -176.738178 0
F  11 1.333550 1 109.006180 2 63.958962 0
$end

 
 --------------------------------------------------------------
 
                    Orbital Energies (a.u.)
 --------------------------------------------------------------
 
 Alpha MOs
 -- Occupied --
-89.209 -89.208 -24.833 -24.833 -24.831 -24.831 -24.830 -19.216
-19.216 -19.215 -19.211 -14.404 -10.531 -10.450  -8.231  -8.230
 -6.179  -6.179  -6.179  -6.178  -6.178  -6.177  -1.421  -1.389
 -1.329  -1.328  -1.327  -1.213  -1.196  -1.089  -1.086  -0.992
 -0.838  -0.809  -0.760  -0.707  -0.683  -0.682  -0.668  -0.657
 -0.617  -0.599  -0.571  -0.557  -0.553  -0.542  -0.539  -0.534
 -0.526  -0.519  -0.515  -0.512  -0.506  -0.493  -0.459  -0.414
 -0.409  -0.405  -0.387  -0.382  -0.374  -0.364  -0.338  -0.329
 -0.296
 -- Virtual --
  0.102   0.111   0.120   0.128   0.140   0.140   0.146   0.148
  0.154   0.156   0.161   0.172   0.179   0.183   0.185   0.189
  0.199   0.202   0.214   0.215   0.234   0.239   0.257   0.264
  0.290   0.297   0.309   0.311   0.323   0.329   0.332   0.339
  0.347   0.347   0.352   0.357   0.362   0.371   0.373   0.377
  0.389   0.393   0.401   0.410   0.414   0.415   0.416   0.423
  0.425   0.432   0.438   0.446   0.451   0.460   0.461   0.470
  0.474   0.480   0.485   0.499   0.501   0.507   0.517   0.535
  0.538   0.550   0.563   0.568   0.587   0.602   0.604   0.619
  0.634   0.659   0.666   0.686   0.711   0.725   0.751   0.793
  0.826   0.862   0.919   0.932   0.935   0.956   0.967   1.008
  1.034   1.056   1.085   1.121   1.134   1.156   1.166   1.185
  1.196   1.213   1.242   1.246   1.253   1.260   1.270   1.278
  1.295   1.299   1.308   1.312   1.319   1.330   1.350   1.367
  1.370   1.409   1.418   1.462   1.487   1.503   1.508   1.519
  1.537   1.542   1.557   1.584   1.586   1.591   1.599   1.609
  1.626   1.661   1.677   1.734   1.756   1.776   1.819   1.841
  1.855   1.918   1.922   1.936   1.992   2.010   2.029   2.035
  2.048   2.076   2.079   2.103   2.141   2.167   2.242   2.295
  2.339   2.362   2.696   2.747   2.815   2.894   2.926   2.937
  2.942   2.953   2.963   2.967   2.980   2.985   3.016   3.043
  3.061   3.068   3.075   3.132   3.147   3.175   3.203   3.241
  3.281   3.298   3.599   3.607   3.729   3.740   3.811   3.848
  3.850   3.852   3.858   3.861   3.873   3.879   3.881   3.888
  3.912   3.915   3.971   3.985   4.079   4.101   4.107   4.164
  4.233   4.302   4.305   4.308   4.379   4.491   4.621   5.020
  5.042   5.044   5.154   5.161   5.169   5.195   5.210   5.219
  5.223   5.258   5.293   5.311   5.449   5.468   6.412   6.413
  6.420   6.455   6.465   6.484   6.489   6.507   6.524   6.533
  6.571   6.577   6.889   6.893   6.922   8.285   8.324  17.500
 17.531  17.561  17.613  17.659  17.681  23.631  23.658  35.603
 50.037  50.043  50.085  50.086  66.907  66.916  66.927  66.931
 66.971 189.513 189.554
 
 Beta MOs
 -- Occupied --
-89.209 -89.208 -24.831 -24.831 -24.830 -24.830 -24.830 -19.216
-19.215 -19.214 -19.211 -14.404 -10.531 -10.437  -8.231  -8.229
 -6.179  -6.179  -6.179  -6.178  -6.177  -6.177  -1.421  -1.380
 -1.329  -1.328  -1.319  -1.212  -1.195  -1.088  -1.083  -0.991
 -0.834  -0.797  -0.755  -0.703  -0.682  -0.682  -0.663  -0.649
 -0.598  -0.583  -0.568  -0.557  -0.553  -0.539  -0.535  -0.525
 -0.522  -0.516  -0.513  -0.510  -0.503  -0.492  -0.458  -0.412
 -0.406  -0.391  -0.382  -0.381  -0.372  -0.361  -0.336  -0.327
 -- Virtual --
  0.003   0.105   0.112   0.121   0.129   0.142   0.142   0.147
  0.150   0.156   0.158   0.162   0.174   0.181   0.183   0.187
  0.189   0.199   0.209   0.216   0.222   0.239   0.242   0.260
  0.268   0.291   0.300   0.312   0.317   0.324   0.329   0.333
  0.341   0.348   0.349   0.353   0.359   0.366   0.372   0.375
  0.379   0.391   0.394   0.401   0.411   0.414   0.415   0.417
  0.424   0.425   0.432   0.439   0.447   0.452   0.461   0.463
  0.470   0.475   0.480   0.487   0.500   0.503   0.508   0.517
  0.535   0.539   0.550   0.563   0.568   0.588   0.603   0.604
  0.619   0.636   0.659   0.669   0.687   0.716   0.732   0.756
  0.802   0.827   0.872   0.920   0.934   0.937   0.957   0.971
  1.011   1.041   1.057   1.086   1.123   1.135   1.157   1.167
  1.186   1.198   1.213   1.244   1.249   1.254   1.261   1.271
  1.279   1.297   1.300   1.312   1.316   1.320   1.333   1.352
  1.371   1.380   1.413   1.423   1.466   1.490   1.504   1.510
  1.520   1.538   1.545   1.561   1.584   1.587   1.598   1.608
  1.616   1.627   1.667   1.704   1.740   1.762   1.777   1.821
  1.856   1.863   1.921   1.932   1.940   1.992   2.013   2.034
  2.036   2.051   2.078   2.081   2.108   2.145   2.172   2.243
  2.296   2.340   2.363   2.696   2.751   2.863   2.894   2.931
  2.937   2.944   2.956   2.966   2.969   2.981   2.985   3.020
  3.046   3.063   3.070   3.080   3.139   3.149   3.184   3.204
  3.245   3.282   3.303   3.599   3.609   3.731   3.741   3.811
  3.848   3.852   3.858   3.860   3.867   3.878   3.880   3.883
  3.896   3.913   3.919   3.971   3.985   4.086   4.105   4.118
  4.165   4.233   4.305   4.307   4.308   4.380   4.491   4.629
  5.025   5.042   5.045   5.156   5.162   5.170   5.195   5.212
  5.221   5.225   5.258   5.295   5.311   5.450   5.469   6.413
  6.421   6.430   6.455   6.469   6.484   6.492   6.507   6.524
  6.533   6.574   6.578   6.889   6.893   6.928   8.286   8.324
 17.501  17.532  17.561  17.613  17.659  17.681  23.631  23.681
 35.603  50.038  50.043  50.085  50.087  66.909  66.917  66.927
 66.932  66.971 189.513 189.554
 --------------------------------------------------------------
 
          Ground-State Mulliken Net Atomic Charges

     Atom                 Charge (a.u.)    Spin (a.u.)
  --------------------------------------------------------
      1 S                     0.610524       0.014844
      2 C                    -0.238611       0.813988
      3 N                    -0.715806       0.006480
      4 O                    -0.153518       0.063239
      5 O                    -0.230002       0.006730
      6 F                    -0.008843       0.048798
      7 F                    -0.055984       0.045205
      8 S                     0.312165      -0.003694
      9 C                     0.005176       0.005344
     10 O                    -0.123673      -0.001004
     11 O                    -0.194642       0.000076
     12 F                    -0.055331       0.000234
     13 F                    -0.084454      -0.000084
     14 F                    -0.067000      -0.000157
  --------------------------------------------------------
  Sum of atomic charges =    -1.000000
  Sum of spin   charges =     1.000000

 -----------------------------------------------------------------
                    Cartesian Multipole Moments
 -----------------------------------------------------------------
    Charge (ESU x 10^10)
                -4.8032
    Dipole Moment (Debye)
         X      -0.2369      Y       2.8806      Z       4.4505
       Tot       5.3067
    Quadrupole Moments (Debye-Ang)
        XX    -114.2102     XY      -4.0782     YY     -99.5727
        XZ      -3.5127     YZ      -1.5201     ZZ    -108.7772
    Octopole Moments (Debye-Ang^2)
       XXX     113.9539    XXY     -31.8811    XYY      44.4717
       YYY     -94.5936    XXZ      82.7101    XYZ       8.4448
       YYZ      71.1677    XZZ      54.3552    YZZ     -26.3974
       ZZZ     234.8577
    Hexadecapole Moments (Debye-Ang^3)
      XXXX   -1863.8481   XXXY      79.2095   XXYY    -425.2170
      XYYY     102.5331   YYYY    -718.3467   XXXZ    -475.9081
      XXYZ       5.8586   XYYZ    -171.4482   YYYZ      33.1742
      XXZZ    -556.2274   XYZZ      11.7343   YYZZ    -371.6639
      XZZZ    -523.0178   YZZZ       2.4625   ZZZZ   -1471.9237
 -----------------------------------------------------------------
Archival summary:
1\1\nid01231\OPT\ProcedureUnspecified\BasisUnspecified\25412(1-,2)\sblau\TueNov1320:26:572018TueNov1320:26:572018\0\\#,OPT,ProcedureUnspecified,BasisUnspecified,\\-1,2\S\O,1,1.45124\O,1,1.45302,2,118.108\N,1,1.59306,2,111.409,3,139.036,0\S,4,1.58985,1,126.907,2,-120.601,0\O,5,1.4498,4,108.203,1,165.093,0\O,5,1.45595,4,114.712,1,30.7162,0\C,5,1.83325,4,104.127,1,-85.5973,0\F,8,1.31922,5,115.237,4,64.5869,0\F,8,1.32421,5,113.491,4,-166.932,0\C,1,1.86855,2,103.943,3,-115.601,0\F,11,1.32891,1,111.336,2,-55.5834,0\F,11,1.33031,1,110.955,2,-176.738,0\F,11,1.33355,1,109.006,2,63.959,0\\\@

 Total job time:  1084.81s(wall), 17968.64s(cpu) 
 Tue Nov 13 20:26:57 2018

        *************************************************************
        *                                                           *
        *  Thank you very much for using Q-Chem.  Have a nice day.  *
        *                                                           *
        *************************************************************


