
Running Job 1 of 1 mol.qin
qchem mol.qin_48380.0 /tmp/qchem48380/ 1
/global/common/cori/software/qchem/5.1/exe/qcprog.exe mol.qin_48380.0 /tmp/qchem48380/
Check license passed

                  Welcome to Q-Chem
     A Quantum Leap Into The Future Of Chemistry


 Q-Chem 5.1, Q-Chem, Inc., Pleasanton, CA (2018)

 Yihan Shao,  Zhengting Gan,  E. Epifanovsky,  A. T. B. Gilbert,  M. Wormit,  
 J. Kussmann,  A. W. Lange,  A. Behn,  Jia Deng,  Xintian Feng,  D. Ghosh,  
 M. Goldey,  P. R. Horn,  L. D. Jacobson,  I. Kaliman,  T. Kus,  A. Landau,  
 Jie Liu,  E. I. Proynov,  R. M. Richard,  R. P. Steele,  E. J. Sundstrom,  
 H. L. Woodcock III,  P. M. Zimmerman,  D. Zuev,  B. Albrecht,  E. Alguire,  
 S. A. Baeppler,  D. Barton,  Z. Benda,  Y. A. Bernard,  E. J. Berquist,  
 K. B. Bravaya,  H. Burton,  D. Casanova,  Chun-Min Chang,  Yunqing Chen,  
 A. Chien,  K. D. Closser,  M. P. Coons,  S. Coriani,  S. Dasgupta,  
 A. L. Dempwolff,  M. Diedenhofen,  Hainam Do,  R. G. Edgar,  Po-Tung Fang,  
 S. Faraji,  S. Fatehi,  Qingguo Feng,  K. D. Fenk,  J. Fosso-Tande,  
 Qinghui Ge,  A. Ghysels,  G. Gidofalvi,  J. Gomes,  J. Gonthier,  A. Gunina,  
 D. Hait,  M. W. D. Hanson-Heine,  P. H. P. Harbach,  A. W. Hauser,  
 J. E. Herr,  E. G. Hohenstein,  Z. C. Holden,  Kerwin Hui,  B. C. Huynh,  
 T.-C. Jagau,  Hyunjun Ji,  B. Kaduk,  K. Khistyaev,  Jaehoon Kim,  
 P. Klunzinger,  K. Koh,  D. Kosenkov,  L. Koulias,  T. Kowalczyk,  
 C. M. Krauter,  A. Kunitsa,  Ka Un Lao,  A. Laurent,  K. V. Lawler,  
 Joonho Lee,  D. Lefrancois,  S. Lehtola,  D. S. Levine,  Yi-Pei Li,  
 You-Sheng Lin,  Fenglai Liu,  E. Livshits,  A. Luenser,  P. Manohar,  
 E. Mansoor,  S. F. Manzer,  Shan-Ping Mao,  Yuezhi Mao,  N. Mardirossian,  
 A. V. Marenich,  T. Markovich,  L. A. Martinez-Martinez,  S. A. Maurer,  
 N. J. Mayhall,  S. C. McKenzie,  J.-M. Mewes,  A. F. Morrison,  
 J. W. Mullinax,  K. Nanda,  T. S. Nguyen-Beck,  R. Olivares-Amaya,  
 J. A. Parkhill,  T. M. Perrine,  F. Plasser,  P. Pokhilko,  S. Prager,  
 A. Prociuk,  E. Ramos,  D. R. Rehn,  F. Rob,  M. Schneider,  N. Sergueev,  
 S. M. Sharada,  S. Sharma,  D. W. Small,  T. Stauch,  T. Stein,  
 Yu-Chuan Su,  A. J. W. Thom,  A. Tkatchenko,  T. Tsuchimochi,  N. M. Tubman,  
 L. Vogt,  M. L. Vidal,  O. Vydrov,  M. A. Watson,  J. Wenzel,  
 M. de Wergifosse,  T. A. Wesolowski,  A. White,  J. Witte,  A. Yamada,  
 Jun Yang,  K. Yao,  S. Yeganeh,  S. R. Yost,  Zhi-Qiang You,  A. Zech,  
 Igor Ying Zhang,  Xing Zhang,  Yan Zhao,  Ying Zhu,  B. R. Brooks,  
 G. K. L. Chan,  C. J. Cramer,  M. S. Gordon,  W. J. Hehre,  A. Klamt,  
 M. W. Schmidt,  C. D. Sherrill,  D. G. Truhlar,  A. Aspuru-Guzik,  R. Baer,  
 A. T. Bell,  N. A. Besley,  Jeng-Da Chai,  R. A. DiStasio Jr.,  A. Dreuw,  
 B. D. Dunietz,  T. R. Furlani,  Chao-Ping Hsu,  Yousung Jung,  Jing Kong,  
 D. S. Lambrecht,  WanZhen Liang,  C. Ochsenfeld,  V. A. Rassolov,  
 L. V. Slipchenko,  J. E. Subotnik,  T. Van Voorhis,  J. M. Herbert,  
 A. I. Krylov,  P. M. W. Gill,  M. Head-Gordon

 Contributors to earlier versions of Q-Chem not listed above: 
 R. D. Adamson,  B. Austin,  J. Baker,  G. J. O. Beran,  K. Brandhorst,  
 S. T. Brown,  E. F. C. Byrd,  A. K. Chakraborty,  C.-L. Cheng,  
 Siu Hung Chien,  D. M. Chipman,  D. L. Crittenden,  H. Dachsel,  
 R. J. Doerksen,  A. D. Dutoi,  L. Fusti-Molnar,  W. A. Goddard III,  
 A. Golubeva-Zadorozhnaya,  S. R. Gwaltney,  G. Hawkins,  A. Heyden,  
 S. Hirata,  G. Kedziora,  F. J. Keil,  C. Kelley,  Jihan Kim,  R. A. King,  
 R. Z. Khaliullin,  P. P. Korambath,  W. Kurlancheek,  A. M. Lee,  M. S. Lee,  
 S. V. Levchenko,  Ching Yeh Lin,  D. Liotard,  R. C. Lochan,  I. Lotan,  
 P. E. Maslen,  N. Nair,  D. P. O'Neill,  D. Neuhauser,  E. Neuscamman,  
 C. M. Oana,  R. Olson,  B. Peters,  R. Peverati,  P. A. Pieniazek,  
 Y. M. Rhee,  J. Ritchie,  M. A. Rohrdanz,  E. Rosta,  N. J. Russ,  
 H. F. Schaefer III,  N. E. Schultz,  N. Shenvi,  A. C. Simmonett,  A. Sodt,  
 D. Stuck,  K. S. Thanthiriwatte,  V. Vanovschi,  Tao Wang,  A. Warshel,  
 C. F. Williams,  Q. Wu,  X. Xu,  W. Zhang

 Please cite Q-Chem as follows:
 Y. Shao et al., Mol. Phys. 113, 184-215 (2015)
 DOI: 10.1080/00268976.2014.952696

 Q-Chem 5.1.0 for Intel X86 EM64T Linux

 Parts of Q-Chem use Armadillo 8.300.2 (Tropical Shenanigans).
 http://arma.sourceforge.net/

 Q-Chem begins on Tue Nov 13 18:56:04 2018  

Host: cori01
0

     Scratch files written to /tmp/qchem48380//
 Jun2518 |scratch|qcdevops|jenkins|workspace|build_RNUM -1
Processing $rem in /global/common/cori/software/qchem/5.1/config/preferences.
 MEM_TOTAL  96000 
Symmetry turned off for PCM/SM12/SMD calculation

Checking the input file for inconsistencies... 	...done.

--------------------------------------------------------------
User input:
--------------------------------------------------------------
$molecule
-1 2
S      1.1860297014      0.0188677542     -0.2282900730
C      0.8192437489      1.3654601928      1.0182726166
N      0.1241201746      0.2461530897     -1.3852138881
O      1.0435339757     -1.2172053788      0.5185674957
O      2.4943895637      0.3824687199     -0.7358083636
F     -0.3779953628      1.1979491970      1.5684928287
F      1.7374773126      1.3368868332      1.9847458446
S     -1.3606196835     -0.3344113406     -1.4575558477
C     -2.2637986796      1.2499413845     -1.8641256098
O     -1.5424887503     -1.1579054368     -2.6380147289
O     -1.9450716722     -0.7874305265     -0.2077642729
F     -1.8103172698      1.7896916631     -2.9899493011
F     -3.5605846432      0.9809028011     -2.0171609969
F     -2.1308952577      2.1364186057     -0.8817837134
$end

$rem
job_type = opt
basis = 6-311++g*
max_scf_cycles = 200
gen_scfman = true
scf_algorithm = gdm
method = wb97xd
geom_opt_max_cycles = 200
solvent_method = pcm
xc_grid = 3
$end

$pcm
heavypoints 194
hpoints 194
radii uff
theory cpcm
vdwscale 1.1
$end

$solvent
dielectric 3.0
$end
--------------------------------------------------------------
 ----------------------------------------------------------------
             Standard Nuclear Orientation (Angstroms)
    I     Atom           X                Y                Z
 ----------------------------------------------------------------
    1      S       1.1860297014     0.0188677542    -0.2282900730
    2      C       0.8192437489     1.3654601928     1.0182726166
    3      N       0.1241201746     0.2461530897    -1.3852138881
    4      O       1.0435339757    -1.2172053788     0.5185674957
    5      O       2.4943895637     0.3824687199    -0.7358083636
    6      F      -0.3779953628     1.1979491970     1.5684928287
    7      F       1.7374773126     1.3368868332     1.9847458446
    8      S      -1.3606196835    -0.3344113406    -1.4575558477
    9      C      -2.2637986796     1.2499413845    -1.8641256098
   10      O      -1.5424887503    -1.1579054368    -2.6380147289
   11      O      -1.9450716722    -0.7874305265    -0.2077642729
   12      F      -1.8103172698     1.7896916631    -2.9899493011
   13      F      -3.5605846432     0.9809028011    -2.0171609969
   14      F      -2.1308952577     2.1364186057    -0.8817837134
 ----------------------------------------------------------------
 Nuclear Repulsion Energy =  1406.4622198128 hartrees
 There are       65 alpha and       64 beta electrons
 Requested basis set is 6-311++G(d)
 There are 98 shells and 324 basis functions

 Total QAlloc Memory Limit  96000 MB
 Mega-Array Size       188 MB
 MEM_STATIC part       192 MB
 Discretize the solute cavity surface with Lebedev spheres
	Using 194 Lebedev grid points for each H atom
	Using 194 Lebedev grid points for other atoms
	Atomic van der Waals radii will be scaled by 1.10
 Remove points where switching function is < 1.0e-08
 Keep 1259 surface tesserae and discard 1457 interior tesserae
 Molecular Surface Area = 222.289 Angst**2
 A cutoff of  1.0D-12 yielded   3775 shell pairs
 There are     43471 function pairs (     46988 Cartesian)
 
 -------------------------------------------------------
 OpenMP Integral Computing Module                       
 Release: version 1.0, May 2013, Q-Chem Inc. Pittsburgh 
 -------------------------------------------------------
 Integral Job Info:
 Integral job number is                      11
 Integral operator is                         1
 short-range coefficients              22203600
 long-range coefficients              100000000
 Omega coefficients                         200
 if combine SR and LR in K                    1
 Integral screening is                        0
 Integral computing path is                   2
 max size of driver memory is            800000
 size of driver memory is                593474
 size of scratch memory is              4293864
 max col of scratch BK array               1296
 max len of scratch array in speh3          155
 max len of scratch index in speh4           18
 max int batch size is                      520
 min int batch size is                       52
 fixed nKL is                                52
 max L of basis functions is                  2
 order of int derivative is                   0
 number of shells is                         98
 number of basis is                         338
 number of cartesian basis is               338
 number of contracted shell pairs          3775
 number of primitive shell pairs          10082
 maxK2 (contraction) of shell pair           36
 max number of K2 of shell pair               1
 max number of CS2 of shell pair            742
 max number of PS2 of shell pair           2526
 mem total for path MDJ                  603116
 -------------------------------------------------------
 Smallest overlap matrix eigenvalue = 4.88E-05

 Scale SEOQF with 1.000000e-01/1.000000e-01/1.000000e-01

 Standard Electronic Orientation quadrupole field applied
 Nucleus-field energy     =    -0.0000000083 hartrees
 Guess from superposition of atomic densities
 Warning:  Energy on first SCF cycle will be non-variational
 SAD guess density has 128.000000 electrons

 -----------------------------------------------------------------------
  General SCF calculation program by
  Eric Jon Sundstrom, Paul Horn, Yuezhi Mao, Dmitri Zuev, Alec White,
  David Stuck, Shaama M.S., Shane Yost, Joonho Lee, David Small,
  Daniel Levine, Susi Lehtola, Hugh Burton, Evgeny Epifanovsky
 -----------------------------------------------------------------------
 Exchange:     0.2220 Hartree-Fock + 1.0000 wB97X-D + LR-HF
 Correlation:  1.0000 wB97X-D
 Using SG-3 standard quadrature grid
 Dispersion:   Grimme D
 using 32 threads for integral computing
 -------------------------------------------------------
 OpenMP Integral computing Module                
 Release: version 1.0, May 2013, Q-Chem Inc. Pittsburgh 
 -------------------------------------------------------
 using 32 threads for integral computing
 -------------------------------------------------------
 OpenMP Integral computing Module                
 Release: version 1.0, May 2013, Q-Chem Inc. Pittsburgh 
 -------------------------------------------------------
 -------------------------------------------------------
 OpenMP BLAS3 based DFT computing Module                
 Release: version 1.0, May 2013, Q-Chem Inc. Pittsburgh 
 -------------------------------------------------------
 A unrestricted SCF calculation will be
 performed using Roothaan-Hall, GDM
 SCF converges when RMS gradient is below 1.0e-08
 ---------------------------------------
  Cycle       Energy         DIIS error
 ---------------------------------------
    1   -1730.7257631754      1.92e-02  Roothaan Step
 ---------------------------------------
  Cycle       Energy        RMS Gradient
 ---------------------------------------
    1   -1726.7091064084      1.96e-01   Descent step
    2   -1727.1520994775      6.60e-02   Descent step
    3   -1727.3280773592      2.02e-02   Normal BFGS step
    4   -1727.3459805765      1.11e-02   Normal BFGS step
    5   -1727.3474989694      8.27e-03   Normal BFGS step
    6   -1727.3490565421      4.37e-03   Normal BFGS step
    7   -1727.3491497069      1.88e-03   Normal BFGS step
    8   -1727.3491828423      4.06e-04   Normal BFGS step
    9   -1727.3491870413      3.29e-04   Normal BFGS step
   10   -1727.3491900274      1.93e-04   Normal BFGS step
   11   -1727.3491901716      8.45e-05   Normal BFGS step
   12   -1727.3491902941      1.88e-05   Normal BFGS step
   13   -1727.3491903004      8.28e-06   Normal BFGS step
   14   -1727.3491903029      2.43e-06   Normal BFGS step
   15   -1727.3491903031      1.57e-06   Normal BFGS step
   16   -1727.3491903031      4.02e-07   Normal BFGS step
   17   -1727.3491903031      2.32e-07   Normal BFGS step
   18   -1727.3491903031      1.39e-07   Normal BFGS step
   19   -1727.3491903031      5.25e-08   Normal BFGS step
   20   -1727.3491903032      1.67e-08   Normal BFGS step
   21   -1727.3491903031      7.40e-09  Convergence criterion met
 ---------------------------------------
 SCF time:   CPU 1656.85s  wall 90.00s 
<S^2> =          0.753102613

************** Final PCM Free Energy Summary **************
 G_electrostatic  =      -0.05096187 hartree =     -31.97905539 kcal/mol
 G_cavitation     =       0.00000000 hartree =       0.00000000 kcal/mol
 G_dispersion     =       0.00000000 hartree =       0.00000000 kcal/mol
 G_repulsion      =       0.00000000 hartree =       0.00000000 kcal/mol
 --------------------------------------------------
 Non-electrostatic Free Energy =       0.00000000 hartree =       0.00000000 kcal/mol
 Total                         =      -0.05096187 hartree =     -31.97905539 kcal/mol
 --------------------------------------------------
 SCF Energy (H0 + V/2)                       =   -1727.34919030 
 Solute Internal Energy (H0)                 =   -1727.29822843 
 Total Free Energy (H0 + V/2 + non-elec)     =   -1727.34919030 hartree
                                             = -1083927.97663940 kcal/mol
***********************************************************

 SCF   energy in the final basis set =    -1727.3491903031
 Total energy in the final basis set =    -1727.3491903031
 
 --------------------------------------------------------------
 
                    Orbital Energies (a.u.)
 --------------------------------------------------------------
 
 Alpha MOs
 -- Occupied --
-89.209 -89.207 -24.832 -24.831 -24.831 -24.829 -24.829 -19.218
-19.217 -19.215 -19.211 -14.405 -10.531 -10.452  -8.231  -8.228
 -6.180  -6.179  -6.179  -6.177  -6.176  -6.176  -1.422  -1.384
 -1.330  -1.329  -1.320  -1.213  -1.197  -1.090  -1.087  -0.992
 -0.836  -0.805  -0.760  -0.705  -0.683  -0.683  -0.665  -0.651
 -0.611  -0.599  -0.571  -0.557  -0.553  -0.541  -0.537  -0.532
 -0.525  -0.519  -0.515  -0.512  -0.502  -0.493  -0.460  -0.415
 -0.409  -0.406  -0.387  -0.382  -0.374  -0.365  -0.339  -0.331
 -0.302
 -- Virtual --
  0.104   0.112   0.120   0.128   0.139   0.141   0.146   0.147
  0.154   0.156   0.160   0.173   0.178   0.183   0.185   0.188
  0.198   0.200   0.212   0.216   0.234   0.239   0.255   0.263
  0.289   0.296   0.303   0.310   0.323   0.328   0.330   0.338
  0.346   0.348   0.353   0.356   0.362   0.369   0.372   0.377
  0.388   0.393   0.401   0.409   0.414   0.415   0.417   0.422
  0.427   0.433   0.436   0.446   0.451   0.460   0.462   0.470
  0.473   0.479   0.484   0.499   0.507   0.510   0.513   0.538
  0.540   0.550   0.562   0.569   0.591   0.599   0.603   0.620
  0.636   0.658   0.667   0.684   0.710   0.726   0.753   0.786
  0.823   0.859   0.905   0.926   0.929   0.952   0.959   1.008
  1.049   1.058   1.084   1.125   1.136   1.160   1.167   1.184
  1.198   1.212   1.242   1.249   1.252   1.260   1.270   1.277
  1.291   1.300   1.310   1.316   1.321   1.332   1.348   1.358
  1.371   1.412   1.425   1.449   1.481   1.502   1.506   1.522
  1.535   1.544   1.557   1.583   1.584   1.594   1.600   1.608
  1.624   1.641   1.662   1.731   1.753   1.776   1.820   1.841
  1.853   1.921   1.930   1.943   1.992   2.008   2.022   2.038
  2.050   2.074   2.079   2.095   2.145   2.190   2.239   2.295
  2.336   2.358   2.693   2.751   2.820   2.894   2.919   2.935
  2.943   2.955   2.963   2.968   2.980   2.984   3.016   3.043
  3.051   3.064   3.072   3.121   3.141   3.162   3.201   3.233
  3.278   3.288   3.599   3.608   3.729   3.740   3.810   3.848
  3.852   3.856   3.858   3.863   3.875   3.879   3.881   3.897
  3.909   3.913   3.971   3.986   4.063   4.098   4.112   4.165
  4.232   4.287   4.305   4.308   4.379   4.490   4.620   5.013
  5.041   5.042   5.152   5.160   5.170   5.196   5.213   5.220
  5.230   5.256   5.291   5.311   5.449   5.468   6.410   6.412
  6.433   6.455   6.466   6.484   6.490   6.507   6.524   6.533
  6.578   6.579   6.888   6.890   6.899   8.287   8.324  17.505
 17.531  17.565  17.610  17.663  17.684  23.630  23.647  35.603
 50.035  50.043  50.083  50.086  66.908  66.919  66.926  66.937
 66.971 189.515 189.553
 
 Beta MOs
 -- Occupied --
-89.209 -89.206 -24.832 -24.831 -24.831 -24.826 -24.826 -19.217
-19.216 -19.215 -19.210 -14.405 -10.531 -10.440  -8.231  -8.228
 -6.180  -6.179  -6.179  -6.176  -6.176  -6.175  -1.422  -1.375
 -1.330  -1.329  -1.313  -1.212  -1.196  -1.089  -1.085  -0.991
 -0.833  -0.792  -0.754  -0.702  -0.683  -0.682  -0.658  -0.643
 -0.598  -0.579  -0.568  -0.557  -0.553  -0.539  -0.534  -0.523
 -0.521  -0.516  -0.513  -0.508  -0.498  -0.493  -0.459  -0.413
 -0.407  -0.391  -0.382  -0.379  -0.372  -0.361  -0.338  -0.326
 -- Virtual --
 -0.009   0.106   0.114   0.121   0.129   0.141   0.143   0.147
  0.149   0.157   0.158   0.162   0.175   0.180   0.183   0.187
  0.189   0.200   0.210   0.218   0.220   0.239   0.240   0.259
  0.267   0.291   0.299   0.310   0.313   0.323   0.328   0.332
  0.340   0.348   0.349   0.354   0.358   0.366   0.371   0.373
  0.379   0.389   0.394   0.401   0.410   0.414   0.415   0.417
  0.423   0.427   0.433   0.437   0.447   0.452   0.461   0.464
  0.470   0.474   0.480   0.486   0.500   0.507   0.512   0.513
  0.539   0.540   0.550   0.563   0.569   0.592   0.599   0.603
  0.620   0.637   0.658   0.669   0.685   0.717   0.733   0.757
  0.795   0.824   0.870   0.908   0.928   0.932   0.953   0.962
  1.009   1.055   1.060   1.084   1.127   1.138   1.160   1.168
  1.185   1.199   1.212   1.244   1.251   1.254   1.261   1.271
  1.278   1.293   1.300   1.314   1.319   1.322   1.336   1.351
  1.365   1.372   1.414   1.433   1.455   1.484   1.503   1.508
  1.523   1.536   1.547   1.560   1.583   1.586   1.600   1.609
  1.614   1.626   1.663   1.677   1.735   1.754   1.777   1.822
  1.854   1.864   1.924   1.933   1.954   1.993   2.011   2.028
  2.040   2.053   2.077   2.080   2.100   2.150   2.195   2.240
  2.295   2.337   2.360   2.694   2.755   2.865   2.895   2.925
  2.936   2.944   2.957   2.967   2.971   2.982   2.985   3.019
  3.046   3.056   3.067   3.074   3.131   3.145   3.167   3.201
  3.238   3.279   3.291   3.599   3.610   3.730   3.741   3.810
  3.848   3.852   3.859   3.863   3.870   3.878   3.880   3.885
  3.905   3.912   3.915   3.971   3.986   4.071   4.101   4.123
  4.166   4.232   4.291   4.305   4.308   4.380   4.490   4.627
  5.019   5.041   5.042   5.154   5.160   5.171   5.196   5.214
  5.221   5.232   5.257   5.293   5.311   5.450   5.469   6.412
  6.417   6.443   6.456   6.470   6.484   6.493   6.507   6.524
  6.533   6.579   6.581   6.889   6.891   6.903   8.288   8.324
 17.506  17.531  17.565  17.611  17.663  17.684  23.631  23.669
 35.603  50.036  50.043  50.084  50.086  66.910  66.919  66.926
 66.938  66.971 189.516 189.553
 --------------------------------------------------------------
 
          Ground-State Mulliken Net Atomic Charges

     Atom                 Charge (a.u.)    Spin (a.u.)
  --------------------------------------------------------
      1 S                     0.575798       0.021890
      2 C                    -0.171971       0.791303
      3 N                    -0.731958       0.011887
      4 O                    -0.172773       0.063950
      5 O                    -0.224219       0.010254
      6 F                    -0.021925       0.050060
      7 F                    -0.066121       0.046614
      8 S                     0.329754      -0.000146
      9 C                    -0.001508       0.003656
     10 O                    -0.124048      -0.000026
     11 O                    -0.188395       0.000550
     12 F                    -0.053271       0.000203
     13 F                    -0.083844      -0.000034
     14 F                    -0.065519      -0.000163
  --------------------------------------------------------
  Sum of atomic charges =    -1.000000
  Sum of spin   charges =     1.000000

 -----------------------------------------------------------------
                    Cartesian Multipole Moments
 -----------------------------------------------------------------
    Charge (ESU x 10^10)
                -4.8032
    Dipole Moment (Debye)
         X      -0.2855      Y       2.8531      Z       4.2146
       Tot       5.0975
    Quadrupole Moments (Debye-Ang)
        XX    -114.0868     XY      -4.1078     YY     -98.8398
        XZ      -3.5312     YZ      -1.4426     ZZ    -109.3415
    Octopole Moments (Debye-Ang^2)
       XXX     112.9393    XXY     -31.7697    XYY      45.3188
       YYY     -94.8689    XXZ      82.6100    XYZ       8.7438
       YYZ      71.6248    XZZ      53.1699    YZZ     -26.1726
       ZZZ     234.2203
    Hexadecapole Moments (Debye-Ang^3)
      XXXX   -1870.8406   XXXY      77.4603   XXYY    -422.9441
      XYYY     100.3564   YYYY    -705.3798   XXXZ    -477.9482
      XXYZ       5.9696   XYYZ    -171.7195   YYYZ      34.6604
      XXZZ    -560.5910   XYZZ      10.9767   YYZZ    -371.0844
      XZZZ    -526.6815   YZZZ       2.7070   ZZZZ   -1485.4348
 -----------------------------------------------------------------
 Calculating analytic gradient of the SCF energy
 Gradient of SCF Energy
            1           2           3           4           5           6
    1  -0.0015549  -0.0012880  -0.0004643   0.0057634  -0.0232223   0.0077146
    2  -0.0040465   0.0032973  -0.0266766   0.0230089  -0.0096386  -0.0013604
    3   0.0060376   0.0052442   0.0130774  -0.0218376   0.0113566  -0.0034567
            7           8           9          10          11          12
    1  -0.0061901   0.0074161  -0.0096582  -0.0010392   0.0139417  -0.0047357
    2  -0.0024834   0.0035340   0.0058565   0.0120566   0.0069302  -0.0048823
    3  -0.0056959  -0.0106061  -0.0016864   0.0248465  -0.0200995   0.0123822
           13          14
    1   0.0130436   0.0002735
    2   0.0036828  -0.0092785
    3   0.0016528  -0.0112152
 Max gradient component =       2.668E-02
 RMS gradient           =       1.118E-02
 Computing fast CPCM-SWIG gradient
 Updating gradient with PCM contributions...
 -- total gradient after adding PCM contribution --
---------------------------------------------------
  Atom         X              Y              Z     
---------------------------------------------------
   1      -0.000136      -0.014414      -0.000746
   2       0.000596       0.020136      -0.006807
   3       0.001863       0.001394       0.001120
   4      -0.000004       0.004856      -0.000285
   5      -0.000813       0.001808       0.000598
   6      -0.002167      -0.006922       0.002571
   7       0.001709      -0.006674       0.003369
   8      -0.001977      -0.000665      -0.000184
   9      -0.000243       0.000565      -0.000208
  10       0.000568       0.000266       0.000378
  11       0.000339       0.000256      -0.000127
  12       0.000031      -0.000174       0.000201
  13       0.000200      -0.000134       0.000077
  14       0.000035      -0.000296       0.000046
---------------------------------------------------
 Number of fixed atoms: 0
 Gradient time:  CPU 147.20 s  wall 13.48 s
 Geometry Optimization Parameters
   NAtoms,    NIC,     NZ,  NCons,   NDum,   NFix, NCnnct, MaxDiis
       14      84       0       0       0       0       0       0


** GEOMETRY OPTIMIZATION IN DELOCALIZED INTERNAL COORDINATES **
   Searching for a Minimum

   Optimization Cycle:   1

                       Coordinates (Angstroms)
     ATOM                X               Y               Z
      1  S         1.1860297014    0.0188677542   -0.2282900730
      2  C         0.8192437489    1.3654601928    1.0182726166
      3  N         0.1241201746    0.2461530897   -1.3852138881
      4  O         1.0435339757   -1.2172053788    0.5185674957
      5  O         2.4943895637    0.3824687199   -0.7358083636
      6  F        -0.3779953628    1.1979491970    1.5684928287
      7  F         1.7374773126    1.3368868332    1.9847458446
      8  S        -1.3606196835   -0.3344113406   -1.4575558477
      9  C        -2.2637986796    1.2499413845   -1.8641256098
     10  O        -1.5424887503   -1.1579054368   -2.6380147289
     11  O        -1.9450716722   -0.7874305265   -0.2077642729
     12  F        -1.8103172698    1.7896916631   -2.9899493011
     13  F        -3.5605846432    0.9809028011   -2.0171609969
     14  F        -2.1308952577    2.1364186057   -0.8817837134
   Point Group: c1    Number of degrees of freedom:    36


   Energy is  -1727.349190303


 Attempting to Generate Delocalized Internal Coordinates

 36 Hessian modes will be used to form the next step
  Hessian Eigenvalues:
     0.002000    0.002000    0.019344    0.020547    0.056512    0.083473
     0.087701    0.100074    0.105954    0.112284    0.123705    0.138827
     0.154845    0.196497    0.207661    0.212184    0.213879    0.250000
     0.250000    0.250000    0.250000    0.250000    0.250000    0.250000
     0.250000    0.520284    0.538672    0.587025    0.587533    0.595411
     0.599023    0.599267    0.949782    0.954061    0.956013    0.960803

 Minimum Search - Taking Simple RFO Step
 Searching for Lamda that Minimizes Along All modes
 Value Taken    Lamda =  -0.00373057
 Step Taken.  Stepsize is  0.229076

                             Maximum     Tolerance    Cnvgd?
         Gradient           0.009853      0.000300      NO
         Displacement       0.090125      0.001200      NO
         Energy change     *********      0.000001      NO


 New Cartesian Coordinates Obtained by Inverse Iteration

 Displacement from previous Coordinates is:  0.258483
 ----------------------------------------------------------------
             Standard Nuclear Orientation (Angstroms)
    I     Atom           X                Y                Z
 ----------------------------------------------------------------
    1      S       1.1831163365     0.0046597303    -0.2230961224
    2      C       0.8152086370     1.3201326285     1.0410989129
    3      N       0.1239006770     0.2428098746    -1.3820549649
    4      O       1.0414733769    -1.2572791090     0.4842190528
    5      O       2.4936081395     0.3620629344    -0.7302904886
    6      F      -0.3918379331     1.2543148105     1.5831229917
    7      F       1.7524685376     1.4206394726     1.9794533990
    8      S      -1.3583257125    -0.3397814762    -1.4665220890
    9      C      -2.2616769454     1.2484926567    -1.8579951762
   10      O      -1.5401096523    -1.1485951133    -2.6574527223
   11      O      -1.9481360686    -0.8080246607    -0.2246678626
   12      F      -1.8104890611     1.7976784565    -2.9804006343
   13      F      -3.5592130315     0.9824817988    -2.0113738502
   14      F      -2.1269641421     2.1281955548    -0.8696284556
 ----------------------------------------------------------------
 Nuclear Repulsion Energy =  1403.5050618042 hartrees
 There are       65 alpha and       64 beta electrons
 Discretize the solute cavity surface with Lebedev spheres
	Using 194 Lebedev grid points for each H atom
	Using 194 Lebedev grid points for other atoms
	Atomic van der Waals radii will be scaled by 1.10
 Remove points where switching function is < 1.0e-08
 Keep 1267 surface tesserae and discard 1449 interior tesserae
 Molecular Surface Area = 222.904 Angst**2
 Applying Cartesian multipole field
    Component          Value
    ---------          -----
     (2,0,0)        1.00000E-11
     (0,2,0)        2.00000E-11
     (0,0,2)       -3.00000E-11
 Nucleus-field energy     =    -0.0000000081 hartrees
 Requested basis set is 6-311++G(d)
 There are 98 shells and 324 basis functions
 A cutoff of  1.0D-12 yielded   3770 shell pairs
 There are     43422 function pairs (     46934 Cartesian)
 Smallest overlap matrix eigenvalue = 4.96E-05
 Guess MOs from SCF MO coefficient file
 Reading MOs from coefficient file
 Reading MOs from coefficient file

 -----------------------------------------------------------------------
  General SCF calculation program by
  Eric Jon Sundstrom, Paul Horn, Yuezhi Mao, Dmitri Zuev, Alec White,
  David Stuck, Shaama M.S., Shane Yost, Joonho Lee, David Small,
  Daniel Levine, Susi Lehtola, Hugh Burton, Evgeny Epifanovsky
 -----------------------------------------------------------------------
 Exchange:     0.2220 Hartree-Fock + 1.0000 wB97X-D + LR-HF
 Correlation:  1.0000 wB97X-D
 Using SG-3 standard quadrature grid
 Dispersion:   Grimme D
 using 32 threads for integral computing
 -------------------------------------------------------
 OpenMP Integral computing Module                
 Release: version 1.0, May 2013, Q-Chem Inc. Pittsburgh 
 -------------------------------------------------------
 using 32 threads for integral computing
 -------------------------------------------------------
 OpenMP Integral computing Module                
 Release: version 1.0, May 2013, Q-Chem Inc. Pittsburgh 
 -------------------------------------------------------
 -------------------------------------------------------
 OpenMP BLAS3 based DFT computing Module                
 Release: version 1.0, May 2013, Q-Chem Inc. Pittsburgh 
 -------------------------------------------------------
 A unrestricted SCF calculation will be
 performed using Roothaan-Hall, GDM
 SCF converges when RMS gradient is below 1.0e-08
 ---------------------------------------
  Cycle       Energy         DIIS error
 ---------------------------------------
    1   -1715.7052180558      3.67e-04  Roothaan Step
 ---------------------------------------
  Cycle       Energy        RMS Gradient
 ---------------------------------------
    1   -1727.3489406818      1.21e-02   Normal BFGS step
    2   -1727.3502533755      2.92e-03   Normal BFGS step
    3   -1727.3505721043      1.59e-03   Normal BFGS step
    4   -1727.3506592046      1.10e-03   Normal BFGS step
    5   -1727.3506732675      5.99e-04   Normal BFGS step
    6   -1727.3506793406      2.38e-04   Normal BFGS step
    7   -1727.3506800001      1.52e-04   Normal BFGS step
    8   -1727.3506802439      4.94e-05   Normal BFGS step
    9   -1727.3506802586      1.73e-05   Normal BFGS step
   10   -1727.3506802728      9.13e-06   Normal BFGS step
   11   -1727.3506802735      5.04e-06   Normal BFGS step
   12   -1727.3506802740      7.68e-07   Normal BFGS step
   13   -1727.3506802740      3.05e-07   Normal BFGS step
   14   -1727.3506802740      1.77e-07   Normal BFGS step
   15   -1727.3506802740      1.16e-07   Normal BFGS step
   16   -1727.3506802740      4.29e-08   Normal BFGS step
   17   -1727.3506802740      1.95e-08   Normal BFGS step
   18   -1727.3506802740      6.31e-09  Convergence criterion met
 ---------------------------------------
 SCF time:   CPU 1454.48s  wall 82.00s 
<S^2> =          0.753281936

************** Final PCM Free Energy Summary **************
 G_electrostatic  =      -0.05095304 hartree =     -31.97351758 kcal/mol
 G_cavitation     =       0.00000000 hartree =       0.00000000 kcal/mol
 G_dispersion     =       0.00000000 hartree =       0.00000000 kcal/mol
 G_repulsion      =       0.00000000 hartree =       0.00000000 kcal/mol
 --------------------------------------------------
 Non-electrostatic Free Energy =       0.00000000 hartree =       0.00000000 kcal/mol
 Total                         =      -0.05095304 hartree =     -31.97351758 kcal/mol
 --------------------------------------------------
 SCF Energy (H0 + V/2)                       =   -1727.35068027 
 Solute Internal Energy (H0)                 =   -1727.29972723 
 Total Free Energy (H0 + V/2 + non-elec)     =   -1727.35068027 hartree
                                             = -1083928.91161023 kcal/mol
***********************************************************

 SCF   energy in the final basis set =    -1727.3506802740
 Total energy in the final basis set =    -1727.3506802740
 
 --------------------------------------------------------------
 
                    Orbital Energies (a.u.)
 --------------------------------------------------------------
 
 Alpha MOs
 -- Occupied --
-89.209 -89.209 -24.833 -24.833 -24.831 -24.831 -24.830 -19.217
-19.215 -19.215 -19.212 -14.405 -10.531 -10.451  -8.231  -8.230
 -6.180  -6.179  -6.179  -6.178  -6.178  -6.177  -1.422  -1.385
 -1.329  -1.328  -1.325  -1.213  -1.196  -1.089  -1.086  -0.992
 -0.836  -0.806  -0.761  -0.706  -0.683  -0.682  -0.666  -0.655
 -0.613  -0.599  -0.571  -0.557  -0.553  -0.541  -0.539  -0.534
 -0.526  -0.519  -0.515  -0.513  -0.506  -0.493  -0.460  -0.415
 -0.408  -0.405  -0.386  -0.383  -0.374  -0.364  -0.339  -0.330
 -0.294
 -- Virtual --
  0.103   0.111   0.119   0.128   0.139   0.141   0.146   0.148
  0.151   0.156   0.160   0.172   0.177   0.183   0.185   0.188
  0.199   0.199   0.213   0.215   0.234   0.239   0.256   0.262
  0.289   0.296   0.309   0.310   0.323   0.328   0.330   0.338
  0.345   0.347   0.352   0.357   0.362   0.370   0.371   0.376
  0.388   0.392   0.400   0.410   0.414   0.415   0.417   0.422
  0.425   0.432   0.436   0.446   0.449   0.459   0.460   0.470
  0.474   0.480   0.484   0.498   0.503   0.507   0.516   0.536
  0.537   0.550   0.562   0.568   0.589   0.598   0.604   0.619
  0.633   0.657   0.665   0.684   0.710   0.724   0.750   0.792
  0.825   0.861   0.918   0.929   0.932   0.953   0.962   1.008
  1.035   1.057   1.084   1.120   1.133   1.157   1.166   1.185
  1.197   1.213   1.240   1.249   1.251   1.256   1.270   1.277
  1.293   1.299   1.308   1.312   1.320   1.330   1.349   1.364
  1.371   1.408   1.417   1.457   1.489   1.500   1.508   1.519
  1.537   1.543   1.555   1.584   1.585   1.589   1.597   1.609
  1.625   1.660   1.673   1.732   1.751   1.776   1.819   1.832
  1.854   1.918   1.920   1.935   1.991   2.006   2.024   2.030
  2.047   2.073   2.079   2.098   2.137   2.166   2.238   2.295
  2.337   2.359   2.693   2.747   2.811   2.893   2.922   2.935
  2.942   2.953   2.963   2.967   2.978   2.984   3.015   3.042
  3.056   3.067   3.072   3.129   3.145   3.168   3.202   3.234
  3.279   3.291   3.598   3.606   3.729   3.741   3.811   3.848
  3.851   3.852   3.858   3.861   3.873   3.879   3.881   3.888
  3.912   3.916   3.971   3.986   4.074   4.098   4.099   4.162
  4.233   4.291   4.305   4.308   4.379   4.491   4.613   5.015
  5.042   5.043   5.153   5.160   5.168   5.193   5.212   5.218
  5.225   5.256   5.291   5.311   5.448   5.468   6.413   6.413
  6.419   6.454   6.462   6.484   6.487   6.507   6.524   6.533
  6.563   6.574   6.889   6.893   6.914   8.283   8.321  17.499
 17.530  17.562  17.611  17.657  17.680  23.630  23.648  35.600
 50.036  50.042  50.084  50.086  66.905  66.916  66.926  66.930
 66.972 189.511 189.550
 
 Beta MOs
 -- Occupied --
-89.209 -89.208 -24.831 -24.831 -24.830 -24.830 -24.830 -19.217
-19.215 -19.213 -19.212 -14.405 -10.531 -10.438  -8.231  -8.229
 -6.180  -6.179  -6.179  -6.178  -6.177  -6.177  -1.421  -1.376
 -1.329  -1.328  -1.318  -1.212  -1.195  -1.089  -1.084  -0.991
 -0.833  -0.794  -0.754  -0.703  -0.682  -0.681  -0.661  -0.647
 -0.598  -0.580  -0.568  -0.557  -0.553  -0.539  -0.536  -0.525
 -0.521  -0.516  -0.513  -0.510  -0.503  -0.493  -0.459  -0.413
 -0.406  -0.391  -0.382  -0.380  -0.372  -0.361  -0.338  -0.327
 -- Virtual --
  0.004   0.105   0.112   0.120   0.129   0.141   0.142   0.147
  0.150   0.154   0.158   0.161   0.174   0.180   0.183   0.187
  0.189   0.199   0.207   0.216   0.220   0.239   0.241   0.259
  0.268   0.291   0.300   0.310   0.316   0.324   0.328   0.332
  0.340   0.347   0.348   0.353   0.359   0.366   0.372   0.373
  0.378   0.389   0.393   0.401   0.410   0.414   0.416   0.417
  0.423   0.425   0.432   0.437   0.447   0.450   0.460   0.462
  0.470   0.474   0.480   0.486   0.499   0.504   0.508   0.516
  0.536   0.538   0.551   0.562   0.568   0.590   0.599   0.604
  0.619   0.635   0.657   0.667   0.686   0.715   0.731   0.755
  0.802   0.827   0.871   0.920   0.933   0.933   0.954   0.965
  1.010   1.042   1.058   1.085   1.123   1.134   1.157   1.167
  1.185   1.199   1.213   1.242   1.251   1.254   1.257   1.270
  1.278   1.296   1.300   1.311   1.315   1.320   1.333   1.352
  1.371   1.378   1.412   1.422   1.462   1.492   1.501   1.509
  1.520   1.538   1.545   1.558   1.584   1.587   1.596   1.609
  1.613   1.626   1.668   1.698   1.739   1.755   1.777   1.821
  1.852   1.857   1.921   1.933   1.937   1.991   2.009   2.028
  2.032   2.049   2.077   2.081   2.102   2.141   2.171   2.239
  2.295   2.338   2.360   2.693   2.752   2.859   2.894   2.927
  2.936   2.944   2.955   2.966   2.969   2.980   2.984   3.019
  3.046   3.059   3.070   3.075   3.137   3.147   3.176   3.203
  3.239   3.280   3.295   3.598   3.608   3.731   3.742   3.811
  3.848   3.852   3.859   3.860   3.867   3.878   3.880   3.883
  3.895   3.913   3.919   3.971   3.986   4.082   4.102   4.110
  4.163   4.233   4.296   4.305   4.308   4.379   4.491   4.621
  5.021   5.042   5.043   5.155   5.160   5.169   5.193   5.213
  5.219   5.227   5.256   5.293   5.311   5.449   5.469   6.413
  6.421   6.430   6.455   6.466   6.484   6.489   6.507   6.524
  6.533   6.566   6.575   6.889   6.893   6.920   8.284   8.322
 17.500  17.530  17.562  17.611  17.657  17.680  23.631  23.672
 35.600  50.037  50.043  50.084  50.086  66.907  66.917  66.927
 66.931  66.972 189.511 189.551
 --------------------------------------------------------------
 
          Ground-State Mulliken Net Atomic Charges

     Atom                 Charge (a.u.)    Spin (a.u.)
  --------------------------------------------------------
      1 S                     0.598666       0.016874
      2 C                    -0.226827       0.819122
      3 N                    -0.717714       0.005868
      4 O                    -0.169971       0.061293
      5 O                    -0.221427       0.006079
      6 F                    -0.009798       0.046441
      7 F                    -0.056237       0.042915
      8 S                     0.325124      -0.002896
      9 C                     0.002321       0.004677
     10 O                    -0.128351      -0.000743
     11 O                    -0.190359       0.000264
     12 F                    -0.054572       0.000214
     13 F                    -0.084238      -0.000061
     14 F                    -0.066617      -0.000045
  --------------------------------------------------------
  Sum of atomic charges =    -1.000000
  Sum of spin   charges =     1.000000

 -----------------------------------------------------------------
                    Cartesian Multipole Moments
 -----------------------------------------------------------------
    Charge (ESU x 10^10)
                -4.8032
    Dipole Moment (Debye)
         X      -0.2512      Y       2.8855      Z       4.4144
       Tot       5.2797
    Quadrupole Moments (Debye-Ang)
        XX    -114.1083     XY      -3.9889     YY     -99.4969
        XZ      -3.5217     YZ      -1.5731     ZZ    -109.0958
    Octopole Moments (Debye-Ang^2)
       XXX     113.5130    XXY     -31.2763    XYY      44.8402
       YYY     -94.1358    XXZ      82.9689    XYZ       8.4054
       YYZ      71.1511    XZZ      53.8975    YZZ     -26.0971
       ZZZ     235.6477
    Hexadecapole Moments (Debye-Ang^3)
      XXXX   -1869.9675   XXXY      78.2636   XXYY    -425.4310
      XYYY     100.7515   YYYY    -717.0505   XXXZ    -478.7430
      XXYZ       3.9330   XYYZ    -172.2793   YYYZ      28.4340
      XXZZ    -560.6161   XYZZ      11.1606   YYZZ    -373.9044
      XZZZ    -527.2511   YZZZ      -3.3349   ZZZZ   -1488.8136
 -----------------------------------------------------------------
 Calculating analytic gradient of the SCF energy
 Gradient of SCF Energy
            1           2           3           4           5           6
    1  -0.0014333  -0.0026082  -0.0019068   0.0066835  -0.0224045   0.0045845
    2   0.0021850  -0.0086937  -0.0279998   0.0215592  -0.0118849   0.0041486
    3   0.0022800   0.0154040   0.0113978  -0.0220414   0.0092489  -0.0050056
            7           8           9          10          11          12
    1  -0.0031797   0.0094297  -0.0097857  -0.0017650   0.0138601  -0.0048264
    2   0.0032474   0.0032269   0.0053934   0.0116175   0.0072967  -0.0048877
    3  -0.0063001  -0.0102157  -0.0018725   0.0246014  -0.0201273   0.0124142
           13          14
    1   0.0130555   0.0002964
    2   0.0037928  -0.0090015
    3   0.0016133  -0.0113969
 Max gradient component =       2.800E-02
 RMS gradient           =       1.136E-02
 Computing fast CPCM-SWIG gradient
 Updating gradient with PCM contributions...
 -- total gradient after adding PCM contribution --
---------------------------------------------------
  Atom         X              Y              Z     
---------------------------------------------------
   1       0.000798      -0.004417      -0.004992
   2      -0.001243       0.001683       0.004768
   3       0.000645      -0.000538      -0.000237
   4       0.000123       0.003573      -0.000788
   5       0.000858      -0.001527      -0.001471
   6      -0.006078       0.000802       0.000499
   7       0.005492       0.001405       0.002729
   8      -0.000357      -0.001167      -0.000105
   9       0.000044       0.000193      -0.000092
  10      -0.000336       0.000017      -0.000014
  11      -0.000033       0.000075      -0.000517
  12      -0.000121      -0.000046       0.000242
  13       0.000212       0.000011       0.000019
  14      -0.000004      -0.000064      -0.000041
---------------------------------------------------
 Number of fixed atoms: 0
 Gradient time:  CPU 146.45 s  wall 12.81 s
 Geometry Optimization Parameters
   NAtoms,    NIC,     NZ,  NCons,   NDum,   NFix, NCnnct, MaxDiis
       14      84       0       0       0       0       0       0

 Cartesian Hessian Update
 Hessian Updated using BFGS Update


** GEOMETRY OPTIMIZATION IN DELOCALIZED INTERNAL COORDINATES **
   Searching for a Minimum

   Optimization Cycle:   2

                       Coordinates (Angstroms)
     ATOM                X               Y               Z
      1  S         1.1831163365    0.0046597303   -0.2230961224
      2  C         0.8152086370    1.3201326285    1.0410989129
      3  N         0.1239006770    0.2428098746   -1.3820549649
      4  O         1.0414733769   -1.2572791090    0.4842190528
      5  O         2.4936081395    0.3620629344   -0.7302904886
      6  F        -0.3918379331    1.2543148105    1.5831229917
      7  F         1.7524685376    1.4206394726    1.9794533990
      8  S        -1.3583257125   -0.3397814762   -1.4665220890
      9  C        -2.2616769454    1.2484926567   -1.8579951762
     10  O        -1.5401096523   -1.1485951133   -2.6574527223
     11  O        -1.9481360686   -0.8080246607   -0.2246678626
     12  F        -1.8104890611    1.7976784565   -2.9804006343
     13  F        -3.5592130315    0.9824817988   -2.0113738502
     14  F        -2.1269641421    2.1281955548   -0.8696284556
   Point Group: c1    Number of degrees of freedom:    36


   Energy is  -1727.350680274

 Hessian Updated using BFGS Update

 30 Hessian modes will be used to form the next step
  Hessian Eigenvalues:
     0.002000    0.002001    0.019334    0.020384    0.065481    0.083473
     0.087699    0.100094    0.105969    0.112325    0.126506    0.139025
     0.155808    0.196281    0.202225    0.208363    0.213881    0.242079
     0.273439    0.520052    0.538672    0.586412    0.587535    0.595399
     0.597969    0.599030    0.949288    0.950054    0.956055    0.961270

 Minimum Search - Taking Simple RFO Step
 Searching for Lamda that Minimizes Along All modes
 Value Taken    Lamda =  -0.00078166
 Step Taken.  Stepsize is  0.102510

                             Maximum     Tolerance    Cnvgd?
         Gradient           0.006973      0.000300      NO
         Displacement       0.046595      0.001200      NO
         Energy change     -0.001490      0.000001      NO


 New Cartesian Coordinates Obtained by Inverse Iteration

 Displacement from previous Coordinates is:  0.218318
 ----------------------------------------------------------------
             Standard Nuclear Orientation (Angstroms)
    I     Atom           X                Y                Z
 ----------------------------------------------------------------
    1      S       1.1875757255     0.0009040701    -0.2217720524
    2      C       0.7937998692     1.2952774787     1.0257114652
    3      N       0.1270812523     0.2445265234    -1.3784138045
    4      O       1.0633347976    -1.2758709290     0.4664144733
    5      O       2.4938412024     0.3938555566    -0.7121826328
    6      F      -0.3967968853     1.1947726204     1.5859358684
    7      F       1.7270576994     1.4352657485     1.9553586159
    8      S      -1.3576470895    -0.3303596325    -1.4521335160
    9      C      -2.2569000574     1.2556380651    -1.8622641673
   10      O      -1.5446273742    -1.1542081540    -2.6319416943
   11      O      -1.9443944417    -0.7810449060    -0.2020500749
   12      F      -1.8130226683     1.7831678446    -2.9981683039
   13      F      -3.5573586126     0.9941069408    -1.9995282363
   14      F      -2.1089202597     2.1517563316    -0.8905539503
 ----------------------------------------------------------------
 Nuclear Repulsion Energy =  1406.1248683770 hartrees
 There are       65 alpha and       64 beta electrons
 Discretize the solute cavity surface with Lebedev spheres
	Using 194 Lebedev grid points for each H atom
	Using 194 Lebedev grid points for other atoms
	Atomic van der Waals radii will be scaled by 1.10
 Remove points where switching function is < 1.0e-08
 Keep 1266 surface tesserae and discard 1450 interior tesserae
 Molecular Surface Area = 222.379 Angst**2
 Applying Cartesian multipole field
    Component          Value
    ---------          -----
     (2,0,0)        1.00000E-11
     (0,2,0)        2.00000E-11
     (0,0,2)       -3.00000E-11
 Nucleus-field energy     =    -0.0000000079 hartrees
 Requested basis set is 6-311++G(d)
 There are 98 shells and 324 basis functions
 A cutoff of  1.0D-12 yielded   3777 shell pairs
 There are     43500 function pairs (     47026 Cartesian)
 Smallest overlap matrix eigenvalue = 4.93E-05
 Guess MOs from SCF MO coefficient file
 Reading MOs from coefficient file
 Reading MOs from coefficient file

 -----------------------------------------------------------------------
  General SCF calculation program by
  Eric Jon Sundstrom, Paul Horn, Yuezhi Mao, Dmitri Zuev, Alec White,
  David Stuck, Shaama M.S., Shane Yost, Joonho Lee, David Small,
  Daniel Levine, Susi Lehtola, Hugh Burton, Evgeny Epifanovsky
 -----------------------------------------------------------------------
 Exchange:     0.2220 Hartree-Fock + 1.0000 wB97X-D + LR-HF
 Correlation:  1.0000 wB97X-D
 Using SG-3 standard quadrature grid
 Dispersion:   Grimme D
 using 32 threads for integral computing
 -------------------------------------------------------
 OpenMP Integral computing Module                
 Release: version 1.0, May 2013, Q-Chem Inc. Pittsburgh 
 -------------------------------------------------------
 using 32 threads for integral computing
 -------------------------------------------------------
 OpenMP Integral computing Module                
 Release: version 1.0, May 2013, Q-Chem Inc. Pittsburgh 
 -------------------------------------------------------
 -------------------------------------------------------
 OpenMP BLAS3 based DFT computing Module                
 Release: version 1.0, May 2013, Q-Chem Inc. Pittsburgh 
 -------------------------------------------------------
 A unrestricted SCF calculation will be
 performed using Roothaan-Hall, GDM
 SCF converges when RMS gradient is below 1.0e-08
 ---------------------------------------
  Cycle       Energy         DIIS error
 ---------------------------------------
    1   -1715.7313365946      2.26e-04  Roothaan Step
 ---------------------------------------
  Cycle       Energy        RMS Gradient
 ---------------------------------------
    1   -1727.3500288306      6.81e-03   Normal BFGS step
    2   -1727.3507115647      3.09e-03   Normal BFGS step
    3   -1727.3510785973      8.51e-04   Normal BFGS step
    4   -1727.3511059253      8.09e-04   Normal BFGS step
    5   -1727.3511218393      2.12e-04   Normal BFGS step
    6   -1727.3511230662      8.80e-05   Normal BFGS step
    7   -1727.3511236408      6.88e-05   Normal BFGS step
    8   -1727.3511236836      3.39e-05   Normal BFGS step
    9   -1727.3511236996      1.61e-05   Normal BFGS step
   10   -1727.3511237029      3.36e-06   Normal BFGS step
   11   -1727.3511237037      3.99e-06   Normal BFGS step
   12   -1727.3511237038      1.45e-06   Normal BFGS step
   13   -1727.3511237038      6.64e-07   Normal BFGS step
   14   -1727.3511237038      2.11e-07   Normal BFGS step
   15   -1727.3511237038      5.87e-08   Normal BFGS step
   16   -1727.3511237038      2.46e-08   Normal BFGS step
   17   -1727.3511237038      1.04e-08   Normal BFGS step
   18   -1727.3511237038      7.09e-09  Convergence criterion met
 ---------------------------------------
 SCF time:   CPU 1463.12s  wall 82.00s 
<S^2> =          0.753256028

************** Final PCM Free Energy Summary **************
 G_electrostatic  =      -0.05097160 hartree =     -31.98515978 kcal/mol
 G_cavitation     =       0.00000000 hartree =       0.00000000 kcal/mol
 G_dispersion     =       0.00000000 hartree =       0.00000000 kcal/mol
 G_repulsion      =       0.00000000 hartree =       0.00000000 kcal/mol
 --------------------------------------------------
 Non-electrostatic Free Energy =       0.00000000 hartree =       0.00000000 kcal/mol
 Total                         =      -0.05097160 hartree =     -31.98515978 kcal/mol
 --------------------------------------------------
 SCF Energy (H0 + V/2)                       =   -1727.35112370 
 Solute Internal Energy (H0)                 =   -1727.30015211 
 Total Free Energy (H0 + V/2 + non-elec)     =   -1727.35112370 hartree
                                             = -1083929.18986665 kcal/mol
***********************************************************

 SCF   energy in the final basis set =    -1727.3511237038
 Total energy in the final basis set =    -1727.3511237038
 
 --------------------------------------------------------------
 
                    Orbital Energies (a.u.)
 --------------------------------------------------------------
 
 Alpha MOs
 -- Occupied --
-89.209 -89.208 -24.832 -24.832 -24.831 -24.831 -24.830 -19.217
-19.216 -19.215 -19.211 -14.404 -10.531 -10.449  -8.231  -8.229
 -6.180  -6.179  -6.179  -6.178  -6.178  -6.177  -1.422  -1.388
 -1.329  -1.329  -1.326  -1.213  -1.196  -1.089  -1.086  -0.992
 -0.837  -0.808  -0.760  -0.707  -0.683  -0.682  -0.668  -0.656
 -0.616  -0.599  -0.571  -0.557  -0.553  -0.541  -0.539  -0.534
 -0.526  -0.519  -0.515  -0.512  -0.505  -0.493  -0.459  -0.414
 -0.409  -0.405  -0.387  -0.382  -0.375  -0.364  -0.338  -0.329
 -0.294
 -- Virtual --
  0.103   0.111   0.120   0.128   0.140   0.141   0.146   0.147
  0.153   0.156   0.161   0.173   0.178   0.183   0.185   0.188
  0.199   0.202   0.214   0.215   0.235   0.239   0.256   0.263
  0.290   0.296   0.309   0.311   0.323   0.328   0.331   0.339
  0.347   0.347   0.352   0.357   0.362   0.371   0.372   0.377
  0.389   0.393   0.401   0.410   0.414   0.415   0.416   0.423
  0.425   0.432   0.437   0.446   0.451   0.460   0.461   0.470
  0.474   0.480   0.485   0.499   0.502   0.507   0.516   0.535
  0.538   0.550   0.562   0.568   0.588   0.602   0.603   0.619
  0.634   0.659   0.666   0.685   0.711   0.725   0.750   0.794
  0.825   0.862   0.919   0.932   0.934   0.955   0.966   1.007
  1.035   1.056   1.085   1.121   1.134   1.157   1.166   1.185
  1.196   1.213   1.242   1.247   1.253   1.259   1.270   1.278
  1.294   1.299   1.308   1.312   1.319   1.330   1.350   1.366
  1.370   1.410   1.418   1.461   1.487   1.503   1.508   1.519
  1.537   1.542   1.557   1.584   1.585   1.591   1.599   1.609
  1.626   1.661   1.676   1.733   1.756   1.776   1.820   1.839
  1.855   1.918   1.923   1.936   1.991   2.010   2.029   2.034
  2.048   2.076   2.078   2.103   2.141   2.167   2.240   2.295
  2.338   2.361   2.696   2.747   2.814   2.894   2.925   2.936
  2.942   2.953   2.963   2.967   2.980   2.984   3.017   3.043
  3.060   3.068   3.074   3.132   3.147   3.174   3.202   3.240
  3.281   3.296   3.599   3.607   3.729   3.740   3.811   3.848
  3.851   3.852   3.858   3.861   3.874   3.879   3.880   3.888
  3.912   3.916   3.971   3.985   4.078   4.101   4.107   4.164
  4.232   4.302   4.305   4.308   4.380   4.490   4.620   5.020
  5.042   5.044   5.154   5.161   5.169   5.195   5.210   5.219
  5.224   5.258   5.293   5.311   5.449   5.468   6.413   6.413
  6.420   6.455   6.465   6.483   6.489   6.507   6.524   6.533
  6.571   6.576   6.888   6.893   6.921   8.285   8.324  17.499
 17.531  17.562  17.613  17.659  17.681  23.631  23.658  35.602
 50.037  50.043  50.085  50.086  66.907  66.916  66.927  66.931
 66.971 189.513 189.553
 
 Beta MOs
 -- Occupied --
-89.209 -89.208 -24.831 -24.831 -24.830 -24.829 -24.829 -19.217
-19.215 -19.214 -19.211 -14.404 -10.531 -10.436  -8.231  -8.229
 -6.180  -6.179  -6.179  -6.178  -6.177  -6.177  -1.422  -1.379
 -1.329  -1.328  -1.318  -1.212  -1.195  -1.089  -1.084  -0.992
 -0.834  -0.796  -0.755  -0.703  -0.682  -0.682  -0.662  -0.648
 -0.598  -0.582  -0.568  -0.557  -0.553  -0.539  -0.535  -0.525
 -0.522  -0.516  -0.513  -0.510  -0.502  -0.493  -0.458  -0.412
 -0.407  -0.391  -0.382  -0.380  -0.373  -0.362  -0.337  -0.327
 -- Virtual --
  0.005   0.105   0.112   0.121   0.129   0.142   0.142   0.147
  0.149   0.156   0.158   0.162   0.174   0.180   0.183   0.187
  0.189   0.199   0.209   0.216   0.221   0.240   0.242   0.259
  0.268   0.291   0.300   0.312   0.317   0.324   0.329   0.333
  0.341   0.348   0.348   0.353   0.359   0.366   0.372   0.375
  0.379   0.391   0.394   0.401   0.410   0.414   0.415   0.417
  0.424   0.426   0.432   0.438   0.447   0.452   0.461   0.463
  0.470   0.475   0.480   0.487   0.500   0.503   0.507   0.516
  0.536   0.539   0.550   0.562   0.568   0.589   0.602   0.603
  0.618   0.636   0.659   0.669   0.686   0.716   0.732   0.756
  0.802   0.827   0.872   0.920   0.934   0.936   0.957   0.970
  1.010   1.042   1.057   1.086   1.123   1.135   1.157   1.167
  1.186   1.198   1.213   1.244   1.250   1.254   1.260   1.271
  1.278   1.296   1.300   1.312   1.315   1.320   1.333   1.353
  1.371   1.379   1.413   1.423   1.466   1.490   1.504   1.509
  1.520   1.537   1.545   1.561   1.584   1.587   1.599   1.608
  1.616   1.627   1.667   1.703   1.739   1.761   1.777   1.822
  1.855   1.861   1.921   1.932   1.940   1.992   2.013   2.034
  2.036   2.051   2.077   2.081   2.108   2.145   2.172   2.242
  2.296   2.339   2.362   2.696   2.752   2.862   2.894   2.930
  2.937   2.944   2.956   2.966   2.969   2.982   2.985   3.020
  3.046   3.062   3.070   3.078   3.139   3.149   3.184   3.203
  3.244   3.281   3.301   3.599   3.609   3.731   3.741   3.811
  3.848   3.852   3.858   3.860   3.868   3.878   3.880   3.883
  3.896   3.913   3.919   3.971   3.985   4.085   4.105   4.118
  4.165   4.232   4.304   4.306   4.308   4.380   4.490   4.628
  5.026   5.042   5.045   5.156   5.161   5.170   5.195   5.212
  5.221   5.225   5.258   5.295   5.311   5.450   5.468   6.413
  6.421   6.431   6.455   6.469   6.484   6.492   6.507   6.524
  6.533   6.574   6.578   6.888   6.893   6.927   8.286   8.324
 17.500  17.531  17.562  17.613  17.659  17.681  23.631  23.681
 35.602  50.038  50.043  50.085  50.087  66.909  66.917  66.927
 66.932  66.971 189.513 189.554
 --------------------------------------------------------------
 
          Ground-State Mulliken Net Atomic Charges

     Atom                 Charge (a.u.)    Spin (a.u.)
  --------------------------------------------------------
      1 S                     0.605532       0.015235
      2 C                    -0.237832       0.815702
      3 N                    -0.713629       0.006446
      4 O                    -0.157130       0.062510
      5 O                    -0.226400       0.006512
      6 F                    -0.009218       0.048185
      7 F                    -0.056767       0.044536
      8 S                     0.311980      -0.003473
      9 C                     0.005950       0.005200
     10 O                    -0.123767      -0.000940
     11 O                    -0.192893       0.000082
     12 F                    -0.054984       0.000224
     13 F                    -0.084155      -0.000079
     14 F                    -0.066686      -0.000140
  --------------------------------------------------------
  Sum of atomic charges =    -1.000000
  Sum of spin   charges =     1.000000

 -----------------------------------------------------------------
                    Cartesian Multipole Moments
 -----------------------------------------------------------------
    Charge (ESU x 10^10)
                -4.8032
    Dipole Moment (Debye)
         X      -0.2736      Y       2.8623      Z       4.3987
       Tot       5.2551
    Quadrupole Moments (Debye-Ang)
        XX    -114.1242     XY      -4.0793     YY     -99.5957
        XZ      -3.4807     YZ      -1.5543     ZZ    -108.7921
    Octopole Moments (Debye-Ang^2)
       XXX     113.3819    XXY     -31.6500    XYY      44.3223
       YYY     -94.0176    XXZ      82.5746    XYZ       8.4625
       YYZ      71.1588    XZZ      53.9968    YZZ     -26.2263
       ZZZ     234.6529
    Hexadecapole Moments (Debye-Ang^3)
      XXXX   -1865.2048   XXXY      80.0098   XXYY    -424.8624
      XYYY     103.2204   YYYY    -715.8126   XXXZ    -475.3499
      XXYZ       5.9625   XYYZ    -171.3625   YYYZ      33.2393
      XXZZ    -556.9534   XYZZ      11.8960   YYZZ    -371.6377
      XZZZ    -522.8003   YZZZ       2.5569   ZZZZ   -1475.0230
 -----------------------------------------------------------------
 Calculating analytic gradient of the SCF energy
 Gradient of SCF Energy
            1           2           3           4           5           6
    1  -0.0024761  -0.0014986  -0.0019544   0.0067225  -0.0227687   0.0100768
    2   0.0054049  -0.0112555  -0.0270370   0.0200165  -0.0115664   0.0043914
    3   0.0023548   0.0128087   0.0127338  -0.0198676   0.0110093  -0.0056856
            7           8           9          10          11          12
    1  -0.0084068   0.0089292  -0.0096155  -0.0013259   0.0140370  -0.0047064
    2   0.0020478   0.0035443   0.0053847   0.0121726   0.0067506  -0.0045663
    3  -0.0090000  -0.0097589  -0.0015610   0.0245308  -0.0201032   0.0124042
           13          14
    1   0.0128765   0.0001105
    2   0.0038481  -0.0091356
    3   0.0014666  -0.0113318
 Max gradient component =       2.704E-02
 RMS gradient           =       1.140E-02
 Computing fast CPCM-SWIG gradient
 Updating gradient with PCM contributions...
 -- total gradient after adding PCM contribution --
---------------------------------------------------
  Atom         X              Y              Z     
---------------------------------------------------
   1       0.000780      -0.002200      -0.003623
   2      -0.000617       0.000088       0.001668
   3       0.000599       0.000000       0.000506
   4      -0.000161       0.000987       0.000758
   5      -0.000009       0.000052       0.000046
   6      -0.000351       0.000368       0.000136
   7       0.000132       0.000343       0.000140
   8      -0.000747       0.000340       0.000497
   9      -0.000011      -0.000120      -0.000056
  10       0.000410       0.000099       0.000169
  11       0.000183      -0.000110      -0.000201
  12      -0.000106       0.000037       0.000048
  13      -0.000109       0.000090      -0.000023
  14       0.000008       0.000024      -0.000065
---------------------------------------------------
 Number of fixed atoms: 0
 Gradient time:  CPU 147.94 s  wall 12.52 s
 Geometry Optimization Parameters
   NAtoms,    NIC,     NZ,  NCons,   NDum,   NFix, NCnnct, MaxDiis
       14      84       0       0       0       0       0       0

 Cartesian Hessian Update
 Hessian Updated using BFGS Update


** GEOMETRY OPTIMIZATION IN DELOCALIZED INTERNAL COORDINATES **
   Searching for a Minimum

   Optimization Cycle:   3

                       Coordinates (Angstroms)
     ATOM                X               Y               Z
      1  S         1.1875757255    0.0009040701   -0.2217720524
      2  C         0.7937998692    1.2952774787    1.0257114652
      3  N         0.1270812523    0.2445265234   -1.3784138045
      4  O         1.0633347976   -1.2758709290    0.4664144733
      5  O         2.4938412024    0.3938555566   -0.7121826328
      6  F        -0.3967968853    1.1947726204    1.5859358684
      7  F         1.7270576994    1.4352657485    1.9553586159
      8  S        -1.3576470895   -0.3303596325   -1.4521335160
      9  C        -2.2569000574    1.2556380651   -1.8622641673
     10  O        -1.5446273742   -1.1542081540   -2.6319416943
     11  O        -1.9443944417   -0.7810449060   -0.2020500749
     12  F        -1.8130226683    1.7831678446   -2.9981683039
     13  F        -3.5573586126    0.9941069408   -1.9995282363
     14  F        -2.1089202597    2.1517563316   -0.8905539503
   Point Group: c1    Number of degrees of freedom:    36


   Energy is  -1727.351123704

 Hessian Updated using BFGS Update

 31 Hessian modes will be used to form the next step
  Hessian Eigenvalues:
     0.001992    0.002014    0.019412    0.020798    0.065492    0.083474
     0.087701    0.100065    0.104404    0.108828    0.125705    0.137216
     0.142205    0.194620    0.197213    0.211425    0.214104    0.245940
     0.250241    0.272171    0.519774    0.538401    0.587401    0.591018
     0.595369    0.598926    0.600841    0.946775    0.950185    0.956386
     0.961549

 Minimum Search - Taking Simple RFO Step
 Searching for Lamda that Minimizes Along All modes
 Value Taken    Lamda =  -0.00009774
 Step Taken.  Stepsize is  0.046722

                             Maximum     Tolerance    Cnvgd?
         Gradient           0.001682      0.000300      NO
         Displacement       0.023796      0.001200      NO
         Energy change     -0.000443      0.000001      NO


 New Cartesian Coordinates Obtained by Inverse Iteration

 Displacement from previous Coordinates is:  0.065281
 ----------------------------------------------------------------
             Standard Nuclear Orientation (Angstroms)
    I     Atom           X                Y                Z
 ----------------------------------------------------------------
    1      S       1.1819653647     0.0038625858    -0.2146507928
    2      C       0.7941887532     1.2972836200     1.0236583399
    3      N       0.1240681797     0.2445660578    -1.3754395232
    4      O       1.0605259574    -1.2798067936     0.4623532545
    5      O       2.4876608183     0.3962358122    -0.7069881876
    6      F      -0.3879859152     1.1886300679     1.5978070312
    7      F       1.7353550588     1.4466216451     1.9426497388
    8      S      -1.3589771789    -0.3332110396    -1.4538912699
    9      C      -2.2548993741     1.2545665795    -1.8626344915
   10      O      -1.5484330206    -1.1547684744    -2.6351030316
   11      O      -1.9498502538    -0.7820407021    -0.2048814808
   12      F      -1.8036326253     1.7861413654    -2.9938221005
   13      F      -3.5543992309     0.9932761232    -2.0085379230
   14      F      -2.1125633755     2.1464307114    -0.8861075731
 ----------------------------------------------------------------
 Nuclear Repulsion Energy =  1406.4966031973 hartrees
 There are       65 alpha and       64 beta electrons
 Discretize the solute cavity surface with Lebedev spheres
	Using 194 Lebedev grid points for each H atom
	Using 194 Lebedev grid points for other atoms
	Atomic van der Waals radii will be scaled by 1.10
 Remove points where switching function is < 1.0e-08
 Keep 1262 surface tesserae and discard 1454 interior tesserae
 Molecular Surface Area = 222.334 Angst**2
 Applying Cartesian multipole field
    Component          Value
    ---------          -----
     (2,0,0)        1.00000E-11
     (0,2,0)        2.00000E-11
     (0,0,2)       -3.00000E-11
 Nucleus-field energy     =    -0.0000000079 hartrees
 Requested basis set is 6-311++G(d)
 There are 98 shells and 324 basis functions
 A cutoff of  1.0D-12 yielded   3777 shell pairs
 There are     43508 function pairs (     47034 Cartesian)
 Smallest overlap matrix eigenvalue = 4.89E-05
 Guess MOs from SCF MO coefficient file
 Reading MOs from coefficient file
 Reading MOs from coefficient file

 -----------------------------------------------------------------------
  General SCF calculation program by
  Eric Jon Sundstrom, Paul Horn, Yuezhi Mao, Dmitri Zuev, Alec White,
  David Stuck, Shaama M.S., Shane Yost, Joonho Lee, David Small,
  Daniel Levine, Susi Lehtola, Hugh Burton, Evgeny Epifanovsky
 -----------------------------------------------------------------------
 Exchange:     0.2220 Hartree-Fock + 1.0000 wB97X-D + LR-HF
 Correlation:  1.0000 wB97X-D
 Using SG-3 standard quadrature grid
 Dispersion:   Grimme D
 using 32 threads for integral computing
 -------------------------------------------------------
 OpenMP Integral computing Module                
 Release: version 1.0, May 2013, Q-Chem Inc. Pittsburgh 
 -------------------------------------------------------
 using 32 threads for integral computing
 -------------------------------------------------------
 OpenMP Integral computing Module                
 Release: version 1.0, May 2013, Q-Chem Inc. Pittsburgh 
 -------------------------------------------------------
 -------------------------------------------------------
 OpenMP BLAS3 based DFT computing Module                
 Release: version 1.0, May 2013, Q-Chem Inc. Pittsburgh 
 -------------------------------------------------------
 A unrestricted SCF calculation will be
 performed using Roothaan-Hall, GDM
 SCF converges when RMS gradient is below 1.0e-08
 ---------------------------------------
  Cycle       Energy         DIIS error
 ---------------------------------------
    1   -1715.7258909646      1.09e-04  Roothaan Step
 ---------------------------------------
  Cycle       Energy        RMS Gradient
 ---------------------------------------
    1   -1727.3502736334      6.58e-03   Normal BFGS step
    2   -1727.3507910938      3.09e-03   Normal BFGS step
    3   -1727.3511181315      7.29e-04   Normal BFGS step
    4   -1727.3511380021      7.33e-04   Normal BFGS step
    5   -1727.3511512840      2.12e-04   Normal BFGS step
    6   -1727.3511521883      8.37e-05   Normal BFGS step
    7   -1727.3511526563      7.26e-05   Normal BFGS step
    8   -1727.3511526885      3.92e-05   Normal BFGS step
    9   -1727.3511527031      1.63e-05   Normal BFGS step
   10   -1727.3511527057      3.23e-06   Normal BFGS step
   11   -1727.3511527064      2.54e-06   Normal BFGS step
   12   -1727.3511527065      1.41e-06   Normal BFGS step
   13   -1727.3511527065      5.80e-07   Normal BFGS step
   14   -1727.3511527066      2.22e-07   Normal BFGS step
   15   -1727.3511527066      4.42e-08   Normal BFGS step
   16   -1727.3511527065      2.26e-08   Normal BFGS step
   17   -1727.3511527065      8.47e-09  Convergence criterion met
 ---------------------------------------
 SCF time:   CPU 1385.40s  wall 76.00s 
<S^2> =          0.753262639

************** Final PCM Free Energy Summary **************
 G_electrostatic  =      -0.05105649 hartree =     -32.03843209 kcal/mol
 G_cavitation     =       0.00000000 hartree =       0.00000000 kcal/mol
 G_dispersion     =       0.00000000 hartree =       0.00000000 kcal/mol
 G_repulsion      =       0.00000000 hartree =       0.00000000 kcal/mol
 --------------------------------------------------
 Non-electrostatic Free Energy =       0.00000000 hartree =       0.00000000 kcal/mol
 Total                         =      -0.05105649 hartree =     -32.03843209 kcal/mol
 --------------------------------------------------
 SCF Energy (H0 + V/2)                       =   -1727.35115271 
 Solute Internal Energy (H0)                 =   -1727.30009621 
 Total Free Energy (H0 + V/2 + non-elec)     =   -1727.35115271 hartree
                                             = -1083929.20806612 kcal/mol
***********************************************************

 SCF   energy in the final basis set =    -1727.3511527065
 Total energy in the final basis set =    -1727.3511527065
 
 --------------------------------------------------------------
 
                    Orbital Energies (a.u.)
 --------------------------------------------------------------
 
 Alpha MOs
 -- Occupied --
-89.209 -89.208 -24.833 -24.833 -24.831 -24.831 -24.830 -19.217
-19.216 -19.215 -19.211 -14.404 -10.530 -10.450  -8.231  -8.229
 -6.179  -6.179  -6.179  -6.178  -6.178  -6.177  -1.421  -1.390
 -1.329  -1.328  -1.327  -1.213  -1.196  -1.089  -1.085  -0.992
 -0.838  -0.809  -0.760  -0.707  -0.683  -0.682  -0.669  -0.657
 -0.617  -0.599  -0.571  -0.557  -0.553  -0.542  -0.539  -0.534
 -0.526  -0.519  -0.515  -0.512  -0.506  -0.492  -0.459  -0.414
 -0.409  -0.405  -0.387  -0.382  -0.374  -0.364  -0.338  -0.329
 -0.296
 -- Virtual --
  0.102   0.111   0.120   0.128   0.140   0.140   0.146   0.148
  0.154   0.157   0.161   0.172   0.179   0.183   0.185   0.189
  0.199   0.202   0.214   0.214   0.234   0.239   0.257   0.264
  0.290   0.297   0.309   0.311   0.323   0.329   0.332   0.339
  0.346   0.347   0.352   0.357   0.362   0.371   0.373   0.377
  0.389   0.393   0.400   0.410   0.414   0.415   0.416   0.423
  0.425   0.431   0.437   0.447   0.451   0.460   0.461   0.470
  0.474   0.480   0.485   0.499   0.501   0.507   0.517   0.535
  0.538   0.550   0.563   0.568   0.587   0.602   0.604   0.618
  0.634   0.659   0.666   0.686   0.711   0.725   0.751   0.793
  0.825   0.862   0.919   0.932   0.935   0.956   0.967   1.008
  1.034   1.056   1.086   1.121   1.134   1.157   1.166   1.185
  1.196   1.213   1.242   1.245   1.254   1.260   1.271   1.278
  1.295   1.299   1.308   1.313   1.320   1.330   1.350   1.367
  1.370   1.409   1.418   1.461   1.486   1.503   1.508   1.519
  1.537   1.542   1.557   1.584   1.586   1.591   1.599   1.609
  1.626   1.660   1.677   1.734   1.755   1.776   1.819   1.842
  1.855   1.918   1.923   1.936   1.992   2.010   2.028   2.035
  2.047   2.075   2.079   2.103   2.140   2.167   2.241   2.296
  2.338   2.363   2.696   2.747   2.815   2.894   2.926   2.937
  2.942   2.953   2.963   2.967   2.980   2.985   3.016   3.043
  3.061   3.069   3.076   3.132   3.147   3.175   3.203   3.241
  3.281   3.298   3.599   3.607   3.730   3.740   3.811   3.848
  3.850   3.852   3.857   3.861   3.873   3.879   3.881   3.888
  3.912   3.915   3.971   3.986   4.079   4.102   4.107   4.164
  4.233   4.303   4.305   4.308   4.380   4.491   4.621   5.020
  5.042   5.044   5.155   5.161   5.169   5.195   5.210   5.220
  5.223   5.258   5.293   5.311   5.449   5.468   6.412   6.413
  6.419   6.454   6.465   6.483   6.489   6.507   6.524   6.533
  6.572   6.576   6.889   6.894   6.921   8.286   8.324  17.501
 17.531  17.561  17.613  17.658  17.681  23.631  23.658  35.603
 50.038  50.043  50.085  50.086  66.907  66.916  66.927  66.931
 66.971 189.514 189.554
 
 Beta MOs
 -- Occupied --
-89.209 -89.208 -24.831 -24.831 -24.830 -24.830 -24.830 -19.217
-19.215 -19.214 -19.210 -14.404 -10.530 -10.438  -8.231  -8.229
 -6.179  -6.179  -6.179  -6.178  -6.177  -6.177  -1.421  -1.380
 -1.329  -1.328  -1.319  -1.212  -1.195  -1.088  -1.083  -0.991
 -0.834  -0.797  -0.755  -0.703  -0.682  -0.682  -0.663  -0.649
 -0.598  -0.583  -0.568  -0.557  -0.553  -0.539  -0.536  -0.525
 -0.522  -0.516  -0.513  -0.510  -0.503  -0.492  -0.458  -0.412
 -0.406  -0.391  -0.382  -0.381  -0.372  -0.361  -0.336  -0.327
 -- Virtual --
  0.003   0.105   0.112   0.121   0.129   0.142   0.142   0.147
  0.150   0.156   0.158   0.162   0.174   0.181   0.183   0.187
  0.189   0.199   0.209   0.216   0.222   0.239   0.242   0.261
  0.268   0.292   0.301   0.312   0.317   0.324   0.329   0.333
  0.341   0.348   0.349   0.353   0.359   0.366   0.372   0.375
  0.379   0.391   0.394   0.401   0.411   0.414   0.415   0.417
  0.424   0.425   0.432   0.438   0.447   0.452   0.461   0.463
  0.470   0.475   0.480   0.487   0.500   0.503   0.508   0.517
  0.535   0.539   0.550   0.563   0.568   0.588   0.602   0.604
  0.618   0.636   0.659   0.668   0.687   0.716   0.732   0.756
  0.801   0.827   0.872   0.920   0.934   0.937   0.957   0.972
  1.011   1.041   1.057   1.086   1.123   1.135   1.157   1.167
  1.186   1.198   1.213   1.244   1.249   1.254   1.261   1.271
  1.278   1.297   1.301   1.312   1.316   1.321   1.333   1.353
  1.371   1.380   1.413   1.423   1.466   1.489   1.504   1.510
  1.520   1.538   1.545   1.560   1.584   1.587   1.599   1.608
  1.616   1.627   1.666   1.704   1.740   1.761   1.777   1.821
  1.856   1.863   1.922   1.932   1.940   1.993   2.013   2.034
  2.036   2.051   2.077   2.081   2.108   2.144   2.172   2.243
  2.296   2.339   2.364   2.696   2.752   2.863   2.895   2.931
  2.937   2.944   2.956   2.966   2.970   2.981   2.985   3.020
  3.046   3.063   3.071   3.081   3.139   3.149   3.184   3.204
  3.245   3.282   3.303   3.599   3.609   3.731   3.741   3.811
  3.848   3.853   3.857   3.860   3.867   3.878   3.880   3.883
  3.896   3.913   3.918   3.971   3.986   4.086   4.105   4.119
  4.165   4.233   4.305   4.307   4.308   4.381   4.491   4.629
  5.026   5.042   5.045   5.157   5.162   5.170   5.195   5.211
  5.221   5.225   5.258   5.295   5.311   5.450   5.469   6.413
  6.420   6.430   6.455   6.469   6.484   6.492   6.508   6.524
  6.533   6.574   6.578   6.889   6.894   6.927   8.286   8.324
 17.502  17.531  17.561  17.614  17.659  17.682  23.631  23.682
 35.603  50.038  50.043  50.086  50.087  66.909  66.917  66.927
 66.932  66.971 189.514 189.554
 --------------------------------------------------------------
 
          Ground-State Mulliken Net Atomic Charges

     Atom                 Charge (a.u.)    Spin (a.u.)
  --------------------------------------------------------
      1 S                     0.610258       0.014399
      2 C                    -0.237217       0.813356
      3 N                    -0.716589       0.006700
      4 O                    -0.154334       0.063589
      5 O                    -0.231389       0.006779
      6 F                    -0.009322       0.049024
      7 F                    -0.055943       0.045380
      8 S                     0.312573      -0.003571
      9 C                     0.006587       0.005296
     10 O                    -0.124083      -0.001011
     11 O                    -0.193515       0.000080
     12 F                    -0.055180       0.000235
     13 F                    -0.084730      -0.000084
     14 F                    -0.067117      -0.000171
  --------------------------------------------------------
  Sum of atomic charges =    -1.000000
  Sum of spin   charges =     1.000000

 -----------------------------------------------------------------
                    Cartesian Multipole Moments
 -----------------------------------------------------------------
    Charge (ESU x 10^10)
                -4.8032
    Dipole Moment (Debye)
         X      -0.2428      Y       2.8932      Z       4.4627
       Tot       5.3241
    Quadrupole Moments (Debye-Ang)
        XX    -114.2273     XY      -4.0631     YY     -99.5749
        XZ      -3.4885     YZ      -1.5059     ZZ    -108.7551
    Octopole Moments (Debye-Ang^2)
       XXX     113.9502    XXY     -31.6211    XYY      44.4240
       YYY     -93.8429    XXZ      82.7442    XYZ       8.4434
       YYZ      71.2294    XZZ      54.3229    YZZ     -26.1729
       ZZZ     234.7950
    Hexadecapole Moments (Debye-Ang^3)
      XXXX   -1864.1081   XXXY      78.3353   XXYY    -424.9184
      XYYY     101.7118   YYYY    -716.3527   XXXZ    -476.8936
      XXYZ       5.7504   XYYZ    -171.7023   YYYZ      32.8695
      XXZZ    -556.7722   XYZZ      11.4450   YYZZ    -371.7903
      XZZZ    -523.8501   YZZZ       2.1664   ZZZZ   -1474.6227
 -----------------------------------------------------------------
 Calculating analytic gradient of the SCF energy
 Gradient of SCF Energy
            1           2           3           4           5           6
    1  -0.0035595  -0.0006560  -0.0019218   0.0069221  -0.0232750   0.0110454
    2   0.0081943  -0.0115428  -0.0268013   0.0189716  -0.0119265   0.0041314
    3   0.0054784   0.0109527   0.0126615  -0.0203455   0.0109437  -0.0059372
            7           8           9          10          11          12
    1  -0.0090554   0.0095733  -0.0097488  -0.0018021   0.0138467  -0.0046252
    2   0.0015663   0.0026797   0.0058468   0.0121854   0.0070505  -0.0047847
    3  -0.0091951  -0.0097668  -0.0015481   0.0242851  -0.0201821   0.0123415
           13          14
    1   0.0130681   0.0001883
    2   0.0036180  -0.0091888
    3   0.0016367  -0.0113247
 Max gradient component =       2.680E-02
 RMS gradient           =       1.147E-02
 Computing fast CPCM-SWIG gradient
 Updating gradient with PCM contributions...
 -- total gradient after adding PCM contribution --
---------------------------------------------------
  Atom         X              Y              Z     
---------------------------------------------------
   1      -0.000602       0.001300       0.000607
   2       0.000054       0.000138      -0.000338
   3       0.000793       0.000137       0.000234
   4       0.000200      -0.000487      -0.000232
   5      -0.000571      -0.000425      -0.000238
   6       0.000691      -0.000057       0.000044
   7      -0.000456      -0.000156      -0.000065
   8       0.000049      -0.000921       0.000216
   9      -0.000091       0.000411       0.000038
  10      -0.000277       0.000144      -0.000128
  11      -0.000032       0.000335      -0.000274
  12       0.000084      -0.000160       0.000039
  13       0.000122      -0.000164       0.000071
  14       0.000034      -0.000094       0.000027
---------------------------------------------------
 Number of fixed atoms: 0
 Gradient time:  CPU 146.12 s  wall 12.14 s
 Geometry Optimization Parameters
   NAtoms,    NIC,     NZ,  NCons,   NDum,   NFix, NCnnct, MaxDiis
       14      84       0       0       0       0       0       0

 Cartesian Hessian Update
 Hessian Updated using BFGS Update


** GEOMETRY OPTIMIZATION IN DELOCALIZED INTERNAL COORDINATES **
   Searching for a Minimum

   Optimization Cycle:   4

                       Coordinates (Angstroms)
     ATOM                X               Y               Z
      1  S         1.1819653647    0.0038625858   -0.2146507928
      2  C         0.7941887532    1.2972836200    1.0236583399
      3  N         0.1240681797    0.2445660578   -1.3754395232
      4  O         1.0605259574   -1.2798067936    0.4623532545
[...]
  0.802   0.827   0.872   0.920   0.934   0.937   0.957   0.971
  1.011   1.041   1.057   1.086   1.123   1.135   1.157   1.167
  1.186   1.197   1.213   1.244   1.249   1.254   1.261   1.271
  1.279   1.297   1.301   1.312   1.316   1.320   1.333   1.353
  1.371   1.380   1.413   1.423   1.466   1.489   1.504   1.510
  1.520   1.538   1.545   1.560   1.584   1.587   1.599   1.608
  1.616   1.627   1.666   1.704   1.740   1.762   1.777   1.821
  1.856   1.863   1.922   1.932   1.940   1.992   2.013   2.034
  2.037   2.051   2.077   2.081   2.108   2.144   2.172   2.243
  2.296   2.339   2.363   2.696   2.752   2.863   2.895   2.931
  2.937   2.944   2.956   2.966   2.970   2.982   2.985   3.020
  3.046   3.063   3.070   3.080   3.139   3.149   3.184   3.203
  3.245   3.282   3.303   3.599   3.609   3.731   3.741   3.811
  3.848   3.852   3.858   3.860   3.867   3.878   3.880   3.883
  3.896   3.913   3.919   3.971   3.985   4.086   4.105   4.118
  4.165   4.233   4.305   4.307   4.308   4.380   4.491   4.629
  5.025   5.042   5.045   5.157   5.162   5.170   5.195   5.212
  5.221   5.225   5.258   5.295   5.311   5.450   5.468   6.413
  6.420   6.430   6.455   6.469   6.484   6.492   6.507   6.524
  6.533   6.574   6.578   6.889   6.893   6.928   8.286   8.324
 17.501  17.532  17.561  17.613  17.659  17.681  23.631  23.681
 35.603  50.038  50.043  50.085  50.087  66.909  66.917  66.927
 66.932  66.971 189.513 189.554
 --------------------------------------------------------------
 
          Ground-State Mulliken Net Atomic Charges

     Atom                 Charge (a.u.)    Spin (a.u.)
  --------------------------------------------------------
      1 S                     0.608762       0.014384
      2 C                    -0.237567       0.814255
      3 N                    -0.714708       0.006573
      4 O                    -0.154217       0.063297
      5 O                    -0.230337       0.006721
      6 F                    -0.008977       0.048853
      7 F                    -0.056060       0.045199
      8 S                     0.311051      -0.003614
      9 C                     0.006781       0.005280
     10 O                    -0.123309      -0.001001
     11 O                    -0.194640       0.000061
     12 F                    -0.055211       0.000231
     13 F                    -0.084435      -0.000084
     14 F                    -0.067131      -0.000155
  --------------------------------------------------------
  Sum of atomic charges =    -1.000000
  Sum of spin   charges =     1.000000

 -----------------------------------------------------------------
                    Cartesian Multipole Moments
 -----------------------------------------------------------------
    Charge (ESU x 10^10)
                -4.8032
    Dipole Moment (Debye)
         X      -0.2515      Y       2.8869      Z       4.4426
       Tot       5.3041
    Quadrupole Moments (Debye-Ang)
        XX    -114.2013     XY      -4.0762     YY     -99.6028
        XZ      -3.4831     YZ      -1.5224     ZZ    -108.7211
    Octopole Moments (Debye-Ang^2)
       XXX     113.6892    XXY     -31.6795    XYY      44.3778
       YYY     -93.8920    XXZ      82.6305    XYZ       8.4519
       YYZ      71.2398    XZZ      54.2222    YZZ     -26.1958
       ZZZ     234.6513
    Hexadecapole Moments (Debye-Ang^3)
      XXXX   -1865.2459   XXXY      79.1447   XXYY    -425.0749
      XYYY     102.5560   YYYY    -716.2460   XXXZ    -476.4869
      XXYZ       5.9965   XYYZ    -171.6394   YYYZ      33.4410
      XXZZ    -556.6275   XYZZ      11.7155   YYZZ    -371.5656
      XZZZ    -523.4385   YZZZ       2.8568   ZZZZ   -1473.2696
 -----------------------------------------------------------------
 Calculating analytic gradient of the SCF energy
 Gradient of SCF Energy
            1           2           3           4           5           6
    1  -0.0031833  -0.0007215  -0.0024445   0.0068229  -0.0227662   0.0104558
    2   0.0074105  -0.0116324  -0.0269131   0.0192900  -0.0116338   0.0041161
    3   0.0049968   0.0112201   0.0125422  -0.0201512   0.0111501  -0.0060260
            7           8           9          10          11          12
    1  -0.0085408   0.0091564  -0.0095906  -0.0015517   0.0139942  -0.0046974
    2   0.0016846   0.0032610   0.0055098   0.0121125   0.0067213  -0.0046086
    3  -0.0092255  -0.0099432  -0.0015014   0.0243684  -0.0200014   0.0123611
           13          14
    1   0.0129633   0.0001034
    2   0.0038126  -0.0091305
    3   0.0015588  -0.0113488
 Max gradient component =       2.691E-02
 RMS gradient           =       1.140E-02
 Computing fast CPCM-SWIG gradient
 Updating gradient with PCM contributions...
 -- total gradient after adding PCM contribution --
---------------------------------------------------
  Atom         X              Y              Z     
---------------------------------------------------
   1      -0.000031       0.000266      -0.000242
   2       0.000030       0.000007       0.000041
   3       0.000203      -0.000101       0.000214
   4      -0.000022      -0.000134       0.000076
   5      -0.000069      -0.000013       0.000106
   6       0.000036      -0.000056      -0.000137
   7       0.000073      -0.000027      -0.000106
   8      -0.000326       0.000081      -0.000015
   9       0.000044      -0.000037       0.000039
  10       0.000030      -0.000061       0.000057
  11       0.000130      -0.000014      -0.000053
  12      -0.000046       0.000019       0.000030
  13      -0.000018       0.000051       0.000027
  14      -0.000036       0.000017      -0.000038
---------------------------------------------------
 Number of fixed atoms: 0
 Gradient time:  CPU 148.02 s  wall 12.59 s
 Geometry Optimization Parameters
   NAtoms,    NIC,     NZ,  NCons,   NDum,   NFix, NCnnct, MaxDiis
       14      84       0       0       0       0       0       0

 Cartesian Hessian Update
 Hessian Updated using BFGS Update


** GEOMETRY OPTIMIZATION IN DELOCALIZED INTERNAL COORDINATES **
   Searching for a Minimum

   Optimization Cycle:   5

                       Coordinates (Angstroms)
     ATOM                X               Y               Z
      1  S         1.1845744522    0.0027334277   -0.2163695842
      2  C         0.7937268962    1.2945409914    1.0234773576
      3  N         0.1253130191    0.2451477497   -1.3762614106
      4  O         1.0620348672   -1.2803580051    0.4612230476
      5  O         2.4911696161    0.3979416169   -0.7046997902
      6  F        -0.3922244655    1.1880737023    1.5912245742
      7  F         1.7325985671    1.4419085975    1.9456278051
      8  S        -1.3583087823   -0.3310524428   -1.4523818779
      9  C        -2.2560791001    1.2553869186   -1.8631263099
     10  O        -1.5472877666   -1.1559991807   -2.6312873852
     11  O        -1.9464194401   -0.7796143636   -0.2018106717
     12  F        -1.8082344004    1.7849965540   -2.9966328844
     13  F        -3.5560576686    0.9941215759   -2.0052455262
     14  F        -2.1117826365    2.1499604169   -0.8893253537
   Point Group: c1    Number of degrees of freedom:    36


   Energy is  -1727.351161558

 Hessian Updated using BFGS Update

 33 Hessian modes will be used to form the next step
  Hessian Eigenvalues:
     0.002010    0.002022    0.019334    0.020827    0.066166    0.083470
     0.087698    0.099946    0.105008    0.115147    0.127693    0.137876
     0.159860    0.196541    0.206270    0.211181    0.216404    0.243008
     0.249381    0.249732    0.254536    0.335962    0.513803    0.529307
     0.587536    0.590185    0.595286    0.597901    0.598965    0.944071
     0.946422    0.956552    0.959055

 Minimum Search - Taking Simple RFO Step
 Searching for Lamda that Minimizes Along All modes
 Value Taken    Lamda =  -0.00000123
 Step Taken.  Stepsize is  0.002853

                             Maximum     Tolerance    Cnvgd?
         Gradient           0.000259      0.000300     YES
         Displacement       0.001148      0.001200     YES
         Energy change     -0.000009      0.000001      NO


                       Distance Matrix (Angstroms)
             S (  1)   C (  2)   N (  3)   O (  4)   O (  5)   F (  6)
   C (  2)  1.832689
   N (  3)  1.589386  2.703100
   O (  4)  1.456184  2.649193  2.565339
   O (  5)  1.449775  2.582982  2.464065  2.493690
   F (  6)  2.675579  1.319149  3.156411  3.079761  3.769554
   F (  7)  2.654390  1.324220  3.879504  3.172357  2.947801  2.169080
   S (  8)  2.846997  3.661105  1.593403  3.228177  3.988602  3.536185
   C (  9)  4.014853  4.199444  2.632233  4.779381  4.961203  3.925688
   O ( 10)  3.825906  4.984255  2.517121  4.048166  4.736624  4.965728
   O ( 11)  3.227290  3.648541  2.592595  3.121082  4.618629  3.082579
   F ( 12)  4.456818  4.813734  2.955561  5.439817  5.065743  4.838371
   F ( 13)  5.162995  5.308864  3.809078  5.708196  6.214162  4.793960
   F ( 14)  3.991168  3.582254  2.978257  4.864585  4.928572  3.167844
             F (  7)   S (  8)   C (  9)   O ( 10)   O ( 11)   F ( 12)
   S (  8)  4.923776
   C (  9)  5.518238  1.868554
   O ( 10)  6.201204  1.451230  2.628163
   O ( 11)  4.804355  1.452932  2.645201  2.490648
   F ( 12)  6.089429  2.657971  1.328867  2.975067  3.795702
   F ( 13)  6.616630  2.625232  1.333567  3.008339  2.998241  2.159449
   F ( 14)  4.828826  2.653334  1.330177  3.779214  3.013707  2.160112
             F ( 13)
   F ( 14)  2.160364
 
 Final energy is   -1727.35116155780     


 ******************************
 **  OPTIMIZATION CONVERGED  **
 ******************************

                       Coordinates (Angstroms)
     ATOM                X               Y               Z
      1  S         1.1845744522    0.0027334277   -0.2163695842
      2  C         0.7937268962    1.2945409914    1.0234773576
      3  N         0.1253130191    0.2451477497   -1.3762614106
      4  O         1.0620348672   -1.2803580051    0.4612230476
      5  O         2.4911696161    0.3979416169   -0.7046997902
      6  F        -0.3922244655    1.1880737023    1.5912245742
      7  F         1.7325985671    1.4419085975    1.9456278051
      8  S        -1.3583087823   -0.3310524428   -1.4523818779
      9  C        -2.2560791001    1.2553869186   -1.8631263099
     10  O        -1.5472877666   -1.1559991807   -2.6312873852
     11  O        -1.9464194401   -0.7796143636   -0.2018106717
     12  F        -1.8082344004    1.7849965540   -2.9966328844
     13  F        -3.5560576686    0.9941215759   -2.0052455262
     14  F        -2.1117826365    2.1499604169   -0.8893253537

Z-matrix Print:
$molecule
-1 2
S 
O  1 1.451230
O  1 1.452932 2 118.099342
N  1 1.593403 2 111.445447 3 138.995130 0
S  4 1.589386 1 126.887874 2 -120.110046 0
O  5 1.449775 4 108.255320 1 164.978533 0
O  5 1.456184 4 114.701221 1 30.576316 0
C  5 1.832689 4 104.126606 1 -85.721839 0
F  8 1.319149 5 115.214440 4 64.570182 0
F  8 1.324220 5 113.474845 4 -166.948188 0
C  1 1.868554 2 103.974296 3 -115.652385 0
F  11 1.328867 1 111.343072 2 -55.620690 0
F  11 1.330177 1 110.973631 2 -176.790740 0
F  11 1.333567 1 108.992969 2 63.914235 0
$end

 
 --------------------------------------------------------------
 
                    Orbital Energies (a.u.)
 --------------------------------------------------------------
 
 Alpha MOs
 -- Occupied --
-89.209 -89.208 -24.833 -24.833 -24.831 -24.831 -24.830 -19.216
-19.216 -19.215 -19.211 -14.404 -10.531 -10.450  -8.231  -8.229
 -6.179  -6.179  -6.179  -6.178  -6.178  -6.177  -1.421  -1.389
 -1.329  -1.328  -1.327  -1.213  -1.196  -1.089  -1.086  -0.992
 -0.838  -0.809  -0.760  -0.707  -0.683  -0.682  -0.668  -0.657
 -0.617  -0.599  -0.571  -0.557  -0.553  -0.542  -0.539  -0.534
 -0.526  -0.519  -0.515  -0.512  -0.506  -0.493  -0.459  -0.414
 -0.409  -0.405  -0.387  -0.382  -0.374  -0.364  -0.338  -0.329
 -0.295
 -- Virtual --
  0.102   0.111   0.120   0.128   0.140   0.140   0.146   0.148
  0.154   0.156   0.161   0.172   0.179   0.183   0.185   0.189
  0.199   0.202   0.214   0.215   0.234   0.239   0.257   0.264
  0.290   0.297   0.309   0.311   0.323   0.329   0.332   0.339
  0.347   0.347   0.352   0.357   0.362   0.371   0.372   0.377
  0.389   0.393   0.400   0.410   0.414   0.415   0.416   0.423
  0.425   0.432   0.437   0.446   0.451   0.460   0.461   0.470
  0.474   0.480   0.485   0.499   0.501   0.507   0.516   0.535
  0.538   0.550   0.563   0.568   0.587   0.602   0.603   0.618
  0.634   0.659   0.666   0.685   0.711   0.725   0.751   0.793
  0.825   0.862   0.919   0.932   0.935   0.956   0.967   1.008
  1.034   1.056   1.086   1.121   1.134   1.156   1.166   1.185
  1.196   1.213   1.242   1.246   1.253   1.260   1.270   1.278
  1.295   1.299   1.308   1.313   1.320   1.330   1.350   1.367
  1.370   1.409   1.418   1.461   1.487   1.503   1.508   1.519
  1.537   1.542   1.557   1.584   1.586   1.591   1.599   1.609
  1.626   1.661   1.677   1.733   1.756   1.776   1.819   1.842
  1.855   1.918   1.922   1.936   1.992   2.010   2.028   2.035
  2.048   2.075   2.078   2.103   2.141   2.167   2.241   2.296
  2.338   2.362   2.696   2.747   2.815   2.894   2.926   2.937
  2.942   2.953   2.963   2.967   2.980   2.985   3.016   3.043
  3.061   3.068   3.075   3.132   3.147   3.175   3.203   3.241
  3.281   3.298   3.599   3.607   3.730   3.740   3.811   3.848
  3.850   3.852   3.857   3.861   3.873   3.879   3.881   3.888
  3.912   3.915   3.971   3.985   4.079   4.102   4.107   4.164
  4.233   4.302   4.305   4.308   4.380   4.491   4.621   5.020
  5.042   5.044   5.154   5.161   5.169   5.195   5.210   5.220
  5.223   5.258   5.293   5.311   5.449   5.468   6.412   6.413
  6.420   6.454   6.465   6.483   6.489   6.507   6.524   6.533
  6.571   6.576   6.889   6.893   6.922   8.285   8.324  17.500
 17.531  17.561  17.613  17.659  17.681  23.631  23.658  35.603
 50.037  50.043  50.085  50.086  66.907  66.916  66.927  66.931
 66.971 189.513 189.554
 
 Beta MOs
 -- Occupied --
-89.209 -89.208 -24.831 -24.831 -24.830 -24.830 -24.830 -19.216
-19.215 -19.214 -19.211 -14.404 -10.531 -10.437  -8.231  -8.229
 -6.179  -6.179  -6.179  -6.178  -6.177  -6.177  -1.421  -1.380
 -1.329  -1.328  -1.319  -1.212  -1.195  -1.088  -1.083  -0.991
 -0.834  -0.797  -0.755  -0.703  -0.682  -0.682  -0.663  -0.649
 -0.598  -0.583  -0.568  -0.557  -0.553  -0.539  -0.535  -0.525
 -0.522  -0.516  -0.513  -0.510  -0.503  -0.493  -0.458  -0.412
 -0.406  -0.391  -0.382  -0.381  -0.372  -0.362  -0.336  -0.327
 -- Virtual --
  0.003   0.105   0.112   0.121   0.129   0.142   0.142   0.147
  0.149   0.156   0.158   0.162   0.174   0.181   0.183   0.187
  0.189   0.199   0.209   0.216   0.222   0.239   0.242   0.260
  0.268   0.292   0.300   0.312   0.317   0.324   0.329   0.333
  0.341   0.348   0.349   0.353   0.359   0.366   0.372   0.375
  0.379   0.391   0.394   0.401   0.410   0.414   0.415   0.417
  0.424   0.425   0.432   0.438   0.447   0.452   0.461   0.463
  0.470   0.475   0.480   0.487   0.500   0.503   0.507   0.517
  0.535   0.539   0.550   0.563   0.568   0.588   0.602   0.604
  0.618   0.636   0.659   0.669   0.687   0.716   0.732   0.756
  0.802   0.827   0.872   0.920   0.934   0.937   0.957   0.971
  1.011   1.041   1.057   1.086   1.123   1.135   1.157   1.167
  1.186   1.197   1.213   1.244   1.249   1.254   1.261   1.271
  1.279   1.297   1.301   1.312   1.316   1.320   1.333   1.353
  1.371   1.380   1.413   1.423   1.466   1.489   1.504   1.510
  1.520   1.538   1.545   1.560   1.584   1.587   1.599   1.608
  1.616   1.627   1.666   1.704   1.740   1.762   1.777   1.821
  1.856   1.863   1.922   1.932   1.940   1.992   2.013   2.034
  2.037   2.051   2.077   2.081   2.108   2.144   2.172   2.243
  2.296   2.339   2.363   2.696   2.752   2.863   2.895   2.931
  2.937   2.944   2.956   2.966   2.970   2.982   2.985   3.020
  3.046   3.063   3.070   3.080   3.139   3.149   3.184   3.203
  3.245   3.282   3.303   3.599   3.609   3.731   3.741   3.811
  3.848   3.852   3.858   3.860   3.867   3.878   3.880   3.883
  3.896   3.913   3.919   3.971   3.985   4.086   4.105   4.118
  4.165   4.233   4.305   4.307   4.308   4.380   4.491   4.629
  5.025   5.042   5.045   5.157   5.162   5.170   5.195   5.212
  5.221   5.225   5.258   5.295   5.311   5.450   5.468   6.413
  6.420   6.430   6.455   6.469   6.484   6.492   6.507   6.524
  6.533   6.574   6.578   6.889   6.893   6.928   8.286   8.324
 17.501  17.532  17.561  17.613  17.659  17.681  23.631  23.681
 35.603  50.038  50.043  50.085  50.087  66.909  66.917  66.927
 66.932  66.971 189.513 189.554
 --------------------------------------------------------------
 
          Ground-State Mulliken Net Atomic Charges

     Atom                 Charge (a.u.)    Spin (a.u.)
  --------------------------------------------------------
      1 S                     0.608762       0.014384
      2 C                    -0.237567       0.814255
      3 N                    -0.714708       0.006573
      4 O                    -0.154217       0.063297
      5 O                    -0.230337       0.006721
      6 F                    -0.008977       0.048853
      7 F                    -0.056060       0.045199
      8 S                     0.311051      -0.003614
      9 C                     0.006781       0.005280
     10 O                    -0.123309      -0.001001
     11 O                    -0.194640       0.000061
     12 F                    -0.055211       0.000231
     13 F                    -0.084435      -0.000084
     14 F                    -0.067131      -0.000155
  --------------------------------------------------------
  Sum of atomic charges =    -1.000000
  Sum of spin   charges =     1.000000

 -----------------------------------------------------------------
                    Cartesian Multipole Moments
 -----------------------------------------------------------------
    Charge (ESU x 10^10)
                -4.8032
    Dipole Moment (Debye)
         X      -0.2515      Y       2.8869      Z       4.4426
       Tot       5.3041
    Quadrupole Moments (Debye-Ang)
        XX    -114.2013     XY      -4.0762     YY     -99.6028
        XZ      -3.4831     YZ      -1.5224     ZZ    -108.7211
    Octopole Moments (Debye-Ang^2)
       XXX     113.6892    XXY     -31.6795    XYY      44.3778
       YYY     -93.8920    XXZ      82.6305    XYZ       8.4519
       YYZ      71.2398    XZZ      54.2222    YZZ     -26.1958
       ZZZ     234.6513
    Hexadecapole Moments (Debye-Ang^3)
      XXXX   -1865.2459   XXXY      79.1447   XXYY    -425.0749
      XYYY     102.5560   YYYY    -716.2460   XXXZ    -476.4869
      XXYZ       5.9965   XYYZ    -171.6394   YYYZ      33.4410
      XXZZ    -556.6275   XYZZ      11.7155   YYZZ    -371.5656
      XZZZ    -523.4385   YZZZ       2.8568   ZZZZ   -1473.2696
 -----------------------------------------------------------------
Archival summary:
1\1\nid01231\OPT\ProcedureUnspecified\BasisUnspecified\25412(1-,2)\sblau\TueNov1319:04:022018TueNov1319:04:022018\0\\#,OPT,ProcedureUnspecified,BasisUnspecified,\\-1,2\S\O,1,1.45123\O,1,1.45293,2,118.099\N,1,1.5934,2,111.445,3,138.995,0\S,4,1.58939,1,126.888,2,-120.11,0\O,5,1.44977,4,108.255,1,164.979,0\O,5,1.45618,4,114.701,1,30.5763,0\C,5,1.83269,4,104.127,1,-85.7218,0\F,8,1.31915,5,115.214,4,64.5702,0\F,8,1.32422,5,113.475,4,-166.948,0\C,1,1.86855,2,103.974,3,-115.652,0\F,11,1.32887,1,111.343,2,-55.6207,0\F,11,1.33018,1,110.974,2,-176.791,0\F,11,1.33357,1,108.993,2,63.9142,0\\\@

 Total job time:  478.77s(wall), 8186.36s(cpu) 
 Tue Nov 13 19:04:02 2018

        *************************************************************
        *                                                           *
        *  Thank you very much for using Q-Chem.  Have a nice day.  *
        *                                                           *
        *************************************************************


