
Running Job 1 of 1 mol.qin
qchem mol.qin_51303.0 /tmp/qchem51303/ 1
/global/common/cori/software/qchem/5.1/exe/qcprog.exe mol.qin_51303.0 /tmp/qchem51303/
Check license passed

                  Welcome to Q-Chem
     A Quantum Leap Into The Future Of Chemistry


 Q-Chem 5.1, Q-Chem, Inc., Pleasanton, CA (2018)

 Yihan Shao,  Zhengting Gan,  E. Epifanovsky,  A. T. B. Gilbert,  M. Wormit,  
 J. Kussmann,  A. W. Lange,  A. Behn,  Jia Deng,  Xintian Feng,  D. Ghosh,  
 M. Goldey,  P. R. Horn,  L. D. Jacobson,  I. Kaliman,  T. Kus,  A. Landau,  
 Jie Liu,  E. I. Proynov,  R. M. Richard,  R. P. Steele,  E. J. Sundstrom,  
 H. L. Woodcock III,  P. M. Zimmerman,  D. Zuev,  B. Albrecht,  E. Alguire,  
 S. A. Baeppler,  D. Barton,  Z. Benda,  Y. A. Bernard,  E. J. Berquist,  
 K. B. Bravaya,  H. Burton,  D. Casanova,  Chun-Min Chang,  Yunqing Chen,  
 A. Chien,  K. D. Closser,  M. P. Coons,  S. Coriani,  S. Dasgupta,  
 A. L. Dempwolff,  M. Diedenhofen,  Hainam Do,  R. G. Edgar,  Po-Tung Fang,  
 S. Faraji,  S. Fatehi,  Qingguo Feng,  K. D. Fenk,  J. Fosso-Tande,  
 Qinghui Ge,  A. Ghysels,  G. Gidofalvi,  J. Gomes,  J. Gonthier,  A. Gunina,  
 D. Hait,  M. W. D. Hanson-Heine,  P. H. P. Harbach,  A. W. Hauser,  
 J. E. Herr,  E. G. Hohenstein,  Z. C. Holden,  Kerwin Hui,  B. C. Huynh,  
 T.-C. Jagau,  Hyunjun Ji,  B. Kaduk,  K. Khistyaev,  Jaehoon Kim,  
 P. Klunzinger,  K. Koh,  D. Kosenkov,  L. Koulias,  T. Kowalczyk,  
 C. M. Krauter,  A. Kunitsa,  Ka Un Lao,  A. Laurent,  K. V. Lawler,  
 Joonho Lee,  D. Lefrancois,  S. Lehtola,  D. S. Levine,  Yi-Pei Li,  
 You-Sheng Lin,  Fenglai Liu,  E. Livshits,  A. Luenser,  P. Manohar,  
 E. Mansoor,  S. F. Manzer,  Shan-Ping Mao,  Yuezhi Mao,  N. Mardirossian,  
 A. V. Marenich,  T. Markovich,  L. A. Martinez-Martinez,  S. A. Maurer,  
 N. J. Mayhall,  S. C. McKenzie,  J.-M. Mewes,  A. F. Morrison,  
 J. W. Mullinax,  K. Nanda,  T. S. Nguyen-Beck,  R. Olivares-Amaya,  
 J. A. Parkhill,  T. M. Perrine,  F. Plasser,  P. Pokhilko,  S. Prager,  
 A. Prociuk,  E. Ramos,  D. R. Rehn,  F. Rob,  M. Schneider,  N. Sergueev,  
 S. M. Sharada,  S. Sharma,  D. W. Small,  T. Stauch,  T. Stein,  
 Yu-Chuan Su,  A. J. W. Thom,  A. Tkatchenko,  T. Tsuchimochi,  N. M. Tubman,  
 L. Vogt,  M. L. Vidal,  O. Vydrov,  M. A. Watson,  J. Wenzel,  
 M. de Wergifosse,  T. A. Wesolowski,  A. White,  J. Witte,  A. Yamada,  
 Jun Yang,  K. Yao,  S. Yeganeh,  S. R. Yost,  Zhi-Qiang You,  A. Zech,  
 Igor Ying Zhang,  Xing Zhang,  Yan Zhao,  Ying Zhu,  B. R. Brooks,  
 G. K. L. Chan,  C. J. Cramer,  M. S. Gordon,  W. J. Hehre,  A. Klamt,  
 M. W. Schmidt,  C. D. Sherrill,  D. G. Truhlar,  A. Aspuru-Guzik,  R. Baer,  
 A. T. Bell,  N. A. Besley,  Jeng-Da Chai,  R. A. DiStasio Jr.,  A. Dreuw,  
 B. D. Dunietz,  T. R. Furlani,  Chao-Ping Hsu,  Yousung Jung,  Jing Kong,  
 D. S. Lambrecht,  WanZhen Liang,  C. Ochsenfeld,  V. A. Rassolov,  
 L. V. Slipchenko,  J. E. Subotnik,  T. Van Voorhis,  J. M. Herbert,  
 A. I. Krylov,  P. M. W. Gill,  M. Head-Gordon

 Contributors to earlier versions of Q-Chem not listed above: 
 R. D. Adamson,  B. Austin,  J. Baker,  G. J. O. Beran,  K. Brandhorst,  
 S. T. Brown,  E. F. C. Byrd,  A. K. Chakraborty,  C.-L. Cheng,  
 Siu Hung Chien,  D. M. Chipman,  D. L. Crittenden,  H. Dachsel,  
 R. J. Doerksen,  A. D. Dutoi,  L. Fusti-Molnar,  W. A. Goddard III,  
 A. Golubeva-Zadorozhnaya,  S. R. Gwaltney,  G. Hawkins,  A. Heyden,  
 S. Hirata,  G. Kedziora,  F. J. Keil,  C. Kelley,  Jihan Kim,  R. A. King,  
 R. Z. Khaliullin,  P. P. Korambath,  W. Kurlancheek,  A. M. Lee,  M. S. Lee,  
 S. V. Levchenko,  Ching Yeh Lin,  D. Liotard,  R. C. Lochan,  I. Lotan,  
 P. E. Maslen,  N. Nair,  D. P. O'Neill,  D. Neuhauser,  E. Neuscamman,  
 C. M. Oana,  R. Olson,  B. Peters,  R. Peverati,  P. A. Pieniazek,  
 Y. M. Rhee,  J. Ritchie,  M. A. Rohrdanz,  E. Rosta,  N. J. Russ,  
 H. F. Schaefer III,  N. E. Schultz,  N. Shenvi,  A. C. Simmonett,  A. Sodt,  
 D. Stuck,  K. S. Thanthiriwatte,  V. Vanovschi,  Tao Wang,  A. Warshel,  
 C. F. Williams,  Q. Wu,  X. Xu,  W. Zhang

 Please cite Q-Chem as follows:
 Y. Shao et al., Mol. Phys. 113, 184-215 (2015)
 DOI: 10.1080/00268976.2014.952696

 Q-Chem 5.1.0 for Intel X86 EM64T Linux

 Parts of Q-Chem use Armadillo 8.300.2 (Tropical Shenanigans).
 http://arma.sourceforge.net/

 Q-Chem begins on Tue Nov 13 20:27:05 2018  

Host: cori01
0

     Scratch files written to /tmp/qchem51303//
 Jun2518 |scratch|qcdevops|jenkins|workspace|build_RNUM -1
Processing $rem in /global/common/cori/software/qchem/5.1/config/preferences.
 MEM_TOTAL  96000 
Symmetry turned off for PCM/SM12/SMD calculation

Checking the input file for inconsistencies... 	...done.

--------------------------------------------------------------
User input:
--------------------------------------------------------------
$molecule
-1 2
S      1.1836851906      0.0036823011     -0.2156229670
C      0.7914028251      1.3007878182      1.0190606134
N      0.1260353797      0.2422281653     -1.3784218087
O      1.0599531297     -1.2766256490      0.4664931059
O      2.4907585442      0.3965250257     -0.7046703225
F     -0.3953071694      1.1972701760      1.5859350494
F      1.7288513135      1.4517353027      1.9420684929
S     -1.3584264209     -0.3309517459     -1.4537960934
C     -2.2548347175      1.2575259789     -1.8595776687
O     -1.5498994398     -1.1520692556     -2.6349854392
O     -1.9465765276     -0.7818113561     -0.2039704867
F     -1.8079427859      1.7890316338     -2.9926260463
F     -3.5554137890      0.9985341137     -2.0001898186
F     -2.1073957597      2.1496343795     -0.8838058229
$end

$rem
job_type = freq
basis = 6-311++g*
max_scf_cycles = 200
gen_scfman = true
scf_algorithm = gdm
method = wb97xd
geom_opt_max_cycles = 200
solvent_method = pcm
xc_grid = 3
$end

$pcm
heavypoints 194
hpoints 194
radii uff
theory cpcm
vdwscale 1.1
$end

$solvent
dielectric 3.0
$end
--------------------------------------------------------------
 ----------------------------------------------------------------
             Standard Nuclear Orientation (Angstroms)
    I     Atom           X                Y                Z
 ----------------------------------------------------------------
    1      S       1.1836851906     0.0036823011    -0.2156229670
    2      C       0.7914028251     1.3007878182     1.0190606134
    3      N       0.1260353797     0.2422281653    -1.3784218087
    4      O       1.0599531297    -1.2766256490     0.4664931059
    5      O       2.4907585442     0.3965250257    -0.7046703225
    6      F      -0.3953071694     1.1972701760     1.5859350494
    7      F       1.7288513135     1.4517353027     1.9420684929
    8      S      -1.3584264209    -0.3309517459    -1.4537960934
    9      C      -2.2548347175     1.2575259789    -1.8595776687
   10      O      -1.5498994398    -1.1520692556    -2.6349854392
   11      O      -1.9465765276    -0.7818113561    -0.2039704867
   12      F      -1.8079427859     1.7890316338    -2.9926260463
   13      F      -3.5554137890     0.9985341137    -2.0001898186
   14      F      -2.1073957597     2.1496343795    -0.8838058229
 ----------------------------------------------------------------
 Nuclear Repulsion Energy =  1406.6608709288 hartrees
 There are       65 alpha and       64 beta electrons
 Requested basis set is 6-311++G(d)
 There are 98 shells and 324 basis functions

 Total QAlloc Memory Limit  96000 MB
 Mega-Array Size       188 MB
 MEM_STATIC part       192 MB
 Discretize the solute cavity surface with Lebedev spheres
	Using 194 Lebedev grid points for each H atom
	Using 194 Lebedev grid points for other atoms
	Atomic van der Waals radii will be scaled by 1.10
 Remove points where switching function is < 1.0e-08
 Keep 1260 surface tesserae and discard 1456 interior tesserae
 Molecular Surface Area = 222.216 Angst**2

                       Distance Matrix (Angstroms)
             S (  1)   C (  2)   N (  3)   O (  4)   O (  5)   F (  6)
   C (  2)  1.833252
   N (  3)  1.589852  2.703920
   O (  4)  1.455947  2.649625  2.565703
   O (  5)  1.449805  2.583941  2.463669  2.493644
   F (  6)  2.676468  1.319221  3.157739  3.080762  3.770602
   F (  7)  2.655126  1.324212  3.880410  3.173122  2.949440  2.168786
   S (  8)  2.847347  3.660514  1.593061  3.229608  3.988313  3.535962
   C (  9)  4.012248  4.191419  2.632657  4.777065  4.959414  3.915741
   O ( 10)  3.829042  4.985003  2.516302  4.055369  4.738267  4.966754
   O ( 11)  3.227332  3.650966  2.593012  3.119869  4.618346  3.086578
   F ( 12)  4.455228  4.805061  2.956100  5.439539  5.064844  4.827934
   F ( 13)  5.160762  5.301136  3.809418  5.706355  6.212647  4.783938
   F ( 14)  3.985322  3.569940  2.978432  4.857434  4.924277  3.152438
             F (  7)   S (  8)   C (  9)   O ( 10)   O ( 11)   F ( 12)
   S (  8)  4.923531
   C (  9)  5.509990  1.868547
   O ( 10)  6.203179  1.451242  2.627611
   O ( 11)  4.806556  1.453017  2.644798  2.490839
   F ( 12)  6.080616  2.657892  1.328913  2.973982  3.795399
   F ( 13)  6.608347  2.625420  1.333550  3.008346  2.997397  2.159507
   F ( 14)  4.815539  2.653140  1.330311  3.778714  3.013538  2.160285
             F ( 13)
   F ( 14)  2.160579
 
 A cutoff of  1.0D-12 yielded   3778 shell pairs
 There are     43512 function pairs (     47038 Cartesian)
 
 -------------------------------------------------------
 OpenMP Integral Computing Module                       
 Release: version 1.0, May 2013, Q-Chem Inc. Pittsburgh 
 -------------------------------------------------------
 Integral Job Info:
 Integral job number is                      11
 Integral operator is                         1
 short-range coefficients              22203600
 long-range coefficients              100000000
 Omega coefficients                         200
 if combine SR and LR in K                    1
 Integral screening is                        0
 Integral computing path is                   2
 max size of driver memory is            800000
 size of driver memory is                593474
 size of scratch memory is              4293864
 max col of scratch BK array               1296
 max len of scratch array in speh3          155
 max len of scratch index in speh4           18
 max int batch size is                      520
 min int batch size is                       52
 fixed nKL is                                52
 max L of basis functions is                  2
 order of int derivative is                   0
 number of shells is                         98
 number of basis is                         338
 number of cartesian basis is               338
 number of contracted shell pairs          3778
 number of primitive shell pairs          10089
 maxK2 (contraction) of shell pair           36
 max number of K2 of shell pair               1
 max number of CS2 of shell pair            740
 max number of PS2 of shell pair           2538
 mem total for path MDJ                  603740
 -------------------------------------------------------
 Smallest overlap matrix eigenvalue = 4.90E-05
 Guess from superposition of atomic densities
 Warning:  Energy on first SCF cycle will be non-variational
 SAD guess density has 128.000000 electrons

 -----------------------------------------------------------------------
  General SCF calculation program by
  Eric Jon Sundstrom, Paul Horn, Yuezhi Mao, Dmitri Zuev, Alec White,
  David Stuck, Shaama M.S., Shane Yost, Joonho Lee, David Small,
  Daniel Levine, Susi Lehtola, Hugh Burton, Evgeny Epifanovsky
 -----------------------------------------------------------------------
 Exchange:     0.2220 Hartree-Fock + 1.0000 wB97X-D + LR-HF
 Correlation:  1.0000 wB97X-D
 Using SG-3 standard quadrature grid
 Dispersion:   Grimme D
 using 32 threads for integral computing
 -------------------------------------------------------
 OpenMP Integral computing Module                
 Release: version 1.0, May 2013, Q-Chem Inc. Pittsburgh 
 -------------------------------------------------------
 using 32 threads for integral computing
 -------------------------------------------------------
 OpenMP Integral computing Module                
 Release: version 1.0, May 2013, Q-Chem Inc. Pittsburgh 
 -------------------------------------------------------
 -------------------------------------------------------
 OpenMP BLAS3 based DFT computing Module                
 Release: version 1.0, May 2013, Q-Chem Inc. Pittsburgh 
 -------------------------------------------------------
 A unrestricted SCF calculation will be
 performed using Roothaan-Hall, GDM
 SCF converges when RMS gradient is below 1.0e-08
 ---------------------------------------
  Cycle       Energy         DIIS error
 ---------------------------------------
    1   -1730.7735685588      1.93e-02  Roothaan Step
 ---------------------------------------
  Cycle       Energy        RMS Gradient
 ---------------------------------------
    1   -1726.7087810601      1.95e-01   Descent step
    2   -1727.1530812336      6.24e-02   Descent step
    3   -1727.3299379843      2.08e-02   Normal BFGS step
    4   -1727.3480796618      9.93e-03   Normal BFGS step
    5   -1727.3495142471      8.86e-03   Normal BFGS step
    6   -1727.3510626355      3.49e-03   Normal BFGS step
    7   -1727.3511327123      1.85e-03   Normal BFGS step
    8   -1727.3511560447      3.68e-04   Normal BFGS step
    9   -1727.3511591977      3.01e-04   Normal BFGS step
   10   -1727.3511613235      1.48e-04   Normal BFGS step
   11   -1727.3511614183      7.24e-05   Normal BFGS step
   12   -1727.3511614975      1.63e-05   Normal BFGS step
   13   -1727.3511615018      6.39e-06   Normal BFGS step
   14   -1727.3511615035      1.68e-06   Normal BFGS step
   15   -1727.3511615036      1.50e-06   Normal BFGS step
   16   -1727.3511615037      3.66e-07   Normal BFGS step
   17   -1727.3511615037      2.15e-07   Normal BFGS step
   18   -1727.3511615037      9.58e-08   Normal BFGS step
   19   -1727.3511615037      4.66e-08   Normal BFGS step
   20   -1727.3511615037      1.13e-08   Normal BFGS step
   21   -1727.3511615037      6.35e-09  Convergence criterion met
 ---------------------------------------
 SCF time:   CPU 1667.25s  wall 91.00s 
<S^2> =          0.753262972

************** Final PCM Free Energy Summary **************
 G_electrostatic  =      -0.05103870 hartree =     -32.02726477 kcal/mol
 G_cavitation     =       0.00000000 hartree =       0.00000000 kcal/mol
 G_dispersion     =       0.00000000 hartree =       0.00000000 kcal/mol
 G_repulsion      =       0.00000000 hartree =       0.00000000 kcal/mol
 --------------------------------------------------
 Non-electrostatic Free Energy =       0.00000000 hartree =       0.00000000 kcal/mol
 Total                         =      -0.05103870 hartree =     -32.02726477 kcal/mol
 --------------------------------------------------
 SCF Energy (H0 + V/2)                       =   -1727.35116150 
 Solute Internal Energy (H0)                 =   -1727.30012281 
 Total Free Energy (H0 + V/2 + non-elec)     =   -1727.35116150 hartree
                                             = -1083929.21358641 kcal/mol
***********************************************************

 SCF   energy in the final basis set =    -1727.3511615037
 Total energy in the final basis set =    -1727.3511615037
 
 --------------------------------------------------------------
 
                    Orbital Energies (a.u.)
 --------------------------------------------------------------
 
 Alpha MOs
 -- Occupied --
-89.209 -89.208 -24.833 -24.833 -24.831 -24.831 -24.830 -19.216
-19.216 -19.215 -19.211 -14.404 -10.531 -10.450  -8.231  -8.230
 -6.179  -6.179  -6.179  -6.178  -6.178  -6.177  -1.421  -1.389
 -1.329  -1.328  -1.327  -1.213  -1.196  -1.089  -1.086  -0.992
 -0.838  -0.809  -0.760  -0.707  -0.683  -0.682  -0.668  -0.657
 -0.617  -0.599  -0.571  -0.557  -0.553  -0.542  -0.539  -0.534
 -0.526  -0.519  -0.515  -0.512  -0.506  -0.493  -0.459  -0.414
 -0.409  -0.405  -0.387  -0.382  -0.374  -0.364  -0.338  -0.329
 -0.296
 -- Virtual --
  0.102   0.111   0.120   0.128   0.140   0.140   0.146   0.148
  0.154   0.156   0.161   0.172   0.179   0.183   0.185   0.189
  0.199   0.202   0.214   0.215   0.234   0.239   0.257   0.264
  0.290   0.297   0.309   0.311   0.323   0.329   0.332   0.339
  0.347   0.347   0.352   0.357   0.362   0.371   0.373   0.377
  0.389   0.393   0.401   0.410   0.414   0.415   0.416   0.423
  0.425   0.432   0.438   0.446   0.451   0.460   0.461   0.470
  0.474   0.480   0.485   0.499   0.501   0.507   0.517   0.535
  0.538   0.550   0.563   0.568   0.587   0.602   0.604   0.619
  0.634   0.659   0.666   0.686   0.711   0.725   0.751   0.793
  0.826   0.862   0.919   0.932   0.935   0.956   0.967   1.008
  1.034   1.056   1.085   1.121   1.134   1.156   1.166   1.185
  1.196   1.213   1.242   1.246   1.253   1.260   1.270   1.278
  1.295   1.299   1.308   1.312   1.319   1.330   1.350   1.367
  1.370   1.409   1.418   1.462   1.487   1.503   1.508   1.519
  1.537   1.542   1.557   1.584   1.586   1.591   1.599   1.609
  1.626   1.661   1.677   1.734   1.756   1.776   1.819   1.841
  1.855   1.918   1.922   1.936   1.992   2.010   2.029   2.035
  2.048   2.076   2.079   2.103   2.141   2.167   2.242   2.295
  2.339   2.362   2.696   2.747   2.815   2.894   2.926   2.937
  2.942   2.953   2.963   2.967   2.980   2.985   3.016   3.043
  3.061   3.068   3.075   3.132   3.147   3.175   3.203   3.241
  3.281   3.298   3.599   3.607   3.729   3.740   3.811   3.848
  3.850   3.852   3.858   3.861   3.873   3.879   3.881   3.888
  3.912   3.915   3.971   3.985   4.079   4.101   4.107   4.164
  4.233   4.302   4.305   4.308   4.379   4.491   4.621   5.020
  5.042   5.044   5.154   5.161   5.169   5.195   5.210   5.219
  5.223   5.258   5.293   5.311   5.449   5.468   6.412   6.413
  6.420   6.455   6.465   6.484   6.489   6.507   6.524   6.533
  6.571   6.577   6.889   6.893   6.922   8.285   8.324  17.500
 17.531  17.561  17.613  17.659  17.681  23.631  23.658  35.603
 50.037  50.043  50.085  50.086  66.907  66.916  66.927  66.931
 66.971 189.513 189.554
 
 Beta MOs
 -- Occupied --
-89.209 -89.208 -24.831 -24.831 -24.830 -24.830 -24.830 -19.216
-19.215 -19.214 -19.211 -14.404 -10.531 -10.437  -8.231  -8.229
 -6.179  -6.179  -6.179  -6.178  -6.177  -6.177  -1.421  -1.380
 -1.329  -1.328  -1.319  -1.212  -1.195  -1.088  -1.083  -0.991
 -0.834  -0.797  -0.755  -0.703  -0.682  -0.682  -0.663  -0.649
 -0.598  -0.583  -0.568  -0.557  -0.553  -0.539  -0.535  -0.525
 -0.522  -0.516  -0.513  -0.510  -0.503  -0.492  -0.458  -0.412
 -0.406  -0.391  -0.382  -0.381  -0.372  -0.361  -0.336  -0.327
 -- Virtual --
  0.003   0.105   0.112   0.121   0.129   0.142   0.142   0.147
  0.150   0.156   0.158   0.162   0.174   0.181   0.183   0.187
  0.189   0.199   0.209   0.216   0.222   0.239   0.242   0.260
  0.268   0.291   0.300   0.312   0.317   0.324   0.329   0.333
  0.341   0.348   0.349   0.353   0.359   0.366   0.372   0.375
  0.379   0.391   0.394   0.401   0.411   0.414   0.415   0.417
  0.424   0.425   0.432   0.439   0.447   0.452   0.461   0.463
  0.470   0.475   0.480   0.487   0.500   0.503   0.508   0.517
  0.535   0.539   0.550   0.563   0.568   0.588   0.603   0.604
  0.619   0.636   0.659   0.669   0.687   0.716   0.732   0.756
  0.802   0.827   0.872   0.920   0.934   0.937   0.957   0.971
  1.011   1.041   1.057   1.086   1.123   1.135   1.157   1.167
  1.186   1.198   1.213   1.244   1.249   1.254   1.261   1.271
  1.279   1.297   1.300   1.312   1.316   1.320   1.333   1.352
  1.371   1.380   1.413   1.423   1.466   1.490   1.504   1.510
  1.520   1.538   1.545   1.561   1.584   1.587   1.598   1.608
  1.616   1.627   1.667   1.704   1.740   1.762   1.777   1.821
  1.856   1.863   1.921   1.932   1.940   1.992   2.013   2.034
  2.036   2.051   2.078   2.081   2.108   2.145   2.172   2.243
  2.296   2.340   2.363   2.696   2.751   2.863   2.894   2.931
  2.937   2.944   2.956   2.966   2.969   2.981   2.985   3.020
  3.046   3.063   3.070   3.080   3.139   3.149   3.184   3.204
  3.245   3.282   3.303   3.599   3.609   3.731   3.741   3.811
  3.848   3.852   3.858   3.860   3.867   3.878   3.880   3.883
  3.896   3.913   3.919   3.971   3.985   4.086   4.105   4.118
  4.165   4.233   4.305   4.307   4.308   4.380   4.491   4.629
  5.025   5.042   5.045   5.156   5.162   5.170   5.195   5.212
  5.221   5.225   5.258   5.295   5.311   5.450   5.469   6.413
  6.421   6.430   6.455   6.469   6.484   6.492   6.507   6.524
  6.533   6.574   6.578   6.889   6.893   6.928   8.286   8.324
 17.501  17.532  17.561  17.613  17.659  17.681  23.631  23.681
 35.603  50.038  50.043  50.085  50.087  66.909  66.917  66.927
 66.932  66.971 189.513 189.554
 --------------------------------------------------------------
 
          Ground-State Mulliken Net Atomic Charges

     Atom                 Charge (a.u.)    Spin (a.u.)
  --------------------------------------------------------
      1 S                     0.610524       0.014844
      2 C                    -0.238611       0.813988
      3 N                    -0.715806       0.006480
      4 O                    -0.153518       0.063239
      5 O                    -0.230002       0.006730
      6 F                    -0.008843       0.048798
      7 F                    -0.055984       0.045205
      8 S                     0.312165      -0.003694
      9 C                     0.005176       0.005344
     10 O                    -0.123673      -0.001004
     11 O                    -0.194642       0.000076
     12 F                    -0.055331       0.000234
     13 F                    -0.084454      -0.000084
     14 F                    -0.067000      -0.000157
  --------------------------------------------------------
  Sum of atomic charges =    -1.000000
  Sum of spin   charges =     1.000000

 -----------------------------------------------------------------
                    Cartesian Multipole Moments
 -----------------------------------------------------------------
    Charge (ESU x 10^10)
                -4.8032
    Dipole Moment (Debye)
         X      -0.2369      Y       2.8806      Z       4.4505
       Tot       5.3067
    Quadrupole Moments (Debye-Ang)
        XX    -114.2102     XY      -4.0782     YY     -99.5727
        XZ      -3.5127     YZ      -1.5201     ZZ    -108.7772
    Octopole Moments (Debye-Ang^2)
       XXX     113.9539    XXY     -31.8811    XYY      44.4717
       YYY     -94.5936    XXZ      82.7101    XYZ       8.4448
       YYZ      71.1677    XZZ      54.3552    YZZ     -26.3974
       ZZZ     234.8577
    Hexadecapole Moments (Debye-Ang^3)
      XXXX   -1863.8481   XXXY      79.2095   XXYY    -425.2170
      XYYY     102.5331   YYYY    -718.3467   XXXZ    -475.9081
      XXYZ       5.8586   XYYZ    -171.4482   YYYZ      33.1742
      XXZZ    -556.2274   XYZZ      11.7343   YYZZ    -371.6639
      XZZZ    -523.0178   YZZZ       2.4626   ZZZZ   -1471.9237
 -----------------------------------------------------------------
 Calculating MO derivatives via CPSCF
 Computing fast CPCM-SWIG hessian.
 D1JvT checksum  = 2034312 97927.9171168965
 D1KAT checksum  = 4983552 5728.3077953754
 D1JvT checksum  = 2034312 67361.6600335732
 D1KAT checksum  = 4983552 2677.2210384137
   1         3          42      0.150634    0.021059
   2         3          42      0.037177    0.005369
   3         3          42      0.006713    0.001283
   4         3          42      0.001371    0.000352
   5         4          41      0.000274    0.000074
   6        40           5      0.000032    0.000014
   7        42           3      0.000005    0.000003
   8        45           0      0.000000    0.000000    Roots Converged
 Time for AOints: 437.8 s (CPU) 39.9 s (wall)
 ------------------------------------------------------------------------------
                     AOints        : Timing summary (seconds)
 ------------------------------------------------------------------------------
     job step          cpu (% of tot)      sys (% of tot)     wall (% of tot)
 ------------------------------------------------------------------------------
  cpscf_lag         0.3772E+04 (38.6)   0.1998E-01 (57.4)   0.1054E+04 (44.3)
  iterzp            0.5562E+04 (56.9)   0.1312E-01 (37.7)   0.1283E+04 (54.0)
  make_fx           0.0000E+00 ( 0.0)   0.0000E+00 ( 0.0)   0.0000E+00 ( 0.0)
  AOints            0.4378E+03 ( 4.5)   0.1709E-02 ( 4.9)   0.3988E+02 ( 1.7)
 ------------------------------------------------------------------------------
   Grand Totals     0.9773E+04          0.3482E-01          0.2378E+04
 ------------------------------------------------------------------------------
 Calculating analytic Hessian of the SCF energy
 Polarizability Matrix (a.u.)
            1           2           3
    1-113.5629657  -3.0087417  -9.4170589
    2  -3.0087417 -96.8563515  -3.9433833
    3  -9.4170589  -3.9433833-102.6436655
atom: 0 element: 16
atom: 1 element: 6
atom: 2 element: 7
atom: 3 element: 8
atom: 4 element: 8
atom: 5 element: 9
atom: 6 element: 9
atom: 7 element: 16
atom: 8 element: 6
atom: 9 element: 8
atom: 10 element: 8
atom: 11 element: 9
atom: 12 element: 9
atom: 13 element: 9
 
 Direct stationary perturbation theory relativistic correction:
 
 rels  =       1.606013392631
 relv  =      -6.662447327551
 rel2e =       0.000000000000
 E_rel =      -5.056433934920
 
 Computing fast CPCM-SWIG hessian
 Hessian of the SCF Energy
            1           2           3           4           5           6
    1   0.7534234   0.1526041  -0.0906787  -0.0279898   0.0152618   0.0294308
    2   0.1526041   0.6549423  -0.2255739   0.0242549  -0.0932773  -0.0978620
    3  -0.0906787  -0.2255739   0.4948735   0.0206918  -0.0343340  -0.1163279
    4  -0.0279898   0.0242549   0.0206918   0.4408344   0.0276727  -0.0127645
    5   0.0152618  -0.0932773  -0.0343340   0.0276727   0.1158981   0.0667111
    6   0.0294308  -0.0978620  -0.1163279  -0.0127645   0.0667111   0.4304953
    7  -0.1535378   0.0213384  -0.1299390  -0.0130159   0.0111560   0.0079731
    8   0.0156595  -0.0389801   0.0259390  -0.0074316   0.0108717   0.0009261
    9  -0.1145939   0.0288689  -0.1642515  -0.0160004   0.0117169   0.0104570
   10  -0.0117341  -0.0380809   0.0190408  -0.0037995   0.0029609  -0.0018099
   11  -0.0496713  -0.4520507   0.2252952  -0.0051272  -0.0228030   0.0334482
   12   0.0276776   0.2205107  -0.1253521   0.0013333  -0.0116331  -0.0008045
   13  -0.4766204  -0.1432609   0.1903562  -0.0136093  -0.0139011  -0.0116376
   14  -0.1356980  -0.0657364   0.0469034   0.0083967   0.0050889  -0.0030069
   15   0.1816599   0.0457263  -0.0928940   0.0124245   0.0077663   0.0066129
   16  -0.0182708  -0.0138280  -0.0103487  -0.2499540  -0.0208576   0.1422414
   17   0.0166647   0.0038401  -0.0129716  -0.0341831  -0.0093864   0.0189708
   18   0.0174821   0.0221451   0.0120962   0.1367995  -0.0032593  -0.1181866
   19  -0.0117772   0.0032683   0.0066407  -0.1439340  -0.0186574  -0.1486126
   20  -0.0134106   0.0002437  -0.0191330  -0.0146197  -0.0060221  -0.0154215
   21  -0.0258900   0.0167121   0.0047875  -0.1381976  -0.0375408  -0.2089378
   22  -0.0888708   0.0071139  -0.0431699   0.0175714  -0.0074890  -0.0101181
   23  -0.0148613   0.0012536  -0.0224364   0.0018249  -0.0022108  -0.0059348
   24  -0.0342167  -0.0136542  -0.0105741  -0.0115218  -0.0003372  -0.0025978
   25  -0.0077756   0.0038051  -0.0001547  -0.0003479  -0.0008352  -0.0014995
   26   0.0094482   0.0036183   0.0163367  -0.0031068   0.0014122   0.0022033
   27  -0.0020304   0.0024748   0.0018631  -0.0041175  -0.0002738  -0.0006476
   28   0.0139390  -0.0115988   0.0099407  -0.0042098   0.0017951   0.0008287
   29   0.0072843  -0.0083978   0.0039390  -0.0015127   0.0013257   0.0005744
   30   0.0127066  -0.0054705   0.0093417   0.0001892   0.0007818   0.0010171
   31   0.0177328  -0.0031802   0.0154977  -0.0013233   0.0016740   0.0034702
   32   0.0072042  -0.0047036   0.0095801   0.0011404   0.0004992   0.0009757
   33  -0.0063044   0.0078973  -0.0154902   0.0068074  -0.0000301  -0.0018182
   34   0.0020586  -0.0003151   0.0011467  -0.0004058   0.0000539   0.0005209
   35  -0.0040517   0.0000508  -0.0041306  -0.0000882  -0.0005494  -0.0006489
   36   0.0036857  -0.0005903   0.0027179   0.0014161   0.0002984   0.0006152
   37   0.0061848  -0.0000818   0.0096633   0.0000391   0.0007385   0.0017882
   38  -0.0025743  -0.0006553  -0.0050079   0.0007369  -0.0003889  -0.0005660
   39   0.0010705  -0.0000025   0.0018409   0.0004036   0.0001669   0.0003025
   40   0.0032379  -0.0020390   0.0013131   0.0001444   0.0004276   0.0001890
   41  -0.0038596  -0.0001476  -0.0044059   0.0020430  -0.0004579  -0.0003695
   42   0.0000009  -0.0011818  -0.0026309   0.0025366  -0.0000331  -0.0001796
            7           8           9          10          11          12
    1  -0.1535378   0.0156595  -0.1145939  -0.0117341  -0.0496713   0.0276776
    2   0.0213384  -0.0389801   0.0288689  -0.0380809  -0.4520507   0.2205107
    3  -0.1299390   0.0259390  -0.1642515   0.0190408   0.2252952  -0.1253521
    4  -0.0130159  -0.0074316  -0.0160004  -0.0037995  -0.0051272   0.0013333
    5   0.0111560   0.0108717   0.0117169   0.0029609  -0.0228030  -0.0116331
    6   0.0079731   0.0009261   0.0104570  -0.0018099   0.0334482  -0.0008045
    7   0.5157291   0.0725951   0.2047732  -0.0072911   0.0054032  -0.0150548
    8   0.0725951   0.1042375  -0.0336215   0.0145827  -0.0020988   0.0178162
    9   0.2047732  -0.0336215   0.2391586  -0.0130375   0.0071326  -0.0172769
   10  -0.0072911   0.0145827  -0.0130375   0.0200759   0.0500752  -0.0238413
   11   0.0054032  -0.0020988   0.0071326   0.0500752   0.4798570  -0.2520330
   12  -0.0150548   0.0178162  -0.0172769  -0.0238413  -0.2520330   0.1440112
   13  -0.0359497  -0.0099584  -0.0030056  -0.0070433   0.0057897  -0.0021528
   14  -0.0017543   0.0014147   0.0020142  -0.0297908  -0.0078767   0.0167951
   15  -0.0232276  -0.0034171   0.0020064   0.0154207   0.0078595  -0.0013874
   16   0.0113727   0.0014612   0.0054900   0.0030774   0.0101717  -0.0000641
   17  -0.0010260  -0.0010549  -0.0004664  -0.0019222   0.0057613   0.0010326
   18  -0.0077006  -0.0020849  -0.0043900  -0.0016372  -0.0088680  -0.0001486
   19  -0.0023397  -0.0019437  -0.0042491   0.0021191  -0.0073057   0.0003285
   20  -0.0051737  -0.0027327  -0.0055816   0.0018630   0.0028302   0.0026174
   21  -0.0108902  -0.0068875  -0.0122915   0.0033368  -0.0115374   0.0002309
   22  -0.2544289  -0.0721487  -0.0347172   0.0078701  -0.0163625   0.0212591
   23  -0.0653362  -0.0713703   0.0032539  -0.0004266  -0.0115349   0.0106135
   24  -0.0204684   0.0068949  -0.0506604   0.0081682   0.0006757  -0.0015908
   25   0.0040021   0.0020661  -0.0034739   0.0011863  -0.0008429   0.0006648
   26  -0.0374234   0.0037858  -0.0161469  -0.0014596   0.0017589  -0.0045638
   27   0.0053472  -0.0014023   0.0056153  -0.0000302  -0.0008768   0.0003746
   28  -0.0200948  -0.0153367  -0.0242906  -0.0007425   0.0024663  -0.0023998
   29  -0.0158268   0.0001835  -0.0128583  -0.0009083   0.0032249  -0.0021026
   30  -0.0055041  -0.0023722  -0.0102914  -0.0019713   0.0019765  -0.0019528
   31  -0.0259471  -0.0085226   0.0133733  -0.0019834   0.0026043  -0.0038658
   32  -0.0117036  -0.0045739   0.0033362   0.0012503   0.0039628  -0.0023747
   33   0.0021132  -0.0051854   0.0000769  -0.0030011  -0.0040483   0.0043543
   34   0.0005356   0.0018193  -0.0012517  -0.0002933   0.0002857  -0.0004882
   35   0.0089986  -0.0006059   0.0016665   0.0007307  -0.0002625   0.0007855
   36  -0.0067598   0.0008676  -0.0000491  -0.0006572   0.0004312  -0.0004768
   37  -0.0181562   0.0037177  -0.0092183  -0.0011233   0.0020065  -0.0030336
   38   0.0090727  -0.0002120   0.0048695   0.0003778  -0.0003997   0.0012816
   39  -0.0041244   0.0006954  -0.0016221  -0.0002314   0.0003621  -0.0005943
   40  -0.0008784   0.0034403   0.0002018  -0.0003183   0.0005072  -0.0003628
   41   0.0096800   0.0011353   0.0058158   0.0007480  -0.0003689   0.0012546
   42   0.0034623   0.0018317   0.0035185   0.0002504   0.0001826   0.0006132
           13          14          15          16          17          18
    1  -0.4766204  -0.1356980   0.1816599  -0.0182708   0.0166647   0.0174821
    2  -0.1432609  -0.0657364   0.0457263  -0.0138280   0.0038401   0.0221451
    3   0.1903562   0.0469034  -0.0928940  -0.0103487  -0.0129716   0.0120962
    4  -0.0136093   0.0083967   0.0124245  -0.2499540  -0.0341831   0.1367995
    5  -0.0139011   0.0050889   0.0077663  -0.0208576  -0.0093864  -0.0032593
    6  -0.0116376  -0.0030069   0.0066129   0.1422414   0.0189708  -0.1181866
    7  -0.0359497  -0.0017543  -0.0232276   0.0113727  -0.0010260  -0.0077006
    8  -0.0099584   0.0014147  -0.0034171   0.0014612  -0.0010549  -0.0020849
    9  -0.0030056   0.0020142   0.0020064   0.0054900  -0.0004664  -0.0043900
   10  -0.0070433  -0.0297908   0.0154207   0.0030774  -0.0019222  -0.0016372
   11   0.0057897  -0.0078767   0.0078595   0.0101717   0.0057613  -0.0088680
   12  -0.0021528   0.0167951  -0.0013874  -0.0000641   0.0010326  -0.0001486
   13   0.5309203   0.1516132  -0.1908137  -0.0063945   0.0046851   0.0088898
   14   0.1516132   0.0663735  -0.0563984   0.0043836  -0.0019267  -0.0059262
   15  -0.1908137  -0.0563984   0.0954511   0.0087950  -0.0043320  -0.0087510
   16  -0.0063945   0.0043836   0.0087950   0.3416168   0.0272716  -0.1331667
   17   0.0046851  -0.0019267  -0.0043320   0.0272716  -0.0014105   0.0023194
   18   0.0088898  -0.0059262  -0.0087510  -0.1331667   0.0023194   0.0906930
   19   0.0081648   0.0011553  -0.0019792  -0.0773220  -0.0109045  -0.0225538
   20   0.0017455  -0.0012417  -0.0000957  -0.0078283   0.0043702  -0.0045713
   21   0.0074623  -0.0011978  -0.0033843  -0.0133909  -0.0039570   0.0288365
   22   0.0129008   0.0031586   0.0009976  -0.0090068  -0.0009877   0.0058486
   23   0.0102738   0.0044307   0.0050240  -0.0019015  -0.0007684   0.0011682
   24   0.0037093   0.0017395  -0.0000281   0.0055533   0.0009497  -0.0012467
   25   0.0014113  -0.0006894  -0.0005736  -0.0000187   0.0002573   0.0005076
   26  -0.0060431  -0.0021593  -0.0023893   0.0024073  -0.0005916  -0.0014483
   27   0.0015702  -0.0001357  -0.0009403   0.0026528   0.0001440  -0.0003156
   28  -0.0031576   0.0006115   0.0003809   0.0021667   0.0000853  -0.0012770
   29  -0.0032318   0.0000426   0.0001777   0.0007027  -0.0000554  -0.0006829
   30  -0.0046155   0.0000949  -0.0000360  -0.0002650  -0.0005246  -0.0007020
   31  -0.0062527  -0.0007681  -0.0017809   0.0021251   0.0001526  -0.0019428
   32  -0.0028703  -0.0000018  -0.0017362  -0.0001249   0.0004222  -0.0002694
   33   0.0026672  -0.0006109   0.0030041  -0.0043932  -0.0013606   0.0013960
   34  -0.0001767   0.0001171  -0.0001725   0.0003046  -0.0000009  -0.0001514
   35   0.0019311   0.0004968   0.0005091  -0.0000152   0.0001852   0.0003151
   36  -0.0019988  -0.0003241  -0.0001325  -0.0008086  -0.0001205  -0.0000135
   37  -0.0033421  -0.0008490  -0.0011967   0.0003270  -0.0000865  -0.0007887
   38   0.0013583   0.0005508   0.0006627  -0.0005531   0.0001004   0.0003820
   39  -0.0007773  -0.0001987  -0.0001670  -0.0001582   0.0000238  -0.0000160
   40  -0.0008508   0.0001136   0.0000656  -0.0000234  -0.0000058  -0.0003093
   41   0.0018688   0.0005445   0.0006431  -0.0012894   0.0005144   0.0007806
   42   0.0003463   0.0002516   0.0006462  -0.0021370   0.0002924   0.0007484
           19          20          21          22          23          24
    1  -0.0117772  -0.0134106  -0.0258900  -0.0888708  -0.0148613  -0.0342167
    2   0.0032683   0.0002437   0.0167121   0.0071139   0.0012536  -0.0136542
    3   0.0066407  -0.0191330   0.0047875  -0.0431699  -0.0224364  -0.0105741
    4  -0.1439340  -0.0146197  -0.1381976   0.0175714   0.0018249  -0.0115218
    5  -0.0186574  -0.0060221  -0.0375408  -0.0074890  -0.0022108  -0.0003372
    6  -0.1486126  -0.0154215  -0.2089378  -0.0101181  -0.0059348  -0.0025978
    7  -0.0023397  -0.0051737  -0.0108902  -0.2544289  -0.0653362  -0.0204684
    8  -0.0019437  -0.0027327  -0.0068875  -0.0721487  -0.0713703   0.0068949
    9  -0.0042491  -0.0055816  -0.0122915  -0.0347172   0.0032539  -0.0506604
   10   0.0021191   0.0018630   0.0033368   0.0078701  -0.0004266   0.0081682
   11  -0.0073057   0.0028302  -0.0115374  -0.0163625  -0.0115349   0.0006757
   12   0.0003285   0.0026174   0.0002309   0.0212591   0.0106135  -0.0015908
   13   0.0081648   0.0017455   0.0074623   0.0129008   0.0102738   0.0037093
   14   0.0011553  -0.0012417  -0.0011978   0.0031586   0.0044307   0.0017395
   15  -0.0019792  -0.0000957  -0.0033843   0.0009976   0.0050240  -0.0000281
   16  -0.0773220  -0.0078283  -0.0133909  -0.0090068  -0.0019015   0.0055533
   17  -0.0109045   0.0043702  -0.0039570  -0.0009877  -0.0007684   0.0009497
   18  -0.0225538  -0.0045713   0.0288365   0.0058486   0.0011682  -0.0012467
   19   0.2234459   0.0342888   0.1706825   0.0041173   0.0018963   0.0020785
   20   0.0342888   0.0020592   0.0432332   0.0057111   0.0019843  -0.0010531
   21   0.1706825   0.0432332   0.1916482   0.0140466   0.0048918   0.0005534
   22   0.0041173   0.0057111   0.0140466   0.5162150   0.1119155  -0.0760298
   23   0.0018963   0.0019843   0.0048918   0.1119155   0.5133335   0.0852227
   24   0.0020785  -0.0010531   0.0005534  -0.0760298   0.0852227   0.9649088
   25   0.0008928   0.0004321   0.0016556  -0.0607013   0.0797792  -0.0181678
   26  -0.0004639  -0.0009211  -0.0021740   0.0839900  -0.1571611   0.0365305
   27   0.0013614   0.0000293   0.0010893  -0.0207042   0.0371505  -0.0269960
   28  -0.0009647  -0.0015606  -0.0034242  -0.0265752  -0.0312195  -0.0636274
   29  -0.0009285  -0.0008932  -0.0021186  -0.0205430  -0.2134886  -0.2655272
   30  -0.0013574  -0.0006331  -0.0022703  -0.0504138  -0.2642844  -0.4044203
   31  -0.0011337  -0.0008336  -0.0029580  -0.1050918  -0.0663099   0.1974385
   32  -0.0009483  -0.0005415  -0.0014234  -0.0643509  -0.0757015   0.1615634
   33  -0.0007981   0.0006929   0.0009742   0.1855754   0.1577762  -0.4364157
   34  -0.0000328  -0.0000748  -0.0002148   0.0019385   0.0008756  -0.0032631
   35   0.0003943   0.0002609   0.0007832  -0.0206676   0.0060227   0.0205544
   36  -0.0006464  -0.0001773  -0.0007555   0.0184417  -0.0078845  -0.0177907
   37  -0.0008150  -0.0004226  -0.0016166  -0.0186499  -0.0283659   0.0029740
   38   0.0001253   0.0002086   0.0005459   0.0086846   0.0075195  -0.0004314
   39  -0.0002624  -0.0000571  -0.0003596  -0.0033868  -0.0055944  -0.0011350
   40  -0.0004207  -0.0001167  -0.0006016   0.0027115   0.0018556   0.0073732
   41   0.0000237   0.0003953   0.0006703  -0.0180244  -0.0023086  -0.0331279
   42  -0.0006327   0.0001510  -0.0001209  -0.0076292   0.0010334  -0.0120065
           25          26          27          28          29          30
    1  -0.0077756   0.0094482  -0.0020304   0.0139390   0.0072843   0.0127066
    2   0.0038051   0.0036183   0.0024748  -0.0115988  -0.0083978  -0.0054705
    3  -0.0001547   0.0163367   0.0018631   0.0099407   0.0039390   0.0093417
    4  -0.0003479  -0.0031068  -0.0041175  -0.0042098  -0.0015127   0.0001892
    5  -0.0008352   0.0014122  -0.0002738   0.0017951   0.0013257   0.0007818
    6  -0.0014995   0.0022033  -0.0006476   0.0008287   0.0005744   0.0010171
    7   0.0040021  -0.0374234   0.0053472  -0.0200948  -0.0158268  -0.0055041
    8   0.0020661   0.0037858  -0.0014023  -0.0153367   0.0001835  -0.0023722
    9  -0.0034739  -0.0161469   0.0056153  -0.0242906  -0.0128583  -0.0102914
   10   0.0011863  -0.0014596  -0.0000302  -0.0007425  -0.0009083  -0.0019713
   11  -0.0008429   0.0017589  -0.0008768   0.0024663   0.0032249   0.0019765
   12   0.0006648  -0.0045638   0.0003746  -0.0023998  -0.0021026  -0.0019528
   13   0.0014113  -0.0060431   0.0015702  -0.0031576  -0.0032318  -0.0046155
   14  -0.0006894  -0.0021593  -0.0001357   0.0006115   0.0000426   0.0000949
   15  -0.0005736  -0.0023893  -0.0009403   0.0003809   0.0001777  -0.0000360
   16  -0.0000187   0.0024073   0.0026528   0.0021667   0.0007027  -0.0002650
   17   0.0002573  -0.0005916   0.0001440   0.0000853  -0.0000554  -0.0005246
   18   0.0005076  -0.0014483  -0.0003156  -0.0012770  -0.0006829  -0.0007020
   19   0.0008928  -0.0004639   0.0013614  -0.0009647  -0.0009285  -0.0013574
   20   0.0004321  -0.0009211   0.0000293  -0.0015606  -0.0008932  -0.0006331
   21   0.0016556  -0.0021740   0.0010893  -0.0034242  -0.0021186  -0.0022703
   22  -0.0607013   0.0839900  -0.0207042  -0.0265752  -0.0205430  -0.0504138
   23   0.0797792  -0.1571611   0.0371505  -0.0312195  -0.2134886  -0.2642844
   24  -0.0181678   0.0365305  -0.0269960  -0.0636274  -0.2655272  -0.4044203
   25   0.4141304  -0.0036104   0.0000464   0.0029174  -0.0181507  -0.0119193
   26  -0.0036104   0.4349962  -0.0036831  -0.0020121   0.0124686   0.0127156
   27   0.0000464  -0.0036831   0.4268762   0.0047300  -0.0252194  -0.0127776
   28   0.0029174  -0.0020121   0.0047300   0.0311315   0.0457704   0.0630564
   29  -0.0181507   0.0124686  -0.0252194   0.0457704   0.2199686   0.2877383
   30  -0.0119193   0.0127156  -0.0127776   0.0630564   0.2877383   0.4351735
   31  -0.0065043   0.0019196  -0.0012687   0.0033958  -0.0076698  -0.0062996
   32  -0.0197637   0.0095005   0.0093118   0.0025567   0.0071032  -0.0210787
   33   0.0205135  -0.0196005  -0.0135939   0.0159936   0.0121418  -0.0242401
   34  -0.0536196  -0.0255959   0.0517788  -0.0001927   0.0011816  -0.0001602
   35  -0.0252542  -0.0961449   0.0961820   0.0026695  -0.0027211  -0.0037848
   36   0.0515521   0.0964484  -0.2011290  -0.0023920   0.0053243   0.0082049
   37  -0.2579284  -0.0133461  -0.0304176   0.0027832   0.0092830   0.0046674
   38  -0.0134222  -0.0419472  -0.0004959   0.0007089  -0.0017958   0.0003357
   39  -0.0299992  -0.0004071  -0.0374591   0.0005222   0.0039931   0.0029937
   40  -0.0376445  -0.0047038  -0.0089181  -0.0003962   0.0045496   0.0018866
   41  -0.0037711  -0.1686153  -0.1132053   0.0050640  -0.0169651  -0.0054945
   42  -0.0091518  -0.1138216  -0.1419594   0.0019586  -0.0053795  -0.0000403
           31          32          33          34          35          36
    1   0.0177328   0.0072042  -0.0063044   0.0020586  -0.0040517   0.0036857
    2  -0.0031802  -0.0047036   0.0078973  -0.0003151   0.0000508  -0.0005903
    3   0.0154977   0.0095801  -0.0154902   0.0011467  -0.0041306   0.0027179
    4  -0.0013233   0.0011404   0.0068074  -0.0004058  -0.0000882   0.0014161
    5   0.0016740   0.0004992  -0.0000301   0.0000539  -0.0005494   0.0002984
    6   0.0034702   0.0009757  -0.0018182   0.0005209  -0.0006489   0.0006152
    7  -0.0259471  -0.0117036   0.0021132   0.0005356   0.0089986  -0.0067598
    8  -0.0085226  -0.0045739  -0.0051854   0.0018193  -0.0006059   0.0008676
    9   0.0133733   0.0033362   0.0000769  -0.0012517   0.0016665  -0.0000491
   10  -0.0019834   0.0012503  -0.0030011  -0.0002933   0.0007307  -0.0006572
   11   0.0026043   0.0039628  -0.0040483   0.0002857  -0.0002625   0.0004312
   12  -0.0038658  -0.0023747   0.0043543  -0.0004882   0.0007855  -0.0004768
   13  -0.0062527  -0.0028703   0.0026672  -0.0001767   0.0019311  -0.0019988
   14  -0.0007681  -0.0000018  -0.0006109   0.0001171   0.0004968  -0.0003241
   15  -0.0017809  -0.0017362   0.0030041  -0.0001725   0.0005091  -0.0001325
   16   0.0021251  -0.0001249  -0.0043932   0.0003046  -0.0000152  -0.0008086
   17   0.0001526   0.0004222  -0.0013606  -0.0000009   0.0001852  -0.0001205
   18  -0.0019428  -0.0002694   0.0013960  -0.0001514   0.0003151  -0.0000135
   19  -0.0011337  -0.0009483  -0.0007981  -0.0000328   0.0003943  -0.0006464
   20  -0.0008336  -0.0005415   0.0006929  -0.0000748   0.0002609  -0.0001773
   21  -0.0029580  -0.0014234   0.0009742  -0.0002148   0.0007832  -0.0007555
   22  -0.1050918  -0.0643509   0.1855754   0.0019385  -0.0206676   0.0184417
   23  -0.0663099  -0.0757015   0.1577762   0.0008756   0.0060227  -0.0078845
   24   0.1974385   0.1615634  -0.4364157  -0.0032631   0.0205544  -0.0177907
   25  -0.0065043  -0.0197637   0.0205135  -0.0536196  -0.0252542   0.0515521
   26   0.0019196   0.0095005  -0.0196005  -0.0255959  -0.0961449   0.0964484
   27  -0.0012687   0.0093118  -0.0135939   0.0517788   0.0961820  -0.2011290
   28   0.0033958   0.0025567   0.0159936  -0.0001927   0.0026695  -0.0023920
   29  -0.0076698   0.0071032   0.0121418   0.0011816  -0.0027211   0.0053243
   30  -0.0062996  -0.0210787  -0.0242401  -0.0001602  -0.0037848   0.0082049
   31   0.1186520   0.0769757  -0.2084143   0.0007172   0.0017914  -0.0020716
   32   0.0769757   0.0782671  -0.1657645   0.0017620  -0.0107505   0.0096227
   33  -0.2084143  -0.1657645   0.4794429  -0.0018116   0.0096081  -0.0063692
   34   0.0007172   0.0017620  -0.0018116   0.0877972   0.0512339  -0.1045379
   35   0.0017914  -0.0107505   0.0096081   0.0512339   0.0883543  -0.1094137
   36  -0.0020716   0.0096227  -0.0063692  -0.1045379  -0.1094137   0.2963472
   37   0.0051480   0.0068196  -0.0062670  -0.0470424  -0.0239658   0.0322997
   38   0.0008722  -0.0016241   0.0008284  -0.0348304  -0.0016593   0.0128417
   39  -0.0004773  -0.0003527   0.0019854   0.0468023   0.0131805  -0.0030360
   40   0.0004655   0.0020529  -0.0026807   0.0084116   0.0062933   0.0124772
   41   0.0012946  -0.0018579   0.0076556   0.0034883   0.0173231  -0.0073240
   42  -0.0007005  -0.0013903   0.0066935   0.0118026  -0.0256064  -0.0781329
           37          38          39          40          41          42
    1   0.0061848  -0.0025743   0.0010705   0.0032379  -0.0038596   0.0000009
    2  -0.0000818  -0.0006553  -0.0000025  -0.0020390  -0.0001476  -0.0011818
    3   0.0096633  -0.0050079   0.0018409   0.0013131  -0.0044059  -0.0026309
    4   0.0000391   0.0007369   0.0004036   0.0001444   0.0020430   0.0025366
    5   0.0007385  -0.0003889   0.0001669   0.0004276  -0.0004579  -0.0000331
    6   0.0017882  -0.0005660   0.0003025   0.0001890  -0.0003695  -0.0001796
    7  -0.0181562   0.0090727  -0.0041244  -0.0008784   0.0096800   0.0034623
    8   0.0037177  -0.0002120   0.0006954   0.0034403   0.0011353   0.0018317
    9  -0.0092183   0.0048695  -0.0016221   0.0002018   0.0058158   0.0035185
   10  -0.0011233   0.0003778  -0.0002314  -0.0003183   0.0007480   0.0002504
   11   0.0020065  -0.0003997   0.0003621   0.0005072  -0.0003689   0.0001826
   12  -0.0030336   0.0012816  -0.0005943  -0.0003628   0.0012546   0.0006132
   13  -0.0033421   0.0013583  -0.0007773  -0.0008508   0.0018688   0.0003463
   14  -0.0008490   0.0005508  -0.0001987   0.0001136   0.0005445   0.0002516
   15  -0.0011967   0.0006627  -0.0001670   0.0000656   0.0006431   0.0006462
   16   0.0003270  -0.0005531  -0.0001582  -0.0000234  -0.0012894  -0.0021370
   17  -0.0000865   0.0001004   0.0000238  -0.0000058   0.0005144   0.0002924
   18  -0.0007887   0.0003820  -0.0000160  -0.0003093   0.0007806   0.0007484
   19  -0.0008150   0.0001253  -0.0002624  -0.0004207   0.0000237  -0.0006327
   20  -0.0004226   0.0002086  -0.0000571  -0.0001167   0.0003953   0.0001510
   21  -0.0016166   0.0005459  -0.0003596  -0.0006016   0.0006703  -0.0001209
   22  -0.0186499   0.0086846  -0.0033868   0.0027115  -0.0180244  -0.0076292
   23  -0.0283659   0.0075195  -0.0055944   0.0018556  -0.0023086   0.0010334
   24   0.0029740  -0.0004314  -0.0011350   0.0073732  -0.0331279  -0.0120065
   25  -0.2579284  -0.0134222  -0.0299992  -0.0376445  -0.0037711  -0.0091518
   26  -0.0133461  -0.0419472  -0.0004071  -0.0047038  -0.1686153  -0.1138216
   27  -0.0304176  -0.0004959  -0.0374591  -0.0089181  -0.1132053  -0.1419594
   28   0.0027832   0.0007089   0.0005222  -0.0003962   0.0050640   0.0019586
   29   0.0092830  -0.0017958   0.0039931   0.0045496  -0.0169651  -0.0053795
   30   0.0046674   0.0003357   0.0029937   0.0018866  -0.0054945  -0.0000403
   31   0.0051480   0.0008722  -0.0004773   0.0004655   0.0012946  -0.0007005
   32   0.0068196  -0.0016241  -0.0003527   0.0020529  -0.0018579  -0.0013903
   33  -0.0062670   0.0008284   0.0019854  -0.0026807   0.0076556   0.0066935
   34  -0.0470424  -0.0348304   0.0468023   0.0084116   0.0034883   0.0118026
   35  -0.0239658  -0.0016593   0.0131805   0.0062933   0.0173231  -0.0256064
   36   0.0322997   0.0128417  -0.0030360   0.0124772  -0.0073240  -0.0781329
   37   0.3580017   0.0743085   0.0318062  -0.0254266  -0.0297563  -0.0306602
   38   0.0743085   0.0536175   0.0092868  -0.0448652  -0.0133146  -0.0245331
   39   0.0318062   0.0092868   0.0496142  -0.0411878  -0.0210962  -0.0123476
   40  -0.0254266  -0.0448652  -0.0411878   0.0509880   0.0324904   0.0305538
   41  -0.0297563  -0.0133146  -0.0210962   0.0324904   0.1841235   0.1682032
   42  -0.0306602  -0.0245331  -0.0123476   0.0305538   0.1682032   0.2351983
 Gradient time:  CPU 12192.47 s  wall 3797.06 s
 **********************************************************************
 **                                                                  **
 **                       VIBRATIONAL ANALYSIS                       **
 **                       --------------------                       **
 **                                                                  **
 **        VIBRATIONAL FREQUENCIES (CM**-1) AND NORMAL MODES         **
 **     FORCE CONSTANTS (mDYN/ANGSTROM) AND REDUCED MASSES (AMU)     **
 **                  INFRARED INTENSITIES (KM/MOL)                   **
 **                                                                  **
 **********************************************************************
 

 Mode:                 1                      2                      3
 Frequency:       -20.37                  31.78                  43.02
 Force Cnst:      0.0043                 0.0106                 0.0206
 Red. Mass:      17.4518                17.8074                18.9277
 IR Active:          YES                    YES                    YES
 IR Intens:        0.325                  0.431                  0.165
 Raman Active:       YES                    YES                    YES
               X      Y      Z        X      Y      Z        X      Y      Z
 S         -0.019 -0.053  0.011   -0.012 -0.038  0.039   -0.049 -0.030  0.024
 C         -0.168  0.103 -0.196    0.221  0.116 -0.059   -0.083 -0.007 -0.005
 N          0.091 -0.270 -0.137   -0.026  0.084  0.079   -0.041 -0.083  0.007
 O         -0.031  0.041  0.182   -0.199  0.028  0.128   -0.031 -0.017  0.049
 O          0.007 -0.074  0.063    0.043 -0.285 -0.014   -0.062 -0.006  0.011
 F         -0.187  0.099 -0.235    0.140  0.447 -0.163    0.148 -0.382  0.411
 F         -0.221  0.297 -0.175    0.176 -0.075  0.018    0.172  0.471 -0.345
 S          0.026 -0.103 -0.095    0.013 -0.002 -0.039   -0.056 -0.024 -0.010
 C          0.110  0.013  0.174   -0.085 -0.035  0.047    0.024  0.016 -0.028
 O         -0.103  0.080 -0.199    0.131  0.086 -0.121   -0.072 -0.017 -0.014
 O          0.072 -0.224 -0.119   -0.026 -0.152 -0.112   -0.095  0.002 -0.019
 F          0.046  0.103  0.191    0.066  0.201  0.219    0.255  0.135  0.120
 F          0.073  0.148  0.276   -0.028 -0.170 -0.244    0.051  0.044 -0.316
 F          0.292 -0.110  0.261   -0.380 -0.176  0.219   -0.162 -0.088  0.099
 TransDip  -0.003  0.015  0.010    0.012  0.017  0.004    0.013 -0.000 -0.001

 Mode:                 4                      5                      6
 Frequency:        56.61                 112.44                 156.58
 Force Cnst:      0.0342                 0.1333                 0.2542
 Red. Mass:      18.1152                17.8993                17.5942
 IR Active:          YES                    YES                    YES
 IR Intens:        0.167                  0.219                  3.804
 Raman Active:       YES                    YES                    YES
               X      Y      Z        X      Y      Z        X      Y      Z
 S          0.060  0.026 -0.110    0.068 -0.128 -0.011    0.192 -0.121  0.094
 C         -0.071 -0.035 -0.089   -0.086 -0.087 -0.120    0.109 -0.058 -0.041
 N         -0.010 -0.131 -0.072    0.214  0.066 -0.148   -0.066 -0.097  0.336
 O          0.276  0.006 -0.106   -0.197 -0.144 -0.094    0.444 -0.102  0.182
 O         -0.016  0.206 -0.170    0.195 -0.296  0.197    0.084 -0.104 -0.183
 F         -0.166  0.013 -0.286   -0.105 -0.211 -0.189    0.007 -0.171 -0.269
 F         -0.207 -0.162  0.070   -0.167  0.190 -0.092   -0.086  0.227  0.100
 S         -0.058 -0.032  0.140    0.152  0.162  0.047   -0.077  0.046  0.068
 C          0.071  0.013  0.046   -0.048  0.049  0.018   -0.075  0.080  0.007
 O         -0.237 -0.147  0.250   -0.011  0.058  0.147    0.064  0.246 -0.098
 O          0.029  0.146  0.245    0.300  0.320  0.173   -0.329 -0.132 -0.111
 F          0.377  0.093  0.205   -0.178  0.128  0.004   -0.073 -0.022 -0.043
 F          0.098  0.073 -0.304    0.004 -0.241  0.036   -0.066  0.013 -0.008
 F         -0.141 -0.073  0.159   -0.241  0.105 -0.005   -0.167  0.214 -0.104
 TransDip  -0.009 -0.007 -0.007    0.011  0.010 -0.003    0.042  0.015  0.044

 Mode:                 7                      8                      9
 Frequency:       177.38                 198.45                 203.04
 Force Cnst:      0.2996                 0.3998                 0.4202
 Red. Mass:      16.1636                17.2307                17.2977
 IR Active:          YES                    YES                    YES
 IR Intens:        0.570                  4.843                  1.326
 Raman Active:       YES                    YES                    YES
               X      Y      Z        X      Y      Z        X      Y      Z
 S         -0.037  0.008 -0.061   -0.022 -0.161  0.058    0.035 -0.092  0.054
 C          0.028 -0.032 -0.041   -0.058 -0.122  0.029   -0.007 -0.060  0.013
 N         -0.200  0.467  0.234    0.009 -0.040  0.035    0.021 -0.129  0.053
 O         -0.227 -0.147 -0.388    0.193 -0.444 -0.439    0.233 -0.187 -0.080
 O         -0.011 -0.118 -0.089   -0.041  0.218  0.298   -0.007  0.114  0.099
 F         -0.037 -0.056 -0.179   -0.047  0.416  0.136   -0.009  0.167  0.034
 F         -0.090  0.238  0.022    0.033  0.130 -0.116    0.017  0.052 -0.030
 S         -0.003 -0.016  0.099   -0.005  0.003  0.027   -0.006 -0.011 -0.095
 C          0.033 -0.036  0.055   -0.008  0.010  0.042    0.013  0.008 -0.122
 O          0.386 -0.163  0.138   -0.144  0.183 -0.077    0.179 -0.330  0.098
 O         -0.133 -0.106  0.008    0.118 -0.164  0.027   -0.359  0.420 -0.097
 F          0.135 -0.095  0.069    0.077 -0.132  0.006   -0.265  0.381 -0.053
 F          0.003  0.153  0.045    0.001 -0.010 -0.013    0.007 -0.053  0.025
 F          0.152 -0.078  0.077   -0.089  0.136 -0.065    0.143 -0.262  0.108
 TransDip   0.018 -0.002  0.016   -0.020 -0.021  0.064    0.005 -0.007 -0.036

 Mode:                10                     11                     12
 Frequency:       273.65                 286.00                 307.97
 Force Cnst:      0.7826                 0.8369                 0.9575
 Red. Mass:      17.7380                17.3669                17.1353
 IR Active:          YES                    YES                    YES
 IR Intens:        3.532                  3.513                  1.713
 Raman Active:       YES                    YES                    YES
               X      Y      Z        X      Y      Z        X      Y      Z
 S          0.066 -0.039  0.031    0.029 -0.017 -0.060    0.108  0.118  0.018
 C          0.072  0.017  0.077    0.160  0.102  0.242    0.200  0.043 -0.037
 N          0.048 -0.006 -0.055   -0.018 -0.002 -0.060    0.065 -0.043 -0.065
 O          0.112 -0.041  0.038   -0.065 -0.066 -0.175   -0.159  0.061 -0.140
 O          0.099 -0.101  0.057   -0.012 -0.164 -0.285    0.289  0.165  0.510
 F          0.048  0.007  0.020    0.105  0.060  0.127    0.141 -0.160 -0.258
 F         -0.025  0.113  0.174   -0.116  0.329  0.524    0.123  0.017  0.059
 S          0.026 -0.088 -0.040   -0.050  0.016 -0.067   -0.086  0.013 -0.020
 C         -0.242  0.041 -0.122    0.085 -0.073 -0.054   -0.076 -0.112  0.016
 O         -0.012 -0.210  0.050   -0.398  0.107 -0.080   -0.244  0.115 -0.072
 O          0.393 -0.178  0.098    0.050  0.078 -0.000   -0.292  0.136 -0.071
 F         -0.206  0.078 -0.101   -0.003  0.019 -0.047    0.035 -0.269  0.001
 F         -0.350  0.562 -0.217    0.113 -0.208 -0.027   -0.120  0.090 -0.026
 F         -0.049 -0.132  0.004    0.152 -0.177  0.016   -0.001 -0.227  0.096
 TransDip  -0.058 -0.001 -0.016    0.055 -0.006  0.023    0.039  0.014 -0.005

 Mode:                13                     14                     15
 Frequency:       328.29                 340.11                 393.57
 Force Cnst:      1.1227                 1.1757                 1.5729
 Red. Mass:      17.6807                17.2507                17.2341
 IR Active:          YES                    YES                    YES
 IR Intens:        3.819                  0.757                  7.797
 Raman Active:       YES                    YES                    YES
               X      Y      Z        X      Y      Z        X      Y      Z
 S          0.017  0.066  0.003   -0.055  0.003  0.135    0.177  0.102 -0.135
 C          0.140  0.036 -0.001   -0.009 -0.090 -0.083   -0.274  0.139 -0.042
 N         -0.050 -0.019  0.024   -0.184  0.314  0.317   -0.029  0.226  0.023
 O         -0.178  0.030 -0.107    0.093 -0.022  0.120    0.213  0.136 -0.085
 O          0.080  0.135  0.217   -0.102  0.055  0.061    0.438 -0.414  0.113
 F          0.097 -0.093 -0.151   -0.041 -0.079 -0.175   -0.148  0.129  0.334
 F          0.072  0.042  0.082    0.088 -0.085 -0.206   -0.167 -0.135 -0.149
 S         -0.042 -0.177  0.037   -0.036  0.093  0.085   -0.046  0.010  0.052
 C          0.102  0.150 -0.039    0.055 -0.059 -0.147    0.008 -0.001 -0.015
 O         -0.226 -0.310  0.150   -0.246  0.263  0.002   -0.172 -0.017  0.088
 O         -0.046 -0.427 -0.052    0.236 -0.111  0.144   -0.196 -0.171 -0.075
 F         -0.097  0.432 -0.010   -0.162  0.148 -0.154   -0.034  0.020 -0.022
 F          0.162 -0.139  0.007    0.080 -0.126 -0.210    0.021 -0.027 -0.045
 F          0.004  0.324 -0.164    0.311 -0.309  0.011    0.058 -0.037  0.006
 TransDip   0.062  0.011  0.001   -0.001 -0.007  0.027    0.026  0.064 -0.057

 Mode:                16                     17                     18
 Frequency:       426.16                 502.41                 538.94
 Force Cnst:      1.9083                 2.7551                 3.1645
 Red. Mass:      17.8341                18.5250                18.4918
 IR Active:          YES                    YES                    YES
 IR Intens:       14.397                178.764                 86.690
 Raman Active:       YES                    YES                    YES
               X      Y      Z        X      Y      Z        X      Y      Z
 S          0.067  0.012 -0.090    0.205 -0.070  0.119    0.182  0.111  0.138
 C         -0.034  0.041 -0.013   -0.071 -0.167  0.043   -0.106  0.082  0.040
 N          0.162 -0.452 -0.128    0.200  0.101  0.079   -0.096 -0.142  0.400
 O         -0.282  0.021 -0.151   -0.312 -0.048  0.064   -0.233 -0.007 -0.184
 O          0.038  0.099 -0.105   -0.041  0.233 -0.305    0.113 -0.003 -0.181
 F         -0.004  0.036  0.084   -0.106  0.063  0.040   -0.125  0.005  0.028
 F         -0.053 -0.014  0.010    0.007 -0.016 -0.090    0.028 -0.068 -0.107
 S          0.012 -0.027  0.314    0.251  0.105  0.007    0.084 -0.264 -0.001
 C         -0.004 -0.011 -0.017    0.112  0.037 -0.001    0.017 -0.146 -0.146
 O          0.307  0.369  0.021   -0.300 -0.097  0.234   -0.090  0.103 -0.272
 O         -0.178 -0.165  0.193   -0.160 -0.150 -0.282    0.063  0.231  0.186
 F         -0.245  0.084 -0.068   -0.100 -0.134 -0.212    0.172  0.215  0.005
 F          0.009  0.016 -0.268    0.135  0.168  0.017   -0.127  0.084  0.247
 F          0.163 -0.055  0.014   -0.193 -0.079  0.193   -0.146 -0.107 -0.251
 TransDip   0.048  0.003  0.112    0.399  0.013  0.155    0.247 -0.112  0.123

 Mode:                19                     20                     21
 Frequency:       551.83                 560.29                 569.92
 Force Cnst:      3.2790                 3.4432                 3.4766
 Red. Mass:      18.2763                18.6163                18.1669
 IR Active:          YES                    YES                    YES
 IR Intens:       45.508                 91.851                 64.251
 Raman Active:       YES                    YES                    YES
               X      Y      Z        X      Y      Z        X      Y      Z
 S         -0.196  0.215  0.129    0.004  0.158  0.214   -0.090  0.058  0.044
 C         -0.021  0.304  0.111   -0.065 -0.005  0.266    0.006 -0.014  0.142
 N         -0.022 -0.209  0.012    0.146 -0.052 -0.066    0.171 -0.115 -0.266
 O          0.220 -0.019 -0.282    0.037 -0.033 -0.166    0.111 -0.008 -0.058
 O         -0.107 -0.321  0.030   -0.054 -0.171 -0.159   -0.078 -0.112 -0.005
 F         -0.089 -0.099 -0.110   -0.283 -0.030 -0.109   -0.120 -0.023 -0.073
 F          0.165 -0.029 -0.002    0.284  0.016 -0.051    0.162  0.036  0.019
 S          0.037 -0.068  0.017    0.136  0.013 -0.052   -0.009  0.240  0.111
 C          0.224  0.093  0.010   -0.173 -0.088  0.188   -0.090 -0.037 -0.274
 O          0.028  0.011 -0.030   -0.112 -0.078  0.042    0.036  0.074  0.270
 O          0.018  0.013  0.037   -0.069  0.047 -0.138   -0.074 -0.271 -0.106
 F         -0.148 -0.093 -0.303   -0.101 -0.078  0.367    0.323  0.205 -0.096
 F          0.333  0.141  0.029   -0.217 -0.103 -0.285   -0.197 -0.033  0.317
 F         -0.239  0.001  0.262    0.292  0.202 -0.078   -0.068 -0.302 -0.232
 TransDip  -0.054  0.154  0.141    0.121  0.130  0.250   -0.088  0.222  0.093

 Mode:                22                     23                     24
 Frequency:       593.64                 639.33                 690.72
 Force Cnst:      3.2680                 4.4718                 4.3256
 Red. Mass:      15.7391                18.5690                15.3884
 IR Active:          YES                    YES                    YES
 IR Intens:       61.827                147.147                 15.822
 Raman Active:       YES                    YES                    YES
               X      Y      Z        X      Y      Z        X      Y      Z
 S         -0.037  0.003  0.160   -0.144 -0.025  0.010    0.085 -0.248 -0.088
 C         -0.009  0.621 -0.336    0.050 -0.057 -0.060   -0.115  0.747  0.091
 N          0.025 -0.117  0.124    0.191  0.454 -0.369    0.006  0.217 -0.132
 O          0.012 -0.155 -0.139    0.180 -0.020  0.090   -0.041 -0.197  0.132
 O         -0.127  0.002 -0.029   -0.176 -0.055  0.040    0.035  0.164 -0.010
 F          0.362 -0.093  0.055    0.136 -0.001 -0.016   -0.278 -0.106 -0.022
 F         -0.317 -0.165 -0.040   -0.082  0.010  0.019    0.288 -0.040  0.071
 S          0.127  0.115 -0.016    0.277 -0.284  0.165   -0.062 -0.032  0.015
 C         -0.074 -0.041  0.007    0.097 -0.218  0.018    0.010  0.010 -0.002
 O         -0.064 -0.029  0.129   -0.143  0.183 -0.098    0.032  0.009 -0.052
 O          0.007 -0.036 -0.142   -0.311  0.071  0.070   -0.030 -0.002  0.070
 F          0.030 -0.007  0.092   -0.075  0.090  0.080    0.001  0.006 -0.014
 F         -0.117 -0.026 -0.027    0.017  0.140  0.009    0.019 -0.002  0.006
 F          0.068 -0.003 -0.054   -0.075 -0.030 -0.172   -0.003 -0.002  0.004
 TransDip   0.143  0.165  0.125    0.183 -0.305  0.155   -0.013 -0.126 -0.017

 Mode:                25                     26                     27
 Frequency:       741.67                 776.78                1071.49
 Force Cnst:      6.3723                 7.0370                 9.9749
 Red. Mass:      19.6615                19.7941                14.7464
 IR Active:          YES                    YES                    YES
 IR Intens:      108.593                 33.638                362.615
 Raman Active:       YES                    YES                    YES
               X      Y      Z        X      Y      Z        X      Y      Z
 S          0.149  0.097  0.360    0.091  0.042  0.163   -0.019 -0.068 -0.071
 C         -0.009 -0.054 -0.032   -0.004 -0.017 -0.002    0.044  0.014 -0.178
 N          0.246  0.264 -0.419    0.053  0.031 -0.173    0.568  0.055  0.320
 O         -0.042 -0.159 -0.018   -0.037 -0.078 -0.006    0.025  0.224 -0.128
 O          0.026  0.005 -0.189    0.053  0.016 -0.084   -0.228 -0.054  0.058
 F          0.112  0.010 -0.000    0.034  0.004  0.002   -0.069 -0.011  0.041
 F         -0.132 -0.051 -0.100   -0.048 -0.022 -0.044    0.040  0.003  0.048
 S         -0.279 -0.081 -0.016   -0.276  0.147 -0.066   -0.006  0.070 -0.020
 C         -0.089  0.231 -0.059    0.170 -0.263  0.069   -0.169  0.361 -0.065
 O          0.087 -0.078 -0.186    0.091 -0.050  0.004   -0.069 -0.181 -0.244
 O         -0.047 -0.053  0.234    0.066 -0.052  0.036   -0.117 -0.091  0.254
 F          0.134  0.014 -0.220   -0.259 -0.054  0.382   -0.023 -0.071  0.097
 F         -0.102 -0.153  0.013    0.443  0.234  0.022    0.081 -0.008  0.011
 F          0.067  0.088  0.228   -0.146 -0.187 -0.398    0.002 -0.107 -0.079
 TransDip  -0.145  0.106  0.281   -0.120  0.090  0.110   -0.391  0.189 -0.428

 Mode:                28                     29                     30
 Frequency:      1134.53                1139.83                1185.98
 Force Cnst:     12.9098                12.6660                11.3231
 Red. Mass:      17.0231                16.5467                13.6634
 IR Active:          YES                    YES                    YES
 IR Intens:      517.337                395.617                747.683
 Raman Active:       YES                    YES                    YES
               X      Y      Z        X      Y      Z        X      Y      Z
 S         -0.209  0.120 -0.096    0.192 -0.138  0.082    0.018 -0.010  0.004
 C          0.186  0.036  0.046   -0.015 -0.023 -0.333   -0.060  0.008  0.146
 N          0.508  0.066  0.260    0.101  0.054 -0.009   -0.177 -0.029 -0.078
 O         -0.017 -0.274  0.130    0.028  0.376 -0.212    0.001  0.007  0.006
 O          0.226  0.068 -0.113   -0.367 -0.095  0.119    0.006 -0.002  0.010
 F         -0.054 -0.010  0.022   -0.088 -0.007  0.065    0.061  0.006 -0.039
 F         -0.061 -0.011 -0.064    0.093  0.008  0.111   -0.024 -0.002 -0.034
 S         -0.188 -0.185 -0.003   -0.178 -0.101 -0.014    0.075  0.095  0.002
 C          0.292  0.167  0.053    0.392 -0.232  0.107    0.749  0.383 -0.064
 O          0.015  0.159  0.235    0.055  0.136  0.205   -0.012 -0.101 -0.133
 O          0.130  0.102 -0.267    0.123  0.079 -0.214   -0.066 -0.070  0.150
 F         -0.031 -0.023  0.029   -0.007  0.048 -0.062   -0.088 -0.091  0.131
 F         -0.137 -0.022 -0.018   -0.177 -0.005 -0.025   -0.301 -0.051 -0.028
 F         -0.023 -0.048 -0.044   -0.021  0.061  0.035   -0.051 -0.091 -0.063
 TransDip  -0.659 -0.029 -0.309    0.282 -0.569 -0.052    0.756  0.416  0.149

 Mode:                31                     32                     33
 Frequency:      1191.42                1210.07                1236.36
 Force Cnst:     11.0803                11.7866                12.9390
 Red. Mass:      13.2486                13.6622                14.3667
 IR Active:          YES                    YES                    YES
 IR Intens:      401.548                402.385                 82.373
 Raman Active:       YES                    YES                    YES
               X      Y      Z        X      Y      Z        X      Y      Z
 S          0.015 -0.014  0.012    0.024 -0.073 -0.003    0.067 -0.012  0.086
 C          0.148  0.025  0.069    0.756  0.131  0.337    0.257 -0.007 -0.203
 N         -0.067 -0.011 -0.034   -0.007 -0.005 -0.013   -0.287 -0.005 -0.173
 O          0.001  0.026 -0.012    0.012  0.123 -0.053    0.001  0.041 -0.034
 O         -0.014 -0.002  0.009   -0.076 -0.003  0.043   -0.038 -0.011  0.014
 F         -0.038 -0.005  0.014   -0.203 -0.025  0.074   -0.148 -0.014  0.086
 F         -0.050 -0.007 -0.052   -0.253 -0.036 -0.261   -0.003 -0.000  0.020
 S          0.027  0.009 -0.049   -0.003  0.050  0.023    0.045 -0.166  0.056
 C         -0.059  0.186  0.870    0.044 -0.205 -0.134   -0.226  0.651 -0.196
 O          0.009 -0.012  0.009   -0.010 -0.054 -0.073    0.021  0.137  0.147
 O         -0.028 -0.005  0.047   -0.003 -0.011  0.023    0.076  0.097 -0.202
 F          0.069  0.090 -0.240   -0.003  0.014  0.007   -0.032 -0.125  0.159
 F         -0.018 -0.014 -0.053   -0.016  0.012  0.006    0.127 -0.035  0.027
 F         -0.014 -0.185 -0.219    0.004  0.077  0.071    0.008 -0.152 -0.088
 TransDip   0.182  0.133  0.601    0.606 -0.034  0.210    0.244  0.158 -0.006

 Mode:                34                     35                     36
 Frequency:      1247.88                1311.12                1326.11
 Force Cnst:     13.3674                20.6798                21.1650
 Red. Mass:      14.5696                20.4178                20.4272
 IR Active:          YES                    YES                    YES
 IR Intens:      110.880                251.175                641.932
 Raman Active:       YES                    YES                    YES
               X      Y      Z        X      Y      Z        X      Y      Z
 S          0.109 -0.098 -0.060   -0.268 -0.290  0.203   -0.176 -0.184  0.129
 C         -0.325  0.087  0.693   -0.025  0.012  0.029   -0.102  0.000  0.019
 N          0.083  0.034  0.046    0.000  0.015 -0.001    0.015  0.012 -0.028
 O          0.004  0.167 -0.064    0.047  0.421 -0.218    0.036  0.261 -0.137
 O         -0.197 -0.047  0.074    0.474  0.146 -0.184    0.300  0.091 -0.119
 F          0.289  0.028 -0.189    0.020 -0.004 -0.016    0.047  0.002 -0.025
 F         -0.113 -0.023 -0.182    0.001 -0.000 -0.001    0.017  0.001  0.012
 S         -0.063 -0.109 -0.001    0.046 -0.058 -0.274   -0.066  0.064  0.437
 C         -0.144  0.176 -0.043   -0.002  0.004 -0.059   -0.008  0.009  0.087
 O          0.023  0.099  0.124    0.041  0.195  0.280   -0.056 -0.277 -0.409
 O          0.060  0.055 -0.123   -0.121 -0.089  0.259    0.190  0.151 -0.431
 F         -0.001 -0.030  0.035   -0.004 -0.012  0.022    0.007  0.018 -0.033
 F          0.068 -0.008  0.010    0.005 -0.000  0.004   -0.001 -0.000 -0.006
 F          0.007 -0.042 -0.026   -0.000  0.014  0.014    0.001 -0.024 -0.023
 TransDip  -0.249 -0.007  0.228   -0.296 -0.401 -0.097   -0.336 -0.119  0.729

 STANDARD THERMODYNAMIC QUANTITIES AT   298.15 K  AND     1.00 ATM

   This Molecule has  1 Imaginary Frequencies
   Zero point vibrational energy:       30.815 kcal/mol

   Atom    1 Element S  Has Mass   31.97207
   Atom    2 Element C  Has Mass   12.00000
   Atom    3 Element N  Has Mass   14.00307
   Atom    4 Element O  Has Mass   15.99491
   Atom    5 Element O  Has Mass   15.99491
   Atom    6 Element F  Has Mass   18.99840
   Atom    7 Element F  Has Mass   18.99840
   Atom    8 Element S  Has Mass   31.97207
   Atom    9 Element C  Has Mass   12.00000
   Atom   10 Element O  Has Mass   15.99491
   Atom   11 Element O  Has Mass   15.99491
   Atom   12 Element F  Has Mass   18.99840
   Atom   13 Element F  Has Mass   18.99840
   Atom   14 Element F  Has Mass   18.99840
   Molecular Mass:   260.918850 amu
   Principal axes and moments of inertia in amu*Bohr^2:
                             1           2           3
    Eigenvalues --     1836.12643  4456.00979  4971.30417
          X               0.80085    -0.32343    -0.50401
          Y              -0.04825     0.80404    -0.59262
          Z               0.59692     0.49891     0.62831
   Rotational Symmetry Number is   1
   The Molecule is an Asymmetric Top
   Translational Enthalpy:        0.889 kcal/mol
   Rotational Enthalpy:           0.889 kcal/mol
   Vibrational Enthalpy:         37.094 kcal/mol
   gas constant (RT):             0.592 kcal/mol
   Translational Entropy:        42.577  cal/mol.K
   Rotational Entropy:           32.075  cal/mol.K
   Vibrational Entropy:          41.473  cal/mol.K

   Total Enthalpy:               39.464 kcal/mol
   Total Entropy:               116.125  cal/mol.K
Archival summary:
1\1\nid01231\FREQ\ProcedureUnspecified\BasisUnspecified\25412(1-,2)\sblau\TueNov1321:31:542018TueNov1321:31:542018\0\\#,FREQ,ProcedureUnspecified,BasisUnspecified,\\-1,2\S\O,1,1.45124\O,1,1.45302,2,118.108\N,1,1.59306,2,111.409,3,139.036,0\S,4,1.58985,1,126.907,2,-120.601,0\O,5,1.4498,4,108.203,1,165.093,0\O,5,1.45595,4,114.712,1,30.7162,0\C,5,1.83325,4,104.127,1,-85.5973,0\F,8,1.31922,5,115.237,4,64.5869,0\F,8,1.32421,5,113.491,4,-166.932,0\C,1,1.86855,2,103.943,3,-115.601,0\F,11,1.32891,1,111.336,2,-55.5834,0\F,11,1.33031,1,110.955,2,-176.738,0\F,11,1.33355,1,109.006,2,63.959,0\\\@

 Total job time:  3889.08s(wall), 13878.92s(cpu) 
 Tue Nov 13 21:31:54 2018

        *************************************************************
        *                                                           *
        *  Thank you very much for using Q-Chem.  Have a nice day.  *
        *                                                           *
        *************************************************************


