 running on    8 total cores
 distrk:  each k-point on    8 cores,    1 groups
 distr:  one band on    1 cores,    8 groups
 using from now: INCAR     
 vasp.5.3.5 31Mar14 (build Apr 25 2014 17:03:44) complex                        
  
 POSCAR found type information on POSCAR  Fe O 
 POSCAR found :  2 types and       4 ions

 ----------------------------------------------------------------------------- 
|                                                                             |
|           W    W    AA    RRRRR   N    N  II  N    N   GGGG   !!!           |
|           W    W   A  A   R    R  NN   N  II  NN   N  G    G  !!!           |
|           W    W  A    A  R    R  N N  N  II  N N  N  G       !!!           |
|           W WW W  AAAAAA  RRRRR   N  N N  II  N  N N  G  GGG   !            |
|           WW  WW  A    A  R   R   N   NN  II  N   NN  G    G                |
|           W    W  A    A  R    R  N    N  II  N    N   GGGG   !!!           |
|                                                                             |
|      For optimal performance we recommend to set                            |
|        NCORE= 4 - approx SQRT( number of cores)                             |
|      NCORE specifies how many cores store one orbital (NPAR=cpu/NCORE).     |
|      This setting can  greatly improve the performance of VASP for DFT.     |
|      The default, NPAR=number of cores might be grossly inefficient         |
|      on modern multi-core architectures or massively parallel machines.     |
|      Do your own testing !!!!                                               |
|      Unfortunately you need to use the default for GW and RPA calculations. |
|      (for HF NCORE is supported but not extensively tested yet)             |
|                                                                             |
 ----------------------------------------------------------------------------- 


 ----------------------------------------------------------------------------- 
|                                                                             |
|  ADVICE TO THIS USER RUNNING 'VASP/VAMP'   (HEAR YOUR MASTER'S VOICE ...):  |
|                                                                             |
|      You have a (more or less) 'small supercell' and for smaller cells      |
|      it is recommended  to use the reciprocal-space projection scheme!      |
|      The real space optimization is not  efficient for small cells and it   |
|      is also less accurate ...                                              |
|      Therefore set LREAL=.FALSE. in the  INCAR file                         |
|                                                                             |
 ----------------------------------------------------------------------------- 

 LDA part: xc-table for Pade appr. of Perdew

 ----------------------------------------------------------------------------- 
|                                                                             |
|           W    W    AA    RRRRR   N    N  II  N    N   GGGG   !!!           |
|           W    W   A  A   R    R  NN   N  II  NN   N  G    G  !!!           |
|           W    W  A    A  R    R  N N  N  II  N N  N  G       !!!           |
|           W WW W  AAAAAA  RRRRR   N  N N  II  N  N N  G  GGG   !            |
|           WW  WW  A    A  R   R   N   NN  II  N   NN  G    G                |
|           W    W  A    A  R    R  N    N  II  N    N   GGGG   !!!           |
|                                                                             |
|      Your FFT grids (NGX,NGY,NGZ) are not sufficient for an accurate        |
|      calculation.                                                           |
|      The results might be wrong                                             |
|      good settings for NGX NGY and  NGZ are                                 |
|                        20  31  and  33                                      |
|     Mind: This setting results in a small but reasonable wrap around error  |
|     It is also necessary to adjust these  values to the FFT routines you use|
|                                                                             |
 ----------------------------------------------------------------------------- 

 POSCAR, INCAR and KPOINTS ok, starting setup
 FFT: planning ...
 WAVECAR not read
 charge-density read from file: unknown                                 
 magnetization density read from file 1
 WARNING: random wavefunctions but no delay for mixing, default for NELMDL
 entering main loop
       N       E                     dE             d eps       ncg     rms          rms(c)
DAV:   1     0.218765291911E+03    0.21877E+03   -0.13350E+04   976   0.138E+03
DAV:   2    -0.104006574409E+02   -0.22917E+03   -0.20892E+03  1032   0.314E+02
DAV:   3    -0.321749112224E+02   -0.21774E+02   -0.20721E+02  1160   0.109E+02
DAV:   4    -0.326656735678E+02   -0.49076E+00   -0.49022E+00  1112   0.178E+01
DAV:   5    -0.326721836490E+02   -0.65101E-02   -0.65098E-02  1168   0.202E+00    0.227E-01
RMM:   6    -0.326747210250E+02   -0.25374E-02   -0.39722E-03   978   0.548E-01    0.865E-01
RMM:   7    -0.326747531892E+02   -0.32164E-04   -0.80804E-04   798   0.285E-01
   1 F= -.32674753E+02 E0= -.32667896E+02  d E =-.326748E+02  mag=    -0.1069
 curvature:   0.00 expect dE= 0.000E+00 dE for cont linesearch  0.000E+00
 trial: gam= 0.00000 g(F)=  0.850E-03 g(S)=  0.543E-01 ort = 0.000E+00 (trialstep = 0.100E+01)
 search vector abs. value=  0.552E-01
 bond charge predicted
       N       E                     dE             d eps       ncg     rms          rms(c)
DAV:   1    -0.329628848844E+02   -0.28816E+00   -0.71004E+00  1160   0.290E+01    0.530E+00
RMM:   2    -0.393507432541E+02   -0.63879E+01   -0.33119E+00   962   0.175E+01    0.316E+01
RMM:   3    -0.327295193614E+02    0.66212E+01   -0.11099E+00   960   0.989E+00    0.276E+00
RMM:   4    -0.326719268140E+02    0.57593E-01   -0.23275E-01   982   0.416E+00    0.177E+00
RMM:   5    -0.326391695637E+02    0.32757E-01   -0.21593E-02   982   0.161E+00    0.118E+00
RMM:   6    -0.326331878745E+02    0.59817E-02   -0.13075E-03   937   0.352E-01    0.566E-01
RMM:   7    -0.326343873571E+02   -0.11995E-02   -0.11681E-03   874   0.339E-01    0.911E-01
RMM:   8    -0.326346871346E+02   -0.29978E-03   -0.22124E-04   557   0.164E-01    0.834E-01
RMM:   9    -0.326319355687E+02    0.27516E-02   -0.71256E-04   762   0.315E-01    0.560E-01
RMM:  10    -0.326315043662E+02    0.43120E-03   -0.67681E-03   946   0.876E-01    0.763E-01
RMM:  11    -0.326293561176E+02    0.21482E-02   -0.47656E-04   730   0.263E-01    0.113E-01
RMM:  12    -0.326295755075E+02   -0.21939E-03   -0.12087E-04   546   0.120E-01    0.269E-01
RMM:  13    -0.326293810344E+02    0.19447E-03   -0.33216E-04   623   0.219E-01
   2 F= -.32629381E+02 E0= -.32622549E+02  d E =0.453722E-01  mag=    -0.0388
 trial-energy change:    0.045372  1 .order    0.019737   -0.055189    0.094663
 step:   0.2025(harm=  0.3683)  dis= 0.00092  next Energy=   -32.680129 (dE=-0.538E-02)
 bond charge predicted
       N       E                     dE             d eps       ncg     rms          rms(c)
DAV:   1    -0.328872398951E+02   -0.25766E+00   -0.47058E+00  1208   0.241E+01    0.437E+00
RMM:   2    -0.378192884483E+02   -0.49320E+01   -0.99001E-01   963   0.837E+00    0.305E+01
RMM:   3    -0.327119918651E+02    0.51073E+01   -0.72887E-01   960   0.783E+00    0.198E+00
RMM:   4    -0.327167180774E+02   -0.47262E-02   -0.13473E-01   980   0.318E+00    0.230E+00
RMM:   5    -0.326780345667E+02    0.38684E-01   -0.19222E-02   963   0.130E+00    0.126E+00
RMM:   6    -0.326751682105E+02    0.28664E-02   -0.16286E-03   956   0.369E-01    0.106E+00
RMM:   7    -0.326724424552E+02    0.27258E-02   -0.58996E-04   743   0.259E-01    0.503E-01
RMM:   8    -0.326723954822E+02    0.46973E-04   -0.30126E-04   580   0.178E-01
   3 F= -.32672395E+02 E0= -.32665855E+02  d E =0.235771E-02  mag=    -0.1633
 curvature:  -0.17 expect dE=-0.608E-03 dE for cont linesearch -0.542E-03
 trial: gam= 0.00000 g(F)=  0.468E-03 g(S)=  0.308E-02 ort =-0.132E-01 (trialstep = 0.841E+00)
 search vector abs. value=  0.355E-02
 reached required accuracy - stopping structural energy minimisation
