 vasp.6.2.1 16May21 (build Jul 28 2021 23:24:15) complex                        
  
 executed on      IFC19_CrayMPICH date 2021.11.22  06:25:19
 running  128 mpi-ranks, with    1 threads/rank
 distrk:  each k-point on    8 cores,   16 groups
 distr:  one band on NCORE=   4 cores,    2 groups


--------------------------------------------------------------------------------------------------------


 INCAR:
   ALGO = Fast
   AMIN = 0.01
   AMIX = 0.2
   BMIX = 0.001
   EDIFF = 1e-05
   EDIFFG = -0.02
   ENAUG = 4000
   ENCUT = 400
   GGA = Pe
   IBRION = 1
   IDIPOL = 3
   ISIF = 2
   ISMEAR = 1
   ISPIN = 2
   ISYM = 0
   IVDW = 0
   KPAR = 16
   LASPH = True
   LDAU = False
   LDIPOL = True
   LMAXMIX = 4
   LORBIT = 11
   LREAL = Auto
   LVTOT = True
   LWAVE = False
   MAGMOM = 48*0.0
   NCORE = 4
   NELM = 100
   NELMIN = 8
   NSW = 99
   POTIM = 1.4000000000000004
   PREC = Accurate
   SIGMA = 0.15

 POTCAR:    PAW_PBE Na_pv 05Jan2001               
 POTCAR:   PAW_PBE Pd 05Jan2001                   
 WARNING: For LVTOT=.TRUE., VASP.5.x writes the TOTAL local potential to the
     file LOCPOT. If you want only the Hartree contributions, use LVHAR=.TRUE.
     instead. 

 POTCAR:    PAW_PBE Na_pv 05Jan2001               
   VRHFIN =Na: p6s1                                                                                 
   LEXCH  = PE                                                                                      
   EATOM  =   766.0439 eV,   56.3026 Ry                                                             
                                                                                                    
   TITEL  = PAW_PBE Na_pv 05Jan2001                                                                 
   LULTRA =        F    use ultrasoft PP ?                                                          
   IUNSCR =        1    unscreen: 0-lin 1-nonlin 2-no                                               
   RPACOR =    1.800    partial core radius                                                         
   POMASS =   22.990; ZVAL   =    7.000    mass and valenz                                          
   RCORE  =    2.200    outmost cutoff radius                                                       
   RWIGS  =    2.200; RWIGS  =    1.164    wigner-seitz radius (au A)                               
   ENMAX  =  259.561; ENMIN  =  194.671 eV                                                          
   ICORE  =        2    local potential                                                             
   LCOR   =        T    correct aug charges                                                         
   LPAW   =        T    paw PP                                                                      
   EAUG   =  368.056                                                                                
   DEXC   =    -.009                                                                                
   RMAX   =    2.862    core radius for proj-oper                                                   
   RAUG   =    1.300    factor for augmentation sphere                                              
   RDEP   =    2.259    radius for radial grids                                                     
   QCUT   =   -4.368; QGAM   =    8.735    optimization parameters                                  
                                                                                                    
   Description                                                                                      
     l     E      TYP  RCUT    TYP  RCUT                                                            
     1   .000     23  2.000                                                                         
     1   .500     23  2.000                                                                         
     0   .000     23  2.200                                                                         
     0  1.000     23  2.200                                                                         
     2  -.100     23  2.000                                                                         
  local pseudopotential read in
  partial core-charges read in
  atomic valenz-charges read in
  non local Contribution for L=           1  read in
    real space projection operators read in
  non local Contribution for L=           1  read in
    real space projection operators read in
  non local Contribution for L=           0  read in
    real space projection operators read in
  non local Contribution for L=           0  read in
    real space projection operators read in
    PAW grid and wavefunctions read in
 
   number of l-projection  operators is LMAX  =           4
   number of lm-projection operators is LMMAX =           8
 
 POTCAR:   PAW_PBE Pd 05Jan2001                   
   VRHFIN =Pd : s1 d9                                                                               
   LEXCH  = PE                                                                                      
   EATOM  =   809.7532 eV,   59.5152 Ry                                                             
                                                                                                    
   TITEL  = PAW_PBE Pd 05Jan2001                                                                    
   LULTRA =        F    use ultrasoft PP ?                                                          
   IUNSCR =        1    unscreen: 0-lin 1-nonlin 2-no                                               
   RPACOR =    2.000    partial core radius                                                         
   POMASS =  106.420; ZVAL   =   10.000    mass and valenz                                          
   RCORE  =    2.400    outmost cutoff radius                                                       
   RWIGS  =    2.710; RWIGS  =    1.434    wigner-seitz radius (au A)                               
   ENMAX  =  250.925; ENMIN  =  188.194 eV                                                          
   RCLOC  =    1.862    cutoff for local pot                                                        
   LCOR   =        T    correct aug charges                                                         
   LPAW   =        T    paw PP                                                                      
   EAUG   =  416.230                                                                                
   DEXC   =    -.079                                                                                
   RMAX   =    2.911    core radius for proj-oper                                                   
   RAUG   =    1.300    factor for augmentation sphere                                              
   RDEP   =    2.405    radius for radial grids                                                     
   QCUT   =   -4.294; QGAM   =    8.589    optimization parameters                                  
                                                                                                    
   Description                                                                                      
     l     E      TYP  RCUT    TYP  RCUT                                                            
     2   .000     23  2.400                                                                         
     2   .000     23  2.400                                                                         
     0   .000     23  2.400                                                                         
     0   .000     23  2.400                                                                         
     1  -.200     23  2.400                                                                         
     1   .000     23  2.400                                                                         
     3   .000      7   .000                                                                         
  local pseudopotential read in
  partial core-charges read in
  atomic valenz-charges read in
  non local Contribution for L=           2  read in
    real space projection operators read in
  non local Contribution for L=           2  read in
    real space projection operators read in
  non local Contribution for L=           0  read in
    real space projection operators read in
  non local Contribution for L=           0  read in
    real space projection operators read in
  non local Contribution for L=           1  read in
    real space projection operators read in
  non local Contribution for L=           1  read in
    real space projection operators read in
    PAW grid and wavefunctions read in
 
   number of l-projection  operators is LMAX  =           6
   number of lm-projection operators is LMMAX =          18
 
 Optimization of the real space projectors (new method)

 maximal supplied QI-value         = 17.01
 optimisation between [QCUT,QGAM] = [ 10.20, 20.41] = [ 29.16,116.64] Ry 
 Optimized for a Real-space Cutoff    1.30 Angstroem

   l    n(q)    QCUT    max X(q) W(low)/X(q) W(high)/X(q)  e(spline) 
   1      7    10.205     5.105    0.63E-04    0.40E-04    0.21E-07
   1      7    10.205     6.428    0.23E-03    0.34E-03    0.12E-06
   0      8    10.205    36.712    0.14E-04    0.23E-04    0.63E-08
   0      8    10.205    84.879    0.10E-03    0.11E-03    0.42E-07
 Optimization of the real space projectors (new method)

 maximal supplied QI-value         = 15.68
 optimisation between [QCUT,QGAM] = [ 10.20, 20.39] = [ 29.11,116.42] Ry 
 Optimized for a Real-space Cutoff    1.55 Angstroem

   l    n(q)    QCUT    max X(q) W(low)/X(q) W(high)/X(q)  e(spline) 
   2      9    10.195     3.680    0.11E-04    0.29E-04    0.57E-07
   2      9    10.195    27.311    0.11E-03    0.43E-03    0.27E-06
   0      9    10.195    18.519    0.19E-04    0.11E-05    0.70E-08
   0      9    10.195    72.116    0.58E-04    0.32E-04    0.48E-07
   1      9    10.195     7.288    0.76E-05    0.23E-04    0.27E-07
   1      9    10.195     9.770    0.42E-04    0.74E-04    0.11E-06
  PAW_PBE Na_pv 05Jan2001               :
 energy of atom  1       EATOM= -766.0439
 kinetic energy error for atom=    0.0103 (will be added to EATOM!!)
 PAW_PBE Pd 05Jan2001                   :
 energy of atom  2       EATOM= -809.7532
 kinetic energy error for atom=    0.0091 (will be added to EATOM!!)
 
 
 POSCAR: Na36 Pd12
  positions in direct lattice
  No initial velocities read in
 exchange correlation table for  LEXCH =        8
   RHO(1)=    0.500       N(1)  =     2000
   RHO(2)=  100.500       N(2)  =     4000
 


--------------------------------------------------------------------------------------------------------


 ion  position               nearest neighbor table
   1  0.055  0.055  0.922-
   2  0.055  0.555  0.922-
   3  0.555  0.055  0.922-
   4  0.555  0.555  0.922-
   5  0.211  0.211  0.984-
   6  0.211  0.711  0.984-
   7  0.711  0.211  0.984-
   8  0.711  0.711  0.984-
   9  0.383  0.383  0.953-
  10  0.383  0.883  0.953-
  11  0.883  0.383  0.953-
  12  0.883  0.883  0.953-
  13  0.242  0.242  0.797-
  14  0.242  0.742  0.797-
  15  0.742  0.242  0.797-
  16  0.742  0.742  0.797-
  17  0.398  0.398  0.859-
  18  0.398  0.898  0.859-
  19  0.898  0.398  0.859-
  20  0.898  0.898  0.859-
  21  0.070  0.070  0.828-
  22  0.070  0.570  0.828-
  23  0.570  0.070  0.828-
  24  0.570  0.570  0.828-
  25  0.430  0.430  0.672-
  26  0.430  0.930  0.672-
  27  0.930  0.430  0.672-
  28  0.930  0.930  0.672-
  29  0.086  0.086  0.734-
  30  0.086  0.586  0.734-
  31  0.586  0.086  0.734-
  32  0.586  0.586  0.734-
  33  0.258  0.258  0.703-
  34  0.258  0.758  0.703-
  35  0.758  0.258  0.703-
  36  0.758  0.758  0.703-
  37  0.227  0.227  0.891-
  38  0.227  0.727  0.891-
  39  0.727  0.227  0.891-
  40  0.727  0.727  0.891-
  41  0.414  0.414  0.766-
  42  0.414  0.914  0.766-
  43  0.914  0.414  0.766-
  44  0.914  0.914  0.766-
  45  0.102  0.102  0.641-
  46  0.102  0.602  0.641-
  47  0.602  0.102  0.641-
  48  0.602  0.602  0.641-
 

IMPORTANT INFORMATION: All symmetrisations will be switched off!
NOSYMM: (Re-)initialisation of all symmetry stuff for point group C_1.


----------------------------------------------------------------------------------------

                                     Primitive cell                                     

  volume of cell :    2994.4989

  direct lattice vectors                    reciprocal lattice vectors
    10.162335000  0.000000000  0.777130000     0.098402582 -0.056371037  0.000000000
     5.051452000  8.817931000  0.777130000     0.000000000  0.113405287  0.000000000
     0.000000000  0.000000000 33.416730000    -0.002288423 -0.001326372  0.029925130

  length of vectors
    10.192005872 10.192006940 33.416730000     0.113405299  0.113405287  0.030041797

  position of ions in fractional coordinates (direct lattice)
     0.054688000  0.054688000  0.921875000
     0.054688000  0.554688000  0.921875000
     0.554688000  0.054688000  0.921875000
     0.554688000  0.554688000  0.921875000
     0.210938000  0.210937000  0.984375000
     0.210938000  0.710937000  0.984375000
     0.710938000  0.210937000  0.984375000
     0.710938000  0.710937000  0.984375000
     0.382813000  0.382813000  0.953125000
     0.382813000  0.882813000  0.953125000
     0.882813000  0.382813000  0.953125000
     0.882813000  0.882813000  0.953125000
     0.242188000  0.242188000  0.796875000
     0.242188000  0.742188000  0.796875000
     0.742188000  0.242188000  0.796875000
     0.742188000  0.742188000  0.796875000
     0.398438000  0.398437000  0.859375000
     0.398438000  0.898437000  0.859375000
     0.898438000  0.398437000  0.859375000
     0.898438000  0.898437000  0.859375000
     0.070313000  0.070313000  0.828125000
     0.070313000  0.570313000  0.828125000
     0.570313000  0.070313000  0.828125000
     0.570313000  0.570313000  0.828125000
     0.429688000  0.429688000  0.671875000
     0.429688000  0.929688000  0.671875000
     0.929688000  0.429688000  0.671875000
     0.929688000  0.929688000  0.671875000
     0.085938000  0.085937000  0.734375000
     0.085938000  0.585937000  0.734375000
     0.585938000  0.085937000  0.734375000
     0.585938000  0.585937000  0.734375000
     0.257813000  0.257813000  0.703125000
     0.257813000  0.757813000  0.703125000
     0.757813000  0.257813000  0.703125000
     0.757813000  0.757813000  0.703125000
     0.226563000  0.226563000  0.890625000
     0.226563000  0.726563000  0.890625000
     0.726563000  0.226563000  0.890625000
     0.726563000  0.726563000  0.890625000
     0.414063000  0.414063000  0.765625000
     0.414063000  0.914063000  0.765625000
     0.914063000  0.414063000  0.765625000
     0.914063000  0.914063000  0.765625000
     0.101563000  0.101563000  0.640625000
     0.101563000  0.601563000  0.640625000
     0.601563000  0.101563000  0.640625000
     0.601563000  0.601563000  0.640625000

  ion indices of the primitive-cell ions
   primitive index   ion index
                 1           1
                 2           2
                 3           3
                 4           4
                 5           5
                 6           6
                 7           7
                 8           8
                 9           9
                10          10
                11          11
                12          12
                13          13
                14          14
                15          15
                16          16
                17          17
                18          18
                19          19
                20          20
                21          21
                22          22
                23          23
                24          24
                25          25
                26          26
                27          27
                28          28
                29          29
                30          30
                31          31
                32          32
                33          33
                34          34
                35          35
                36          36
                37          37
                38          38
                39          39
                40          40
                41          41
                42          42
                43          43
                44          44
                45          45
                46          46
                47          47
                48          48

----------------------------------------------------------------------------------------

 
 
 KPOINTS: Automatic mesh                          

Automatic generation of k-mesh.
 Grid dimensions read from file:
 generate k-points for:    5    5    1

 Generating k-lattice:

  Cartesian coordinates                     Fractional coordinates (reciprocal lattice)
     0.019680516 -0.011274207  0.000000000     0.200000000 -0.000000000  0.000000000
     0.000000000  0.022681057  0.000000000     0.000000000  0.200000000  0.000000000
    -0.002288423 -0.001326372  0.029925130     0.000000000  0.000000000  1.000000000

  Length of vectors
     0.022681060  0.022681057  0.030041797

  Shift w.r.t. Gamma in fractional coordinates (k-lattice)
     0.000000000  0.000000000  0.000000000

 
 Subroutine IBZKPT returns following result:
 ===========================================
 
 Found     13 irreducible k-points:
 
 Following reciprocal coordinates:
            Coordinates               Weight
  0.000000  0.000000  0.000000      1.000000
  0.200000  0.000000  0.000000      2.000000
  0.000000 -0.200000  0.000000      2.000000
  0.400000 -0.000000  0.000000      2.000000
  0.000000 -0.400000  0.000000      2.000000
  0.200000  0.200000  0.000000      2.000000
  0.400000  0.200000  0.000000      2.000000
 -0.200000 -0.400000  0.000000      2.000000
 -0.400000  0.200000  0.000000      2.000000
 -0.200000  0.400000  0.000000      2.000000
 -0.200000  0.200000  0.000000      2.000000
  0.400000  0.400000  0.000000      2.000000
 -0.400000  0.400000  0.000000      2.000000
 
 Following cartesian coordinates:
            Coordinates               Weight
  0.000000  0.000000  0.000000      1.000000
  0.019681 -0.011274  0.000000      2.000000
  0.000000 -0.022681  0.000000      2.000000
  0.039361 -0.022548  0.000000      2.000000
  0.000000 -0.045362  0.000000      2.000000
  0.019681  0.011407  0.000000      2.000000
  0.039361  0.000133  0.000000      2.000000
 -0.019681 -0.034088  0.000000      2.000000
 -0.039361  0.045229  0.000000      2.000000
 -0.019681  0.056636  0.000000      2.000000
 -0.019681  0.033955  0.000000      2.000000
  0.039361  0.022814  0.000000      2.000000
 -0.039361  0.067911  0.000000      2.000000
 


--------------------------------------------------------------------------------------------------------




 Dimension of arrays:
   k-points           NKPTS =     13   k-points in BZ     NKDIM =     13   number of bands    NBANDS=    224
   number of dos      NEDOS =    301   number of ions     NIONS =     48
   non local maximal  LDIM  =      6   non local SUM 2l+1 LMDIM =     18
   total plane-waves  NPLWV = ******
   max r-space proj   IRMAX =   5809   max aug-charges    IRDMAX=  17978
   dimension x,y,z NGX =    70 NGY =   70 NGZ =  224
   dimension x,y,z NGXF=   140 NGYF=  140 NGZF=  448
   support grid    NGXF=   140 NGYF=  140 NGZF=  448
   ions per type =              36  12
   NGX,Y,Z   is equivalent  to a cutoff of  11.42, 11.42, 11.14 a.u.
   NGXF,Y,Z  is equivalent  to a cutoff of  22.84, 22.84, 22.29 a.u.

 SYSTEM =  unknown system                          
 POSCAR =  Na36 Pd12                               

 Startparameter for this run:
   NWRITE =      2    write-flag & timer
   PREC   = accura    normal or accurate (medium, high low for compatibility)
   ISTART =      0    job   : 0-new  1-cont  2-samecut
   ICHARG =      2    charge: 1-file 2-atom 10-const
   ISPIN  =      2    spin polarized calculation?
   LNONCOLLINEAR =      F non collinear calculations
   LSORBIT =      F    spin-orbit coupling
   INIWAV =      1    electr: 0-lowe 1-rand  2-diag
   LASPH  =      T    aspherical Exc in radial PAW
 Electronic Relaxation 1
   ENCUT  =  400.0 eV  29.40 Ry    5.42 a.u.  16.62 16.62 54.49*2*pi/ulx,y,z
   ENINI  =  400.0     initial cutoff
   ENAUG  = 4000.0 eV  augmentation charge cutoff
   NELM   =    100;   NELMIN=  8; NELMDL=  0     # of ELM steps 
   EDIFF  = 0.1E-04   stopping-criterion for ELM
   LREAL  =      T    real-space projection
   NLSPLINE    = F    spline interpolate recip. space projectors
   LCOMPAT=      F    compatible to vasp.4.4
   GGA_COMPAT  = T    GGA compatible to vasp.4.4-vasp.4.6
   LMAXPAW     = -100 max onsite density
   LMAXMIX     =    4 max onsite mixed and CHGCAR
   VOSKOWN=      0    Vosko Wilk Nusair interpolation
   ROPT   =   -0.00025  -0.00025
 Ionic relaxation
   EDIFFG = -.2E-01   stopping-criterion for IOM
   NSW    =     99    number of steps for IOM
   NBLOCK =      1;   KBLOCK =     99    inner block; outer block 
   IBRION =      1    ionic relax: 0-MD 1-quasi-New 2-CG
   NFREE  =      0    steps in history (QN), initial steepest desc. (CG)
   ISIF   =      2    stress and relaxation
   IWAVPR =     11    prediction:  0-non 1-charg 2-wave 3-comb
   ISYM   =      0    0-nonsym 1-usesym 2-fastsym
   LCORR  =      T    Harris-Foulkes like correction to forces

   POTIM  = 1.4000    time-step for ionic-motion
   TEIN   =    0.0    initial temperature
   TEBEG  =    0.0;   TEEND  =   0.0 temperature during run
   SMASS  =  -3.00    Nose mass-parameter (am)
   estimated Nose-frequenzy (Omega)   =  0.10E-29 period in steps = 0.45E+46 mass=  -0.237E-26a.u.
   SCALEE = 1.0000    scale energy and forces
   NPACO  =    256;   APACO  = 16.0  distance and # of slots for P.C.
   PSTRESS=    0.0 pullay stress

  Mass of Ions in am
   POMASS =  22.99106.42
  Ionic Valenz
   ZVAL   =   7.00 10.00
  Atomic Wigner-Seitz radii
   RWIGS  =  -1.00 -1.00
  virtual crystal weights 
   VCA    =   1.00  1.00
   NELECT =     372.0000    total number of electrons
   NUPDOWN=      -1.0000    fix difference up-down

 DOS related values:
   EMIN   =  10.00;   EMAX   =-10.00  energy-range for DOS
   EFERMI =   0.00
   ISMEAR =     1;   SIGMA  =   0.15  broadening in eV -4-tet -1-fermi 0-gaus

 Electronic relaxation 2 (details)
   IALGO  =     68    algorithm
   LDIAG  =      T    sub-space diagonalisation (order eigenvalues)
   LSUBROT=      F    optimize rotation matrix (better conditioning)
   TURBO    =      0    0=normal 1=particle mesh
   IRESTART =      0    0=no restart 2=restart with 2 vectors
   NREBOOT  =      0    no. of reboots
   NMIN     =      0    reboot dimension
   EREF     =   0.00    reference energy to select bands
   IMIX   =      4    mixing-type and parameters
     AMIX     =   0.20;   BMIX     =  0.00
     AMIX_MAG =   0.80;   BMIX_MAG =  0.00
     AMIN     =   0.01
     WC   =   100.;   INIMIX=   1;  MIXPRE=   1;  MAXMIX= -45

 Intra band minimization:
   WEIMIN = 0.0010     energy-eigenvalue tresh-hold
   EBREAK =  0.11E-07  absolut break condition
   DEPER  =   0.30     relativ break condition  

   TIME   =   0.40     timestep for ELM

  volume/ion in A,a.u.               =      62.39       421.00
  Fermi-wavevector in a.u.,A,eV,Ry     =   0.816860  1.543642  9.078632  0.667261
  Thomas-Fermi vector in A             =   1.927204
 
 Write flags
   LWAVE        =      F    write WAVECAR
   LDOWNSAMPLE  =      F    k-point downsampling of WAVECAR
   LCHARG       =      T    write CHGCAR
   LVTOT        =      T    write LOCPOT, total local potential
   LVHAR        =      F    write LOCPOT, Hartree potential only
   LELF         =      F    write electronic localiz. function (ELF)
   LORBIT       =     11    0 simple, 1 ext, 2 COOP (PROOUT), +10 PAW based schemes


 Dipole corrections
   LMONO  =      F    monopole corrections only (constant potential shift)
   LDIPOL =      T    correct potential (dipole corrections)
   IDIPOL =      3    1-x, 2-y, 3-z, 4-all directions 
   EPSILON=  1.0000000 bulk dielectric constant

 Exchange correlation treatment:
   GGA     =    PE    GGA type
   LEXCH   =     8    internal setting for exchange type
   VOSKOWN=      0    Vosko Wilk Nusair interpolation
   LHFCALC =     F    Hartree Fock is set to
   LHFONE  =     F    Hartree Fock one center treatment
   AEXX    =    0.0000 exact exchange contribution

 Linear response parameters
   LEPSILON=     F    determine dielectric tensor
   LRPA    =     F    only Hartree local field effects (RPA)
   LNABLA  =     F    use nabla operator in PAW spheres
   LVEL    =     F    velocity operator in full k-point grid
   LINTERFAST=   F  fast interpolation
   KINTER  =     0    interpolate to denser k-point grid
   CSHIFT  =0.1000    complex shift for real part using Kramers Kronig
   OMEGAMAX=  -1.0    maximum frequency
   DEG_THRESHOLD= 0.2000000E-02 threshold for treating states as degnerate
   RTIME   =   -0.100 relaxation time in fs
  (WPLASMAI=    0.000 imaginary part of plasma frequency in eV, 0.658/RTIME)
   DFIELD  = 0.0000000 0.0000000 0.0000000 field for delta impulse in time
 
 Orbital magnetization related:
   ORBITALMAG=     F  switch on orbital magnetization
   LCHIMAG   =     F  perturbation theory with respect to B field
   DQ        =  0.001000  dq finite difference perturbation B field
   LLRAUG    =     F  two centre corrections for induced B field



--------------------------------------------------------------------------------------------------------


 quasi-Newton-method for relaxation of ions
   using selective dynamics as specified on POSCAR
 charge density and potential will be updated during run
 spin polarized calculation
 RMM-DIIS sequential band-by-band and
  variant of blocked Davidson during initial phase
 perform sub-space diagonalisation
    before iterative eigenvector-optimisation
 modified Broyden-mixing scheme, WC =      100.0
 initial mixing is a Kerker type mixing with AMIX =  0.2000 and BMIX =      0.0010
 Hartree-type preconditioning will be used
 using additional bands           38
 real space projection scheme for non local part
 use partial core corrections
 calculate Harris-corrections to forces 
   (improved forces if not selfconsistent)
 use gradient corrections 
 use of overlap-Matrix (Vanderbilt PP)
 Methfessel and Paxton  Order N= 1 SIGMA  =   0.15


--------------------------------------------------------------------------------------------------------


  energy-cutoff  :      400.00
  volume of cell :     2994.50
      direct lattice vectors                 reciprocal lattice vectors
    10.162335000  0.000000000  0.777130000     0.098402582 -0.056371037  0.000000000
     5.051452000  8.817931000  0.777130000     0.000000000  0.113405287  0.000000000
     0.000000000  0.000000000 33.416730000    -0.002288423 -0.001326372  0.029925130

  length of vectors
    10.192005872 10.192006940 33.416730000     0.113405299  0.113405287  0.030041797


 
 k-points in units of 2pi/SCALE and weight: Automatic mesh                          
   0.00000000  0.00000000  0.00000000       0.040
   0.01968052 -0.01127421  0.00000000       0.080
   0.00000000 -0.02268106  0.00000000       0.080
   0.03936103 -0.02254841  0.00000000       0.080
   0.00000000 -0.04536211  0.00000000       0.080
   0.01968052  0.01140685  0.00000000       0.080
   0.03936103  0.00013264  0.00000000       0.080
  -0.01968052 -0.03408791  0.00000000       0.080
  -0.03936103  0.04522947  0.00000000       0.080
  -0.01968052  0.05663632  0.00000000       0.080
  -0.01968052  0.03395526  0.00000000       0.080
   0.03936103  0.02281370  0.00000000       0.080
  -0.03936103  0.06791053  0.00000000       0.080
 
 k-points in reciprocal lattice and weights: Automatic mesh                          
   0.00000000  0.00000000  0.00000000       0.040
   0.20000000  0.00000000  0.00000000       0.080
   0.00000000 -0.20000000  0.00000000       0.080
   0.40000000 -0.00000000  0.00000000       0.080
   0.00000000 -0.40000000  0.00000000       0.080
   0.20000000  0.20000000  0.00000000       0.080
   0.40000000  0.20000000  0.00000000       0.080
  -0.20000000 -0.40000000  0.00000000       0.080
  -0.40000000  0.20000000  0.00000000       0.080
  -0.20000000  0.40000000  0.00000000       0.080
  -0.20000000  0.20000000  0.00000000       0.080
   0.40000000  0.40000000  0.00000000       0.080
  -0.40000000  0.40000000  0.00000000       0.080
 
 position of ions in fractional coordinates (direct lattice) 
   0.05468800  0.05468800  0.92187500
   0.05468800  0.55468800  0.92187500
   0.55468800  0.05468800  0.92187500
   0.55468800  0.55468800  0.92187500
   0.21093800  0.21093700  0.98437500
   0.21093800  0.71093700  0.98437500
   0.71093800  0.21093700  0.98437500
   0.71093800  0.71093700  0.98437500
   0.38281300  0.38281300  0.95312500
   0.38281300  0.88281300  0.95312500
   0.88281300  0.38281300  0.95312500
   0.88281300  0.88281300  0.95312500
   0.24218800  0.24218800  0.79687500
   0.24218800  0.74218800  0.79687500
   0.74218800  0.24218800  0.79687500
   0.74218800  0.74218800  0.79687500
   0.39843800  0.39843700  0.85937500
   0.39843800  0.89843700  0.85937500
   0.89843800  0.39843700  0.85937500
   0.89843800  0.89843700  0.85937500
   0.07031300  0.07031300  0.82812500
   0.07031300  0.57031300  0.82812500
   0.57031300  0.07031300  0.82812500
   0.57031300  0.57031300  0.82812500
   0.42968800  0.42968800  0.67187500
   0.42968800  0.92968800  0.67187500
   0.92968800  0.42968800  0.67187500
   0.92968800  0.92968800  0.67187500
   0.08593800  0.08593700  0.73437500
   0.08593800  0.58593700  0.73437500
   0.58593800  0.08593700  0.73437500
   0.58593800  0.58593700  0.73437500
   0.25781300  0.25781300  0.70312500
   0.25781300  0.75781300  0.70312500
   0.75781300  0.25781300  0.70312500
   0.75781300  0.75781300  0.70312500
   0.22656300  0.22656300  0.89062500
   0.22656300  0.72656300  0.89062500
   0.72656300  0.22656300  0.89062500
   0.72656300  0.72656300  0.89062500
   0.41406300  0.41406300  0.76562500
   0.41406300  0.91406300  0.76562500
   0.91406300  0.41406300  0.76562500
   0.91406300  0.91406300  0.76562500
   0.10156300  0.10156300  0.64062500
   0.10156300  0.60156300  0.64062500
   0.60156300  0.10156300  0.64062500
   0.60156300  0.60156300  0.64062500
 
 position of ions in cartesian coordinates  (Angst):
   0.83201158  0.48223501 30.89104734
   3.35773758  4.89120051 31.27961234
   5.91317908  0.48223501 31.27961234
   8.43890508  4.89120051 31.66817734
   3.20916075  1.86002791 33.22244531
   5.73488675  6.26899341 33.61101031
   8.29032825  1.86002791 33.61101031
  10.81605425  6.26899341 33.99957531
   5.82403544  3.37561862 32.44531171
   8.34976144  7.78458412 32.83387671
  10.90520294  3.37561862 32.83387671
  13.43092894  7.78458412 33.22244171
   3.68459665  2.13559707 27.00537984
   6.21032265  6.54456257 27.39394484
   8.76576415  2.13559707 27.39394484
  11.29149015  6.54456257 27.78250984
   6.06174581  3.51338997 29.33677781
   8.58747181  7.92235547 29.72534281
  11.14291331  3.51338997 29.72534281
  13.66863931  7.92235547 30.11390781
   1.06972701  0.62001518 27.78251421
   3.59545301  5.02898068 28.17107921
   6.15089451  0.62001518 28.17107921
   8.67662051  5.02898068 28.55964421
   6.53718171  3.78895914 23.11971234
   9.06290771  8.19792464 23.50827734
  11.61834921  3.78895914 23.50827734
  14.14407521  8.19792464 23.89684234
   1.30743738  0.75778654 24.67398031
   3.83316338  5.16675204 25.06254531
   6.38860488  0.75778654 25.06254531
   8.91433088  5.16675204 25.45111031
   3.92231207  2.27337724 23.89684671
   6.44803807  6.68234274 24.28541171
   9.00347957  2.27337724 24.28541171
  11.52920557  6.68234274 24.67397671
   3.44688122  1.99781690 30.11391296
   5.97260722  6.40678240 30.50247796
   8.52804872  1.99781690 30.50247796
  11.05377472  6.40678240 30.89104296
   6.29946629  3.65117896 26.22824546
   8.82519229  8.06014446 26.61681046
  11.38063379  3.65117896 26.61681046
  13.90635979  8.06014446 27.00537546
   1.54515785  0.89557553 21.56544796
   4.07088385  5.30454103 21.95401296
   6.62632535  0.89557553 21.95401296
   9.15205135  5.30454103 22.34257796
 


--------------------------------------------------------------------------------------------------------


 k-point   1 :   0.0000 0.0000 0.0000  plane waves:   54357
 k-point   2 :   0.2000 0.0000 0.0000  plane waves:   54442
 k-point   3 :   0.0000-0.2000 0.0000  plane waves:   54442
 k-point   4 :   0.4000-0.0000 0.0000  plane waves:   54401
 k-point   5 :   0.0000-0.4000 0.0000  plane waves:   54401
 k-point   6 :   0.2000 0.2000 0.0000  plane waves:   54424
 k-point   7 :   0.4000 0.2000 0.0000  plane waves:   54377
 k-point   8 :  -0.2000-0.4000 0.0000  plane waves:   54376
 k-point   9 :  -0.4000 0.2000 0.0000  plane waves:   54357
 k-point  10 :  -0.2000 0.4000 0.0000  plane waves:   54357
 k-point  11 :  -0.2000 0.2000 0.0000  plane waves:   54373
 k-point  12 :   0.4000 0.4000 0.0000  plane waves:   54393
 k-point  13 :  -0.4000 0.4000 0.0000  plane waves:   54370

 maximum and minimum number of plane-waves per node :     13645    13539

 maximum number of plane-waves:     54442
 maximum index in each direction: 
   IXMAX=   17   IYMAX=   17   IZMAX=   54
   IXMIN=  -17   IYMIN=  -17   IZMIN=  -54


 real space projection operators:
  total allocation   :      16796.19 KBytes
  max/ min on nodes  :       4332.31       4065.78


 parallel 3D FFT for wavefunctions:
    minimum data exchange during FFTs selected (reduces bandwidth)
 parallel 3D FFT for charge:
    minimum data exchange during FFTs selected (reduces bandwidth)


 total amount of memory used by VASP MPI-rank0   838704. kBytes
=======================================================================

   base      :      30000. kBytes
   nonlr-proj:       7374. kBytes
   fftplans  :      46033. kBytes
   grid      :     113259. kBytes
   one-center:        373. kBytes
   wavefun   :     641665. kBytes
 
     INWAV:  cpu time    0.0002: real time    0.0003
 Broyden mixing: mesh for mixing (old mesh)
   NGX = 33   NGY = 33   NGZ =109
  (NGX  =140   NGY  =140   NGZ  =448)
  gives a total of 118701 points

 initial charge density was supplied:
 charge density of overlapping atoms calculated
 number of electron     372.0000000 magnetization       0.0000000
 keeping initial charge density in first step


--------------------------------------------------------------------------------------------------------


 Maximum index for non-local projection operator         1530
 Maximum index for augmentation-charges         2424 (set IRDMAX)


--------------------------------------------------------------------------------------------------------


 First call to EWALD:  gamma=   0.123
 Maximum number of real-space cells 4x 4x 1
 Maximum number of reciprocal cells 2x 2x 6

    FEWALD:  cpu time    0.0322: real time    0.0325


--------------------------------------- Iteration      1(   1)  ---------------------------------------


    POTLOK:  cpu time    3.9456: real time    3.9485
    SETDIJ:  cpu time    2.0814: real time    2.0817
     EDDAV:  cpu time   34.5062: real time   34.5228
       DOS:  cpu time    0.0069: real time    0.0073
    --------------------------------------------
      LOOP:  cpu time   40.5404: real time   40.5608

 eigenvalue-minimisations  : 14616
 total energy-change (2. order) : 0.2590551E+04  (-0.1620603E+05)
 number of electron     372.0000000 magnetization       0.0000000
 augmentation part      372.0000000 magnetization       0.0000000

 DIPCOR: dipole corrections for dipol
 direction  3 min pos   143,
 dipolmoment           0.000000      0.000000      0.000052 electrons x Angstroem
 Tr[quadrupol]     -6205.177524

 energy correction for charged system         0.000000 eV
 dipol+quadrupol energy correction            0.000000 eV
 added-field ion interaction          0.000000 eV  (added to PSCEN)


 Free energy of the ion-electron system (eV)
  ---------------------------------------------------
  alpha Z        PSCENC =       375.58426576
  Ewald energy   TEWEN  =    130085.65693298
  -Hartree energ DENC   =   -159374.57513594
  -exchange      EXHF   =         0.00000000
  -V(xc)+E(xc)   XCENC  =       522.69096970
  PAW double counting   =     24676.72743854   -27118.68127846
  entropy T*S    EENTRO =        -0.00190021
  eigenvalues    EBANDS =     -3870.98794378
  atomic energy  EATOM  =     37294.13790831
  Solvation  Ediel_sol  =         0.00000000
  ---------------------------------------------------
  free energy    TOTEN  =      2590.55125689 eV

  energy without entropy =     2590.55315711  energy(sigma->0) =     2590.55189030


--------------------------------------------------------------------------------------------------------




--------------------------------------- Iteration      1(   2)  ---------------------------------------


     EDDAV:  cpu time   31.1104: real time   31.4339
       DOS:  cpu time    0.0064: real time    0.0066
    --------------------------------------------
      LOOP:  cpu time   31.1168: real time   31.4406

 eigenvalue-minimisations  : 12824
 total energy-change (2. order) :-0.2487444E+04  (-0.2389213E+04)
 number of electron     372.0000000 magnetization       0.0000000
 augmentation part      372.0000000 magnetization       0.0000000

 DIPCOR: dipole corrections for dipol
 direction  3 min pos   143,
 dipolmoment           0.000000      0.000000      0.000052 electrons x Angstroem
 Tr[quadrupol]     -6205.177524

 energy correction for charged system         0.000000 eV
 dipol+quadrupol energy correction            0.000000 eV
 added-field ion interaction          0.000000 eV  (added to PSCEN)


 Free energy of the ion-electron system (eV)
  ---------------------------------------------------
  alpha Z        PSCENC =       375.58426576
  Ewald energy   TEWEN  =    130085.65693298
  -Hartree energ DENC   =   -159374.57513594
  -exchange      EXHF   =         0.00000000
  -V(xc)+E(xc)   XCENC  =       522.69096970
  PAW double counting   =     24676.72743854   -27118.68127846
  entropy T*S    EENTRO =        -0.00100985
  eigenvalues    EBANDS =     -6358.43308995
  atomic energy  EATOM  =     37294.13790831
  Solvation  Ediel_sol  =         0.00000000
  ---------------------------------------------------
  free energy    TOTEN  =       103.10700108 eV

  energy without entropy =      103.10801094  energy(sigma->0) =      103.10733770


--------------------------------------------------------------------------------------------------------




--------------------------------------- Iteration      1(   3)  ---------------------------------------


     EDDAV:  cpu time   31.9924: real time   32.3138
       DOS:  cpu time    0.0062: real time    0.0065
    --------------------------------------------
      LOOP:  cpu time   31.9985: real time   32.3205

 eigenvalue-minimisations  : 13224
 total energy-change (2. order) :-0.2082969E+03  (-0.1976614E+03)
 number of electron     372.0000000 magnetization       0.0000000
 augmentation part      372.0000000 magnetization       0.0000000

 DIPCOR: dipole corrections for dipol
 direction  3 min pos   143,
 dipolmoment           0.000000      0.000000      0.000052 electrons x Angstroem
 Tr[quadrupol]     -6205.177524

 energy correction for charged system         0.000000 eV
 dipol+quadrupol energy correction            0.000000 eV
 added-field ion interaction          0.000000 eV  (added to PSCEN)


 Free energy of the ion-electron system (eV)
  ---------------------------------------------------
  alpha Z        PSCENC =       375.58426576
  Ewald energy   TEWEN  =    130085.65693298
  -Hartree energ DENC   =   -159374.57513594
  -exchange      EXHF   =         0.00000000
  -V(xc)+E(xc)   XCENC  =       522.69096970
  PAW double counting   =     24676.72743854   -27118.68127846
  entropy T*S    EENTRO =         0.01939541
  eigenvalues    EBANDS =     -6566.75043363
  atomic energy  EATOM  =     37294.13790831
  Solvation  Ediel_sol  =         0.00000000
  ---------------------------------------------------
  free energy    TOTEN  =      -105.18993734 eV

  energy without entropy =     -105.20933274  energy(sigma->0) =     -105.19640247


--------------------------------------------------------------------------------------------------------




--------------------------------------- Iteration      1(   4)  ---------------------------------------


     EDDAV:  cpu time   32.7894: real time   33.0997
       DOS:  cpu time    0.0062: real time    0.0064
    --------------------------------------------
      LOOP:  cpu time   32.7957: real time   33.1058

 eigenvalue-minimisations  : 13296
 total energy-change (2. order) :-0.7390161E+01  (-0.7356547E+01)
 number of electron     372.0000000 magnetization       0.0000000
 augmentation part      372.0000000 magnetization       0.0000000

 DIPCOR: dipole corrections for dipol
 direction  3 min pos   143,
 dipolmoment           0.000000      0.000000      0.000052 electrons x Angstroem
 Tr[quadrupol]     -6205.177524

 energy correction for charged system         0.000000 eV
 dipol+quadrupol energy correction            0.000000 eV
 added-field ion interaction          0.000000 eV  (added to PSCEN)


 Free energy of the ion-electron system (eV)
  ---------------------------------------------------
  alpha Z        PSCENC =       375.58426576
  Ewald energy   TEWEN  =    130085.65693298
  -Hartree energ DENC   =   -159374.57513594
  -exchange      EXHF   =         0.00000000
  -V(xc)+E(xc)   XCENC  =       522.69096970
  PAW double counting   =     24676.72743854   -27118.68127846
  entropy T*S    EENTRO =         0.01949849
  eigenvalues    EBANDS =     -6574.14069755
  atomic energy  EATOM  =     37294.13790831
  Solvation  Ediel_sol  =         0.00000000
  ---------------------------------------------------
  free energy    TOTEN  =      -112.58009816 eV

  energy without entropy =     -112.59959666  energy(sigma->0) =     -112.58659766


--------------------------------------------------------------------------------------------------------




--------------------------------------- Iteration      1(   5)  ---------------------------------------


     EDDAV:  cpu time   42.7679: real time   43.6796
       DOS:  cpu time    0.0062: real time    0.0065
    CHARGE:  cpu time    2.9153: real time    2.9157
    MIXING:  cpu time    0.1936: real time    0.1938
    --------------------------------------------
      LOOP:  cpu time   45.8829: real time   46.7957

 eigenvalue-minimisations  : 18952
 total energy-change (2. order) :-0.3242935E+00  (-0.3242506E+00)
 number of electron     372.0000046 magnetization       0.0000161
 augmentation part      214.0502370 magnetization      -0.0020156

 DIPCOR: dipole corrections for dipol
 direction  3 min pos   143,
 dipolmoment           0.000000      0.000000      0.000052 electrons x Angstroem
 Tr[quadrupol]     -6205.177524

 energy correction for charged system         0.000000 eV
 dipol+quadrupol energy correction            0.000000 eV
 added-field ion interaction          0.000000 eV  (added to PSCEN)


 Broyden mixing:
  rms(total) = 0.83880E+00    rms(broyden)= 0.83872E+00
  rms(prec ) = 0.11344E+01
  weight for this iteration     100.00

 Free energy of the ion-electron system (eV)
  ---------------------------------------------------
  alpha Z        PSCENC =       375.58426576
  Ewald energy   TEWEN  =    130085.65693298
  -Hartree energ DENC   =   -159374.57513594
  -exchange      EXHF   =         0.00000000
  -V(xc)+E(xc)   XCENC  =       522.69096970
  PAW double counting   =     24676.72743854   -27118.68127846
  entropy T*S    EENTRO =         0.01950415
  eigenvalues    EBANDS =     -6574.46499669
  atomic energy  EATOM  =     37294.13790831
  Solvation  Ediel_sol  =         0.00000000
  ---------------------------------------------------
  free energy    TOTEN  =      -112.90439165 eV

  energy without entropy =     -112.92389580  energy(sigma->0) =     -112.91089303


--------------------------------------------------------------------------------------------------------




--------------------------------------- Iteration      1(   6)  ---------------------------------------


    POTLOK:  cpu time    4.2303: real time    4.5504
    SETDIJ:  cpu time    2.0235: real time    2.0237
    EDDIAG:  cpu time    5.2992: real time    5.2999
  RMM-DIIS:  cpu time   21.1738: real time   21.1766
    ORTHCH:  cpu time    0.4034: real time    0.4040
       DOS:  cpu time    0.0068: real time    0.0070
    CHARGE:  cpu time    2.8293: real time    2.8305
    MIXING:  cpu time    0.1532: real time    0.1534
    --------------------------------------------
      LOOP:  cpu time   36.1194: real time   36.4492

 eigenvalue-minimisations  : 14356
 total energy-change (2. order) :-0.3561313E+02  (-0.9805254E+01)
 number of electron     372.0000046 magnetization       0.0021194
 augmentation part      204.3911879 magnetization      -0.0156126

 DIPCOR: dipole corrections for dipol
 direction  3 min pos   141,
 dipolmoment           0.000000      0.000000     -5.516883 electrons x Angstroem
 Tr[quadrupol]     -6234.738003

 energy correction for charged system         0.000000 eV
 dipol+quadrupol energy correction            0.912472 eV
 added-field ion interaction          0.000000 eV  (added to PSCEN)


 Broyden mixing:
  rms(total) = 0.43912E+01    rms(broyden)= 0.43911E+01
  rms(prec ) = 0.65930E+01
  weight for this iteration     100.00

 eigenvalues of (default mixing * dielectric matrix)
  average eigenvalue GAMMA=   0.1145
  0.1145

 Free energy of the ion-electron system (eV)
  ---------------------------------------------------
  alpha Z        PSCENC =       376.49673784
  Ewald energy   TEWEN  =    130085.65693298
  -Hartree energ DENC   =   -159964.36241641
  -exchange      EXHF   =         0.00000000
  -V(xc)+E(xc)   XCENC  =       525.16492575
  PAW double counting   =     24869.21009625   -27309.59176117
  entropy T*S    EENTRO =        -0.34517849
  eigenvalues    EBANDS =     -6024.88476669
  atomic energy  EATOM  =     37294.13790831
  Solvation  Ediel_sol  =         0.00000000
  ---------------------------------------------------
  free energy    TOTEN  =      -148.51752164 eV

  energy without entropy =     -148.17234315  energy(sigma->0) =     -148.40246214


--------------------------------------------------------------------------------------------------------




--------------------------------------- Iteration      1(   7)  ---------------------------------------


    POTLOK:  cpu time    3.9466: real time    4.7233
    SETDIJ:  cpu time    1.9607: real time    1.9610
    EDDIAG:  cpu time    5.3465: real time    5.3471
  RMM-DIIS:  cpu time   18.7036: real time   18.7067
    ORTHCH:  cpu time    0.4085: real time    0.4087
       DOS:  cpu time    0.0141: real time    0.0144
    CHARGE:  cpu time    2.8535: real time    2.8547
    MIXING:  cpu time    0.1479: real time    0.1480
    --------------------------------------------
      LOOP:  cpu time   33.3813: real time   34.1602

 eigenvalue-minimisations  : 12659
 total energy-change (2. order) : 0.3818531E+02  (-0.1231768E+01)
 number of electron     372.0000046 magnetization       0.0019784
 augmentation part      212.2195013 magnetization       0.0016055

 DIPCOR: dipole corrections for dipol
 direction  3 min pos   131,
 dipolmoment           0.000000      0.000000     -0.651857 electrons x Angstroem
 Tr[quadrupol]     -6240.367104

 energy correction for charged system         0.000000 eV
 dipol+quadrupol energy correction            0.012739 eV
 added-field ion interaction          0.000000 eV  (added to PSCEN)


 Broyden mixing:
  rms(total) = 0.84429E+00    rms(broyden)= 0.84408E+00
  rms(prec ) = 0.11255E+01
  weight for this iteration     100.00

 eigenvalues of (default mixing * dielectric matrix)
  average eigenvalue GAMMA=   0.3040
  0.5141  0.0939

 Free energy of the ion-electron system (eV)
  ---------------------------------------------------
  alpha Z        PSCENC =       375.59700478
  Ewald energy   TEWEN  =    130085.65693298
  -Hartree energ DENC   =   -159999.30310606
  -exchange      EXHF   =         0.00000000
  -V(xc)+E(xc)   XCENC  =       524.30236995
  PAW double counting   =     24830.26751930   -27272.33836615
  entropy T*S    EENTRO =        -0.01389922
  eigenvalues    EBANDS =     -5948.63857153
  atomic energy  EATOM  =     37294.13790831
  Solvation  Ediel_sol  =         0.00000000
  ---------------------------------------------------
  free energy    TOTEN  =      -110.33220764 eV

  energy without entropy =     -110.31830842  energy(sigma->0) =     -110.32757457


--------------------------------------------------------------------------------------------------------




--------------------------------------- Iteration      1(   8)  ---------------------------------------


    POTLOK:  cpu time    4.2437: real time    4.5190
    SETDIJ:  cpu time    2.1124: real time    2.1149
    EDDIAG:  cpu time    5.0422: real time    5.0428
  RMM-DIIS:  cpu time   17.7702: real time   17.7722
    ORTHCH:  cpu time    0.4087: real time    0.4092
       DOS:  cpu time    0.0078: real time    0.0080
    CHARGE:  cpu time    2.9070: real time    2.9088
    MIXING:  cpu time    0.2125: real time    0.2126
    --------------------------------------------
      LOOP:  cpu time   32.7046: real time   32.9915

 eigenvalue-minimisations  : 11998
 total energy-change (2. order) : 0.3668165E+01  (-0.4849309E+00)
 number of electron     372.0000045 magnetization       0.0026324
 augmentation part      212.7556874 magnetization       0.0017248

 DIPCOR: dipole corrections for dipol
 direction  3 min pos   134,
 dipolmoment           0.000000      0.000000     -0.223237 electrons x Angstroem
 Tr[quadrupol]     -6226.859029

 energy correction for charged system         0.000000 eV
 dipol+quadrupol energy correction            0.001494 eV
 added-field ion interaction          0.000000 eV  (added to PSCEN)


 Broyden mixing:
  rms(total) = 0.59845E+00    rms(broyden)= 0.59844E+00
  rms(prec ) = 0.89448E+00
  weight for this iteration     100.00

 eigenvalues of (default mixing * dielectric matrix)
  average eigenvalue GAMMA=   0.5174
  0.9452  0.0992  0.5078

 Free energy of the ion-electron system (eV)
  ---------------------------------------------------
  alpha Z        PSCENC =       375.58575981
  Ewald energy   TEWEN  =    130085.65693298
  -Hartree energ DENC   =   -159748.93666041
  -exchange      EXHF   =         0.00000000
  -V(xc)+E(xc)   XCENC  =       523.95321292
  PAW double counting   =     24845.55724737   -27288.43210277
  entropy T*S    EENTRO =         0.00613078
  eigenvalues    EBANDS =     -6194.19247144
  atomic energy  EATOM  =     37294.13790831
  Solvation  Ediel_sol  =         0.00000000
  ---------------------------------------------------
  free energy    TOTEN  =      -106.66404244 eV

  energy without entropy =     -106.67017323  energy(sigma->0) =     -106.66608604


--------------------------------------------------------------------------------------------------------




--------------------------------------- Iteration      1(   9)  ---------------------------------------


    POTLOK:  cpu time    4.9575: real time    5.5602
    SETDIJ:  cpu time    1.9581: real time    1.9584
    EDDIAG:  cpu time    5.0470: real time    5.0477
  RMM-DIIS:  cpu time   19.9325: real time   19.9350
    ORTHCH:  cpu time    0.4158: real time    0.4161
       DOS:  cpu time    0.0128: real time    0.0131
    CHARGE:  cpu time    2.8861: real time    2.8874
    MIXING:  cpu time    0.1735: real time    0.1736
    --------------------------------------------
      LOOP:  cpu time   35.3832: real time   35.9873

 eigenvalue-minimisations  : 13543
 total energy-change (2. order) : 0.2020346E+01  (-0.1014652E+00)
 number of electron     372.0000046 magnetization       0.0022538
 augmentation part      212.7113300 magnetization       0.0011772

 DIPCOR: dipole corrections for dipol
 direction  3 min pos   136,
 dipolmoment           0.000000      0.000000     -1.296671 electrons x Angstroem
 Tr[quadrupol]     -6234.419379

 energy correction for charged system         0.000000 eV
 dipol+quadrupol energy correction            0.050407 eV
 added-field ion interaction          0.000000 eV  (added to PSCEN)


 Broyden mixing:
  rms(total) = 0.51403E+00    rms(broyden)= 0.51403E+00
  rms(prec ) = 0.59780E+00
  weight for this iteration     100.00

 eigenvalues of (default mixing * dielectric matrix)
  average eigenvalue GAMMA=   0.8115
  2.1065  0.7213  0.0996  0.3186

 Free energy of the ion-electron system (eV)
  ---------------------------------------------------
  alpha Z        PSCENC =       375.63467286
  Ewald energy   TEWEN  =    130085.65693298
  -Hartree energ DENC   =   -159859.25744391
  -exchange      EXHF   =         0.00000000
  -V(xc)+E(xc)   XCENC  =       524.00185991
  PAW double counting   =     24884.39588174   -27329.01698370
  entropy T*S    EENTRO =        -0.00437845
  eigenvalues    EBANDS =     -6080.19214579
  atomic energy  EATOM  =     37294.13790831
  Solvation  Ediel_sol  =         0.00000000
  ---------------------------------------------------
  free energy    TOTEN  =      -104.64369605 eV

  energy without entropy =     -104.63931759  energy(sigma->0) =     -104.64223656


--------------------------------------------------------------------------------------------------------




--------------------------------------- Iteration      1(  10)  ---------------------------------------


    POTLOK:  cpu time    3.7079: real time    4.3972
    SETDIJ:  cpu time    2.0059: real time    2.0062
    EDDIAG:  cpu time    5.0346: real time    5.0352
  RMM-DIIS:  cpu time   21.3684: real time   21.3711
    ORTHCH:  cpu time    0.3994: real time    0.3995
       DOS:  cpu time    0.0069: real time    0.0072
    CHARGE:  cpu time    2.9210: real time    2.9223
    MIXING:  cpu time    0.2369: real time    0.2370
    --------------------------------------------
      LOOP:  cpu time   35.6811: real time   36.3790

 eigenvalue-minimisations  : 14422
 total energy-change (2. order) : 0.5954177E+00  (-0.1467838E+00)
 number of electron     372.0000045 magnetization       0.0012194
 augmentation part      212.4584168 magnetization       0.0011066

 DIPCOR: dipole corrections for dipol
 direction  3 min pos   135,
 dipolmoment           0.000000      0.000000     -1.052728 electrons x Angstroem
 Tr[quadrupol]     -6237.380965

 energy correction for charged system         0.000000 eV
 dipol+quadrupol energy correction            0.033225 eV
 added-field ion interaction          0.000000 eV  (added to PSCEN)


 Broyden mixing:
  rms(total) = 0.34569E+00    rms(broyden)= 0.34569E+00
  rms(prec ) = 0.50162E+00
  weight for this iteration     100.00

 eigenvalues of (default mixing * dielectric matrix)
  average eigenvalue GAMMA=   1.0527
  2.9719  1.3599  0.0997  0.5345  0.2973

 Free energy of the ion-electron system (eV)
  ---------------------------------------------------
  alpha Z        PSCENC =       375.61749071
  Ewald energy   TEWEN  =    130085.65693298
  -Hartree energ DENC   =   -159891.69152128
  -exchange      EXHF   =         0.00000000
  -V(xc)+E(xc)   XCENC  =       524.36287815
  PAW double counting   =     24967.07861189   -27413.97954217
  entropy T*S    EENTRO =         0.00956951
  eigenvalues    EBANDS =     -6045.24060645
  atomic energy  EATOM  =     37294.13790831
  Solvation  Ediel_sol  =         0.00000000
  ---------------------------------------------------
  free energy    TOTEN  =      -104.04827835 eV

  energy without entropy =     -104.05784786  energy(sigma->0) =     -104.05146819


--------------------------------------------------------------------------------------------------------




--------------------------------------- Iteration      1(  11)  ---------------------------------------


    POTLOK:  cpu time    3.8648: real time    4.3840
    SETDIJ:  cpu time    1.9715: real time    1.9718
    EDDIAG:  cpu time    5.0327: real time    5.0333
  RMM-DIIS:  cpu time   19.3811: real time   19.3834
    ORTHCH:  cpu time    0.4082: real time    0.4084
       DOS:  cpu time    0.0145: real time    0.0148
    CHARGE:  cpu time    2.8169: real time    2.8179
    MIXING:  cpu time    0.1480: real time    0.1483
    --------------------------------------------
      LOOP:  cpu time   33.6376: real time   34.1585

 eigenvalue-minimisations  : 13106
 total energy-change (2. order) : 0.1083423E+01  (-0.8766425E-01)
 number of electron     372.0000046 magnetization      -0.0001574
 augmentation part      212.4345612 magnetization      -0.0000021

 DIPCOR: dipole corrections for dipol
 direction  3 min pos   134,
 dipolmoment           0.000000      0.000000     -1.455195 electrons x Angstroem
 Tr[quadrupol]     -6235.343196

 energy correction for charged system         0.000000 eV
 dipol+quadrupol energy correction            0.063485 eV
 added-field ion interaction          0.000000 eV  (added to PSCEN)


 Broyden mixing:
  rms(total) = 0.11463E+00    rms(broyden)= 0.11462E+00
  rms(prec ) = 0.12171E+00
  weight for this iteration     100.00

 eigenvalues of (default mixing * dielectric matrix)
  average eigenvalue GAMMA=   1.1378
  3.5024  1.3026  1.1306  0.0997  0.4971  0.2946

 Free energy of the ion-electron system (eV)
  ---------------------------------------------------
  alpha Z        PSCENC =       375.64775120
  Ewald energy   TEWEN  =    130085.65693298
  -Hartree energ DENC   =   -159825.22801493
  -exchange      EXHF   =         0.00000000
  -V(xc)+E(xc)   XCENC  =       524.40190484
  PAW double counting   =     25026.41725341   -27476.30828396
  entropy T*S    EENTRO =        -0.01279481
  eigenvalues    EBANDS =     -6107.67751194
  atomic energy  EATOM  =     37294.13790831
  Solvation  Ediel_sol  =         0.00000000
  ---------------------------------------------------
  free energy    TOTEN  =      -102.96485490 eV

  energy without entropy =     -102.95206009  energy(sigma->0) =     -102.96058997


--------------------------------------------------------------------------------------------------------




--------------------------------------- Iteration      1(  12)  ---------------------------------------


    POTLOK:  cpu time    3.9222: real time    4.1997
    SETDIJ:  cpu time    1.9592: real time    1.9595
    EDDIAG:  cpu time    5.0421: real time    5.0427
  RMM-DIIS:  cpu time   19.0941: real time   19.0963
    ORTHCH:  cpu time    0.4729: real time    0.4730
       DOS:  cpu time    0.0793: real time    0.0795
    CHARGE:  cpu time    2.8548: real time    2.8561
    MIXING:  cpu time    0.1682: real time    0.1683
    --------------------------------------------
      LOOP:  cpu time   33.5927: real time   33.8754

 eigenvalue-minimisations  : 13019
 total energy-change (2. order) : 0.2482282E-01  (-0.1889099E-01)
 number of electron     372.0000046 magnetization      -0.0004765
 augmentation part      212.3583351 magnetization      -0.0002747

 DIPCOR: dipole corrections for dipol
 direction  3 min pos   134,
 dipolmoment           0.000000      0.000000     -1.510996 electrons x Angstroem
 Tr[quadrupol]     -6237.136055

 energy correction for charged system         0.000000 eV
 dipol+quadrupol energy correction            0.068448 eV
 added-field ion interaction          0.000000 eV  (added to PSCEN)


 Broyden mixing:
  rms(total) = 0.70042E-01    rms(broyden)= 0.70040E-01
  rms(prec ) = 0.98567E-01
  weight for this iteration     100.00

 eigenvalues of (default mixing * dielectric matrix)
  average eigenvalue GAMMA=   1.1888
  3.5094  1.8546  1.0278  1.0278  0.0997  0.5062  0.2959

 Free energy of the ion-electron system (eV)
  ---------------------------------------------------
  alpha Z        PSCENC =       375.65271346
  Ewald energy   TEWEN  =    130085.65693298
  -Hartree energ DENC   =   -159845.70284609
  -exchange      EXHF   =         0.00000000
  -V(xc)+E(xc)   XCENC  =       524.55222369
  PAW double counting   =     25063.59852719   -27515.32115000
  entropy T*S    EENTRO =        -0.01077325
  eigenvalues    EBANDS =     -6085.50356838
  atomic energy  EATOM  =     37294.13790831
  Solvation  Ediel_sol  =         0.00000000
  ---------------------------------------------------
  free energy    TOTEN  =      -102.94003209 eV

  energy without entropy =     -102.92925884  energy(sigma->0) =     -102.93644100


--------------------------------------------------------------------------------------------------------




--------------------------------------- Iteration      1(  13)  ---------------------------------------


    POTLOK:  cpu time    3.7993: real time    4.1497
    SETDIJ:  cpu time    1.9409: real time    1.9411
    EDDIAG:  cpu time    5.0838: real time    5.0848
  RMM-DIIS:  cpu time   21.9149: real time   21.9173
    ORTHCH:  cpu time    0.4069: real time    0.4071
       DOS:  cpu time    0.0141: real time    0.0150
    CHARGE:  cpu time    2.8011: real time    2.8022
    MIXING:  cpu time    0.1524: real time    0.1525
    --------------------------------------------
      LOOP:  cpu time   36.1135: real time   36.4699

 eigenvalue-minimisations  : 14938
 total energy-change (2. order) :-0.2097744E-03  (-0.4237586E-02)
 number of electron     372.0000046 magnetization      -0.0002349
 augmentation part      212.3895404 magnetization      -0.0000854

 DIPCOR: dipole corrections for dipol
 direction  3 min pos   134,
 dipolmoment           0.000000      0.000000     -1.313094 electrons x Angstroem
 Tr[quadrupol]     -6237.210630

 energy correction for charged system         0.000000 eV
 dipol+quadrupol energy correction            0.051692 eV
 added-field ion interaction          0.000000 eV  (added to PSCEN)


 Broyden mixing:
  rms(total) = 0.38001E-01    rms(broyden)= 0.38001E-01
  rms(prec ) = 0.45499E-01
  weight for this iteration     100.00

 eigenvalues of (default mixing * dielectric matrix)
  average eigenvalue GAMMA=   1.3007
  3.9906  2.3857  1.0804  1.0804  0.9680  0.0997  0.5049  0.2960

 Free energy of the ion-electron system (eV)
  ---------------------------------------------------
  alpha Z        PSCENC =       375.63595776
  Ewald energy   TEWEN  =    130085.65693298
  -Hartree energ DENC   =   -159846.57238569
  -exchange      EXHF   =         0.00000000
  -V(xc)+E(xc)   XCENC  =       524.57399055
  PAW double counting   =     25076.74196134   -27529.16491609
  entropy T*S    EENTRO =        -0.01180409
  eigenvalues    EBANDS =     -6083.93788694
  atomic energy  EATOM  =     37294.13790831
  Solvation  Ediel_sol  =         0.00000000
  ---------------------------------------------------
  free energy    TOTEN  =      -102.94024186 eV

  energy without entropy =     -102.92843778  energy(sigma->0) =     -102.93630717


--------------------------------------------------------------------------------------------------------




--------------------------------------- Iteration      1(  14)  ---------------------------------------


    POTLOK:  cpu time    3.7784: real time    4.2147
    SETDIJ:  cpu time    1.9565: real time    1.9568
    EDDIAG:  cpu time    5.0324: real time    5.0330
  RMM-DIIS:  cpu time   20.9230: real time   20.9255
    ORTHCH:  cpu time    0.4633: real time    0.4635
       DOS:  cpu time    0.0880: real time    0.0882
    CHARGE:  cpu time    2.8575: real time    2.8585
    MIXING:  cpu time    0.1721: real time    0.1723
    --------------------------------------------
      LOOP:  cpu time   35.2712: real time   35.7120

 eigenvalue-minimisations  : 14208
 total energy-change (2. order) : 0.8521964E-02  (-0.1329179E-02)
 number of electron     372.0000046 magnetization       0.0001531
 augmentation part      212.3858069 magnetization       0.0002480

 DIPCOR: dipole corrections for dipol
 direction  3 min pos   132,
 dipolmoment           0.000000      0.000000     -1.380389 electrons x Angstroem
 Tr[quadrupol]     -6238.362059

 energy correction for charged system         0.000000 eV
 dipol+quadrupol energy correction            0.057126 eV
 added-field ion interaction          0.000000 eV  (added to PSCEN)


 Broyden mixing:
  rms(total) = 0.22183E-01    rms(broyden)= 0.22183E-01
  rms(prec ) = 0.23666E-01
  weight for this iteration     100.00

 eigenvalues of (default mixing * dielectric matrix)
  average eigenvalue GAMMA=   1.4051
  4.0256  3.3168  1.3815  1.3815  0.0997  0.9085  0.2960  0.5051  0.7312

 Free energy of the ion-electron system (eV)
  ---------------------------------------------------
  alpha Z        PSCENC =       375.64139195
  Ewald energy   TEWEN  =    130085.65693298
  -Hartree energ DENC   =   -159855.01073978
  -exchange      EXHF   =         0.00000000
  -V(xc)+E(xc)   XCENC  =       524.59723881
  PAW double counting   =     25089.96425465   -27543.06979381
  entropy T*S    EENTRO =        -0.01178923
  eigenvalues    EBANDS =     -6074.83712379
  atomic energy  EATOM  =     37294.13790831
  Solvation  Ediel_sol  =         0.00000000
  ---------------------------------------------------
  free energy    TOTEN  =      -102.93171990 eV

  energy without entropy =     -102.91993067  energy(sigma->0) =     -102.92779016


--------------------------------------------------------------------------------------------------------




--------------------------------------- Iteration      1(  15)  ---------------------------------------


    POTLOK:  cpu time    3.7549: real time    4.2254
    SETDIJ:  cpu time    1.9563: real time    1.9567
    EDDIAG:  cpu time    5.0331: real time    5.0338
  RMM-DIIS:  cpu time   20.3864: real time   20.3887
    ORTHCH:  cpu time    0.4035: real time    0.4038
       DOS:  cpu time    0.0140: real time    0.0142
    CHARGE:  cpu time    2.8306: real time    2.8317
    MIXING:  cpu time    0.2179: real time    0.2181
    --------------------------------------------
      LOOP:  cpu time   34.5968: real time   35.0723

 eigenvalue-minimisations  : 13773
 total energy-change (2. order) :-0.1671473E-02  (-0.8435087E-03)
 number of electron     372.0000046 magnetization       0.0001189
 augmentation part      212.4086129 magnetization       0.0001152

 DIPCOR: dipole corrections for dipol
 direction  3 min pos   133,
 dipolmoment           0.000000      0.000000     -1.370175 electrons x Angstroem
 Tr[quadrupol]     -6238.320984

 energy correction for charged system         0.000000 eV
 dipol+quadrupol energy correction            0.056284 eV
 added-field ion interaction          0.000000 eV  (added to PSCEN)


 Broyden mixing:
  rms(total) = 0.19004E-01    rms(broyden)= 0.19004E-01
  rms(prec ) = 0.21683E-01
  weight for this iteration     100.00

 eigenvalues of (default mixing * dielectric matrix)
  average eigenvalue GAMMA=   1.4250
  3.7363  3.7363  1.8436  1.2141  1.2141  0.0997  0.9059  0.2960  0.5050  0.6991

 Free energy of the ion-electron system (eV)
  ---------------------------------------------------
  alpha Z        PSCENC =       375.64054968
  Ewald energy   TEWEN  =    130085.65693298
  -Hartree energ DENC   =   -159855.97662588
  -exchange      EXHF   =         0.00000000
  -V(xc)+E(xc)   XCENC  =       524.57772270
  PAW double counting   =     25096.74244453   -27550.19756502
  entropy T*S    EENTRO =        -0.01194231
  eigenvalues    EBANDS =     -6073.50281636
  atomic energy  EATOM  =     37294.13790831
  Solvation  Ediel_sol  =         0.00000000
  ---------------------------------------------------
  free energy    TOTEN  =      -102.93339137 eV

  energy without entropy =     -102.92144906  energy(sigma->0) =     -102.92941060


--------------------------------------------------------------------------------------------------------




--------------------------------------- Iteration      1(  16)  ---------------------------------------


    POTLOK:  cpu time    3.9479: real time    4.1786
    SETDIJ:  cpu time    1.9207: real time    1.9210
    EDDIAG:  cpu time    5.0299: real time    5.0305
  RMM-DIIS:  cpu time   22.2066: real time   22.2091
    ORTHCH:  cpu time    0.3838: real time    0.3840
       DOS:  cpu time    0.0951: real time    0.0953
    CHARGE:  cpu time    2.7815: real time    2.7829
    MIXING:  cpu time    0.1638: real time    0.1639
    --------------------------------------------
      LOOP:  cpu time   36.5292: real time   36.7652

 eigenvalue-minimisations  : 14846
 total energy-change (2. order) :-0.1792163E-02  (-0.2824174E-03)
 number of electron     372.0000046 magnetization       0.0000935
 augmentation part      212.4102093 magnetization       0.0000834

 DIPCOR: dipole corrections for dipol
 direction  3 min pos   131,
 dipolmoment           0.000000      0.000000     -1.364934 electrons x Angstroem
 Tr[quadrupol]     -6238.826883

 energy correction for charged system         0.000000 eV
 dipol+quadrupol energy correction            0.055854 eV
 added-field ion interaction          0.000000 eV  (added to PSCEN)


 Broyden mixing:
  rms(total) = 0.20992E-01    rms(broyden)= 0.20992E-01
  rms(prec ) = 0.27281E-01
  weight for this iteration     100.00

 eigenvalues of (default mixing * dielectric matrix)
  average eigenvalue GAMMA=   1.4629
  3.8716  3.8716  2.0268  0.0997  1.5163  1.1384  1.1384  0.2960  0.9237  0.5051
  0.7046

 Free energy of the ion-electron system (eV)
  ---------------------------------------------------
  alpha Z        PSCENC =       375.64011991
  Ewald energy   TEWEN  =    130085.65693298
  -Hartree energ DENC   =   -159857.87567130
  -exchange      EXHF   =         0.00000000
  -V(xc)+E(xc)   XCENC  =       524.56865952
  PAW double counting   =     25097.35693509   -27550.75356846
  entropy T*S    EENTRO =        -0.01189651
  eigenvalues    EBANDS =     -6071.65460307
  atomic energy  EATOM  =     37294.13790831
  Solvation  Ediel_sol  =         0.00000000
  ---------------------------------------------------
  free energy    TOTEN  =      -102.93518353 eV

  energy without entropy =     -102.92328702  energy(sigma->0) =     -102.93121803


--------------------------------------------------------------------------------------------------------




--------------------------------------- Iteration      1(  17)  ---------------------------------------


    POTLOK:  cpu time    3.8075: real time    4.2161
    SETDIJ:  cpu time    1.9353: real time    1.9355
    EDDIAG:  cpu time    5.0346: real time    5.0352
  RMM-DIIS:  cpu time   22.5477: real time   22.5507
    ORTHCH:  cpu time    0.4114: real time    0.4118
       DOS:  cpu time    0.0136: real time    0.0144
    CHARGE:  cpu time    2.8872: real time    2.8883
    MIXING:  cpu time    0.1676: real time    0.1678
    --------------------------------------------
      LOOP:  cpu time   36.8050: real time   37.2201

 eigenvalue-minimisations  : 15212
 total energy-change (2. order) : 0.2583172E-02  (-0.1539973E-03)
 number of electron     372.0000046 magnetization       0.0000448
 augmentation part      212.4064513 magnetization       0.0000183

 DIPCOR: dipole corrections for dipol
 direction  3 min pos   130,
 dipolmoment           0.000000      0.000000     -1.378696 electrons x Angstroem
 Tr[quadrupol]     -6238.946802

 energy correction for charged system         0.000000 eV
 dipol+quadrupol energy correction            0.056986 eV
 added-field ion interaction          0.000000 eV  (added to PSCEN)


 Broyden mixing:
  rms(total) = 0.11804E-01    rms(broyden)= 0.11804E-01
  rms(prec ) = 0.13445E-01
  weight for this iteration     100.00

 eigenvalues of (default mixing * dielectric matrix)
  average eigenvalue GAMMA=   1.5653
  4.7155  3.2484  3.2484  0.0997  1.4564  1.4564  0.2960  1.2094  0.5050  0.9844
  0.8334  0.7306

 Free energy of the ion-electron system (eV)
  ---------------------------------------------------
  alpha Z        PSCENC =       375.64125189
  Ewald energy   TEWEN  =    130085.65693298
  -Hartree energ DENC   =   -159855.58461912
  -exchange      EXHF   =         0.00000000
  -V(xc)+E(xc)   XCENC  =       524.56606165
  PAW double counting   =     25099.69598042   -27553.14122685
  entropy T*S    EENTRO =        -0.01195247
  eigenvalues    EBANDS =     -6073.89293718
  atomic energy  EATOM  =     37294.13790831
  Solvation  Ediel_sol  =         0.00000000
  ---------------------------------------------------
  free energy    TOTEN  =      -102.93260036 eV

  energy without entropy =     -102.92064789  energy(sigma->0) =     -102.92861621


--------------------------------------------------------------------------------------------------------




--------------------------------------- Iteration      1(  18)  ---------------------------------------


    POTLOK:  cpu time    3.9339: real time    4.2233
    SETDIJ:  cpu time    1.9770: real time    1.9773
    EDDIAG:  cpu time    5.0475: real time    5.0482
  RMM-DIIS:  cpu time   19.9171: real time   19.9192
    ORTHCH:  cpu time    0.4019: real time    0.4021
       DOS:  cpu time    0.0065: real time    0.0067
    CHARGE:  cpu time    2.7916: real time    2.7929
    MIXING:  cpu time    0.1725: real time    0.1726
    --------------------------------------------
      LOOP:  cpu time   34.2480: real time   34.5423

 eigenvalue-minimisations  : 13062
 total energy-change (2. order) : 0.5561912E-03  (-0.1000093E-03)
 number of electron     372.0000046 magnetization       0.0000466
 augmentation part      212.3961554 magnetization       0.0000271

 DIPCOR: dipole corrections for dipol
 direction  3 min pos   131,
 dipolmoment           0.000000      0.000000     -1.383696 electrons x Angstroem
 Tr[quadrupol]     -6238.804933

 energy correction for charged system         0.000000 eV
 dipol+quadrupol energy correction            0.057400 eV
 added-field ion interaction          0.000000 eV  (added to PSCEN)


 Broyden mixing:
  rms(total) = 0.57047E-02    rms(broyden)= 0.57045E-02
  rms(prec ) = 0.70719E-02
  weight for this iteration     100.00

 eigenvalues of (default mixing * dielectric matrix)
  average eigenvalue GAMMA=   1.5898
  5.1259  3.5686  2.3945  2.3945  0.0997  1.5669  0.2960  1.0959  1.0959  0.5050
  0.9621  0.8441  0.7185

 Free energy of the ion-electron system (eV)
  ---------------------------------------------------
  alpha Z        PSCENC =       375.64166596
  Ewald energy   TEWEN  =    130085.65693298
  -Hartree energ DENC   =   -159856.42433072
  -exchange      EXHF   =         0.00000000
  -V(xc)+E(xc)   XCENC  =       524.57166782
  PAW double counting   =     25102.20904392   -27555.65246407
  entropy T*S    EENTRO =        -0.01193391
  eigenvalues    EBANDS =     -6073.06053446
  atomic energy  EATOM  =     37294.13790831
  Solvation  Ediel_sol  =         0.00000000
  ---------------------------------------------------
  free energy    TOTEN  =      -102.93204417 eV

  energy without entropy =     -102.92011026  energy(sigma->0) =     -102.92806620


--------------------------------------------------------------------------------------------------------




--------------------------------------- Iteration      1(  19)  ---------------------------------------


    POTLOK:  cpu time    3.7652: real time    4.1972
    SETDIJ:  cpu time    1.9352: real time    1.9355
    EDDIAG:  cpu time    5.0394: real time    5.0401
  RMM-DIIS:  cpu time   19.2433: real time   19.2456
    ORTHCH:  cpu time    0.4055: real time    0.4057
       DOS:  cpu time    0.0127: real time    0.0129
    CHARGE:  cpu time    2.8872: real time    2.8883
    MIXING:  cpu time    0.1754: real time    0.1755
    --------------------------------------------
      LOOP:  cpu time   33.4639: real time   33.9008

 eigenvalue-minimisations  : 12448
 total energy-change (2. order) : 0.6366413E-04  (-0.4619249E-04)
 number of electron     372.0000046 magnetization       0.0000307
 augmentation part      212.3944186 magnetization       0.0000158

 DIPCOR: dipole corrections for dipol
 direction  3 min pos   132,
 dipolmoment           0.000000      0.000000     -1.383905 electrons x Angstroem
 Tr[quadrupol]     -6238.587735

 energy correction for charged system         0.000000 eV
 dipol+quadrupol energy correction            0.057418 eV
 added-field ion interaction          0.000000 eV  (added to PSCEN)


 Broyden mixing:
  rms(total) = 0.36951E-02    rms(broyden)= 0.36951E-02
  rms(prec ) = 0.44297E-02
  weight for this iteration     100.00

 eigenvalues of (default mixing * dielectric matrix)
  average eigenvalue GAMMA=   1.5992
  5.1662  3.7512  2.7120  2.7120  0.0997  1.3749  1.3749  0.2960  1.0614  1.0614
  0.5050  0.8187  0.7319  0.7232

 Free energy of the ion-electron system (eV)
  ---------------------------------------------------
  alpha Z        PSCENC =       375.64168332
  Ewald energy   TEWEN  =    130085.65693298
  -Hartree energ DENC   =   -159856.16528191
  -exchange      EXHF   =         0.00000000
  -V(xc)+E(xc)   XCENC  =       524.57402586
  PAW double counting   =     25103.00805821   -27556.44268510
  entropy T*S    EENTRO =        -0.01189246
  eigenvalues    EBANDS =     -6073.33072973
  atomic energy  EATOM  =     37294.13790831
  Solvation  Ediel_sol  =         0.00000000
  ---------------------------------------------------
  free energy    TOTEN  =      -102.93198051 eV

  energy without entropy =     -102.92008805  energy(sigma->0) =     -102.92801635


--------------------------------------------------------------------------------------------------------




--------------------------------------- Iteration      1(  20)  ---------------------------------------


    POTLOK:  cpu time    3.6524: real time    4.2134
    SETDIJ:  cpu time    1.9977: real time    1.9979
    EDDIAG:  cpu time    5.0401: real time    5.0408
  RMM-DIIS:  cpu time   18.0481: real time   18.0501
    ORTHCH:  cpu time    0.3995: real time    0.3999
       DOS:  cpu time    0.0072: real time    0.0076
    CHARGE:  cpu time    2.8142: real time    2.8154
    MIXING:  cpu time    0.1798: real time    0.1799
    --------------------------------------------
      LOOP:  cpu time   32.1390: real time   32.7051

 eigenvalue-minimisations  : 11436
 total energy-change (2. order) : 0.8164803E-05  (-0.1848008E-04)
 number of electron     372.0000046 magnetization       0.0000166
 augmentation part      212.3946587 magnetization       0.0000034

 DIPCOR: dipole corrections for dipol
 direction  3 min pos   134,
 dipolmoment           0.000000      0.000000     -1.384029 electrons x Angstroem
 Tr[quadrupol]     -6238.172091

 energy correction for charged system         0.000000 eV
 dipol+quadrupol energy correction            0.057428 eV
 added-field ion interaction          0.000000 eV  (added to PSCEN)


 Broyden mixing:
  rms(total) = 0.30657E-02    rms(broyden)= 0.30657E-02
  rms(prec ) = 0.36207E-02
  weight for this iteration     100.00

 eigenvalues of (default mixing * dielectric matrix)
  average eigenvalue GAMMA=   1.6348
  5.2175  3.9554  3.0277  3.0277  0.0997  1.4846  1.4846  0.2960  1.1172  1.1172
  0.5050  0.7138  0.8506  0.8127  0.8127

 Free energy of the ion-electron system (eV)
  ---------------------------------------------------
  alpha Z        PSCENC =       375.64169359
  Ewald energy   TEWEN  =    130085.65693298
  -Hartree energ DENC   =   -159856.14039959
  -exchange      EXHF   =         0.00000000
  -V(xc)+E(xc)   XCENC  =       524.57468344
  PAW double counting   =     25103.16367490   -27556.58255025
  entropy T*S    EENTRO =        -0.01188910
  eigenvalues    EBANDS =     -6073.37202662
  atomic energy  EATOM  =     37294.13790831
  Solvation  Ediel_sol  =         0.00000000
[...]
   -.740E+01 -.429E+01 0.968E+02   0.738E+01 0.428E+01 -.965E+02   0.210E-01 0.122E-01 -.285E+00   0.205E-03 0.119E-03 -.269E-02
   0.338E+02 0.196E+02 -.442E+03   -.338E+02 -.196E+02 0.442E+03   -.105E-01 -.608E-02 0.132E+00   0.304E-03 0.177E-03 -.384E-02
   0.338E+02 0.196E+02 -.442E+03   -.338E+02 -.196E+02 0.442E+03   -.105E-01 -.608E-02 0.132E+00   0.304E-03 0.176E-03 -.384E-02
   0.338E+02 0.196E+02 -.442E+03   -.338E+02 -.196E+02 0.442E+03   -.105E-01 -.608E-02 0.132E+00   0.304E-03 0.178E-03 -.384E-02
   0.338E+02 0.196E+02 -.442E+03   -.338E+02 -.196E+02 0.442E+03   -.105E-01 -.608E-02 0.132E+00   0.303E-03 0.176E-03 -.384E-02
   0.134E+02 0.778E+01 -.176E+03   -.134E+02 -.779E+01 0.176E+03   0.219E-01 0.127E-01 -.313E+00   0.204E-03 0.116E-03 -.263E-02
   0.134E+02 0.778E+01 -.176E+03   -.134E+02 -.779E+01 0.176E+03   0.219E-01 0.127E-01 -.313E+00   0.206E-03 0.119E-03 -.263E-02
   0.134E+02 0.778E+01 -.176E+03   -.134E+02 -.779E+01 0.176E+03   0.219E-01 0.127E-01 -.313E+00   0.206E-03 0.118E-03 -.263E-02
   0.134E+02 0.778E+01 -.176E+03   -.134E+02 -.779E+01 0.176E+03   0.219E-01 0.127E-01 -.313E+00   0.203E-03 0.118E-03 -.263E-02
   -.895E+02 -.519E+02 0.117E+04   0.895E+02 0.519E+02 -.117E+04   0.947E-02 0.549E-02 -.992E-01   0.281E-03 0.163E-03 -.367E-02
   -.895E+02 -.519E+02 0.117E+04   0.895E+02 0.519E+02 -.117E+04   0.947E-02 0.549E-02 -.992E-01   0.281E-03 0.162E-03 -.367E-02
   -.895E+02 -.519E+02 0.117E+04   0.895E+02 0.519E+02 -.117E+04   0.947E-02 0.549E-02 -.992E-01   0.281E-03 0.163E-03 -.367E-02
   -.895E+02 -.519E+02 0.117E+04   0.895E+02 0.519E+02 -.117E+04   0.947E-02 0.549E-02 -.992E-01   0.282E-03 0.163E-03 -.367E-02
   -.487E+02 -.282E+02 0.637E+03   0.488E+02 0.283E+02 -.638E+03   -.827E-01 -.479E-01 0.109E+01   0.273E-03 0.158E-03 -.357E-02
   -.487E+02 -.282E+02 0.637E+03   0.488E+02 0.283E+02 -.638E+03   -.827E-01 -.479E-01 0.109E+01   0.274E-03 0.159E-03 -.357E-02
   -.487E+02 -.282E+02 0.637E+03   0.488E+02 0.283E+02 -.638E+03   -.827E-01 -.479E-01 0.109E+01   0.274E-03 0.159E-03 -.357E-02
   -.487E+02 -.282E+02 0.637E+03   0.488E+02 0.283E+02 -.638E+03   -.827E-01 -.479E-01 0.109E+01   0.274E-03 0.159E-03 -.357E-02
   -.706E+02 -.409E+02 0.923E+03   0.707E+02 0.410E+02 -.925E+03   -.589E-01 -.341E-01 0.780E+00   0.296E-03 0.173E-03 -.386E-02
   -.706E+02 -.409E+02 0.923E+03   0.707E+02 0.410E+02 -.925E+03   -.589E-01 -.341E-01 0.780E+00   0.295E-03 0.170E-03 -.386E-02
   -.706E+02 -.409E+02 0.923E+03   0.707E+02 0.410E+02 -.925E+03   -.589E-01 -.341E-01 0.780E+00   0.295E-03 0.172E-03 -.386E-02
   -.706E+02 -.409E+02 0.923E+03   0.707E+02 0.410E+02 -.925E+03   -.589E-01 -.341E-01 0.780E+00   0.296E-03 0.170E-03 -.386E-02
   0.794E+02 0.460E+02 -.104E+04   -.794E+02 -.460E+02 0.104E+04   -.319E-01 -.185E-01 0.400E+00   -.175E-03 -.104E-03 0.197E-02
   0.794E+02 0.460E+02 -.104E+04   -.794E+02 -.460E+02 0.104E+04   -.319E-01 -.185E-01 0.400E+00   -.180E-03 -.107E-03 0.196E-02
   0.794E+02 0.460E+02 -.104E+04   -.794E+02 -.460E+02 0.104E+04   -.319E-01 -.185E-01 0.400E+00   -.183E-03 -.105E-03 0.196E-02
   0.794E+02 0.460E+02 -.104E+04   -.794E+02 -.460E+02 0.104E+04   -.319E-01 -.185E-01 0.400E+00   -.177E-03 -.103E-03 0.196E-02
   -.402E+02 -.233E+02 0.526E+03   0.402E+02 0.233E+02 -.526E+03   0.122E-01 0.708E-02 -.164E+00   0.351E-03 0.205E-03 -.461E-02
   -.402E+02 -.233E+02 0.526E+03   0.402E+02 0.233E+02 -.526E+03   0.122E-01 0.708E-02 -.164E+00   0.354E-03 0.204E-03 -.461E-02
   -.402E+02 -.233E+02 0.526E+03   0.402E+02 0.233E+02 -.526E+03   0.122E-01 0.708E-02 -.164E+00   0.354E-03 0.207E-03 -.461E-02
   -.402E+02 -.233E+02 0.526E+03   0.402E+02 0.233E+02 -.526E+03   0.122E-01 0.708E-02 -.164E+00   0.351E-03 0.203E-03 -.461E-02
   -.149E+03 -.862E+02 0.195E+04   0.148E+03 0.860E+02 -.194E+04   0.274E+00 0.159E+00 -.356E+01   0.290E-03 0.171E-03 -.385E-02
   -.149E+03 -.862E+02 0.195E+04   0.148E+03 0.860E+02 -.194E+04   0.274E+00 0.159E+00 -.356E+01   0.292E-03 0.169E-03 -.385E-02
   -.149E+03 -.862E+02 0.195E+04   0.148E+03 0.860E+02 -.194E+04   0.274E+00 0.159E+00 -.356E+01   0.292E-03 0.171E-03 -.385E-02
   -.149E+03 -.862E+02 0.195E+04   0.148E+03 0.860E+02 -.194E+04   0.274E+00 0.159E+00 -.356E+01   0.291E-03 0.169E-03 -.385E-02
 -----------------------------------------------------------------------------------------------
   0.125E+01 0.724E+00 -.162E+02   0.284E-13 -.426E-13 0.136E-11   -.118E+01 -.684E+00 0.156E+02   -.632E-01 -.366E-01 0.666E+00
 
 
 POSITION                                       TOTAL-FORCE (eV/Angst)
 -----------------------------------------------------------------------------------
      0.83201      0.48224     30.89105         0.009826      0.005687     -0.114080
      3.35774      4.89120     31.27961         0.009827      0.005686     -0.114080
      5.91318      0.48224     31.27961         0.009828      0.005688     -0.114079
      8.43891      4.89120     31.66818         0.009825      0.005685     -0.114080
      3.19669      1.85280     33.40471        -0.002600     -0.001513      0.028844
      5.72242      6.26177     33.79328        -0.002594     -0.001510      0.028843
      8.27786      1.85280     33.79329        -0.002600     -0.001513      0.028845
     10.80358      6.26177     34.18183        -0.002593     -0.001509      0.028840
      5.83904      3.38431     32.25838        -0.000493     -0.000291      0.011771
      8.36476      7.79328     32.64695        -0.000500     -0.000147      0.011888
     10.92020      3.38431     32.64695        -0.000500     -0.000149      0.011889
     13.44593      7.79328     33.03551        -0.000493     -0.000288      0.011770
      3.68460      2.13560     27.00538        -0.002933     -0.001708      0.027384
      6.21032      6.54456     27.39394        -0.002933     -0.001708      0.027384
      8.76576      2.13560     27.39394        -0.002933     -0.001708      0.027384
     11.29149      6.54456     27.78251        -0.002933     -0.001708      0.027384
      6.06175      3.51339     29.33678         0.012892      0.007475     -0.175012
      8.58747      7.92236     29.72534         0.012892      0.007475     -0.175014
     11.14291      3.51339     29.72534         0.012892      0.007475     -0.175014
     13.66864      7.92236     30.11391         0.012892      0.007475     -0.175013
      1.06973      0.62002     27.78251        -0.003030     -0.001766      0.013601
      3.59545      5.02898     28.17108        -0.003030     -0.001766      0.013600
      6.15089      0.62002     28.17108        -0.003030     -0.001766      0.013600
      8.67662      5.02898     28.55964        -0.003030     -0.001766      0.013600
      6.53718      3.78896     23.11971         0.041286      0.023923     -0.517553
      9.06291      8.19792     23.50828         0.041286      0.023923     -0.517553
     11.61835      3.78896     23.50828         0.041286      0.023923     -0.517553
     14.14408      8.19792     23.89684         0.041286      0.023923     -0.517553
      1.30744      0.75779     24.67398         0.011371      0.006593     -0.143417
      3.83316      5.16675     25.06255         0.011371      0.006593     -0.143417
      6.38860      0.75779     25.06255         0.011371      0.006593     -0.143417
      8.91433      5.16675     25.45111         0.011371      0.006593     -0.143417
      3.92231      2.27338     23.89685         0.034557      0.020019     -0.443554
      6.44804      6.68234     24.28541         0.034557      0.020019     -0.443554
      9.00348      2.27338     24.28541         0.034557      0.020019     -0.443554
     11.52921      6.68234     24.67398         0.034557      0.020019     -0.443555
      3.44688      1.99782     30.11391        -0.020373     -0.011817      0.247194
      5.97261      6.40678     30.50248        -0.020372     -0.011816      0.247195
      8.52805      1.99782     30.50248        -0.020372     -0.011817      0.247195
     11.05377      6.40678     30.89104        -0.020373     -0.011817      0.247193
      6.29947      3.65118     26.22825        -0.005626     -0.003270      0.067337
      8.82519      8.06014     26.61681        -0.005626     -0.003270      0.067337
     11.38063      3.65118     26.61681        -0.005626     -0.003270      0.067337
     13.90636      8.06014     27.00538        -0.005626     -0.003270      0.067337
      1.54516      0.89558     21.56545        -0.074878     -0.043406      0.997429
      4.07088      5.30454     21.95401        -0.074878     -0.043406      0.997430
      6.62633      0.89558     21.95401        -0.074878     -0.043406      0.997430
      9.15205      5.30454     22.34258        -0.074878     -0.043406      0.997430
 -----------------------------------------------------------------------------------
    total drift:                                0.005232      0.003289     -0.001593


--------------------------------------------------------------------------------------------------------



  FREE ENERGIE OF THE ION-ELECTRON SYSTEM (eV)
  ---------------------------------------------------
  free  energy   TOTEN  =      -103.06753465 eV

  energy  without entropy=     -103.05833040  energy(sigma->0) =     -103.06446657
 
 d Force = 0.5675252E-03[ 0.546E-03, 0.589E-03]  d Energy = 0.6120437E-03-0.445E-04
 d Force = 0.3582774E+02[ 0.358E+02, 0.358E+02]  d Ewald  = 0.3582774E+02-0.114E-05


--------------------------------------------------------------------------------------------------------


    POTLOK:  cpu time    5.3568: real time    5.3833


--------------------------------------------------------------------------------------------------------


 Quasi-Newton relaxation of ions (Broydens 2nd method)
  g(Force)  = 0.530E-03   g(Stress)= 0.000E+00

 retain information from N=  1 steps
 eigenvalues of (default step * inverse Hessian matrix)
  average eigenvalue of G=  11.2423
 eigenvalue spectrum of G is 11.2423


--------------------------------------------------------------------------------------------------------


    WAVPRE:  cpu time    0.9792: real time    1.0070
    FEWALD:  cpu time    0.0024: real time    0.0024

 real space projection operators:
  total allocation   :      16802.00 KBytes
  max/ min on nodes  :       4334.62       4066.41

    ORTHCH:  cpu time    4.0254: real time    4.0259
     LOOP+:  cpu time  281.2615: real time  284.3094


--------------------------------------- Iteration      6(   1)  ---------------------------------------


    POTLOK:  cpu time    3.4982: real time    3.4996
    SETDIJ:  cpu time    1.9941: real time    1.9943
     EDDAV:  cpu time   31.2380: real time   31.2413
       DOS:  cpu time    0.0070: real time    0.0072
    CHARGE:  cpu time    2.7496: real time    2.7503
    MIXING:  cpu time    0.1159: real time    0.1160
    --------------------------------------------
      LOOP:  cpu time   39.6031: real time   39.6092

 eigenvalue-minimisations  : 12736
 total energy-change (2. order) : 0.1251478E+00  (-0.3150674E+01)
 number of electron     372.0000027 magnetization      -0.0000004
 augmentation part      212.3839529 magnetization       0.0000006

 DIPCOR: dipole corrections for dipol
 direction  3 min pos   159,
 dipolmoment           0.000000      0.000000     -1.507047 electrons x Angstroem
 Tr[quadrupol]     -6235.534969

 energy correction for charged system         0.000000 eV
 dipol+quadrupol energy correction            0.068090 eV
 added-field ion interaction          0.000000 eV  (added to PSCEN)


 Broyden mixing:
  rms(total) = 0.95634E-01    rms(broyden)= 0.95588E-01
  rms(prec ) = 0.96763E-01
  weight for this iteration     100.00

 Free energy of the ion-electron system (eV)
  ---------------------------------------------------
  alpha Z        PSCENC =       375.65235614
  Ewald energy   TEWEN  =    129622.63163622
  -Hartree energ DENC   =   -159407.72322681
  -exchange      EXHF   =         0.00000000
  -V(xc)+E(xc)   XCENC  =       524.41091925
  PAW double counting   =     25099.33332141   -27552.46615951
  entropy T*S    EENTRO =        -0.00903275
  eigenvalues    EBANDS =     -6058.91011570
  atomic energy  EATOM  =     37294.13790831
  Solvation  Ediel_sol  =         0.00000000
  ---------------------------------------------------
  free energy    TOTEN  =      -102.94239342 eV

  energy without entropy =     -102.93336068  energy(sigma->0) =     -102.93938251


--------------------------------------------------------------------------------------------------------




--------------------------------------- Iteration      6(   2)  ---------------------------------------


    POTLOK:  cpu time    3.8318: real time    4.0951
    SETDIJ:  cpu time    1.9870: real time    1.9873
    EDDIAG:  cpu time    5.0566: real time    5.0573
  RMM-DIIS:  cpu time   18.6018: real time   18.6042
    ORTHCH:  cpu time    0.4158: real time    0.4159
       DOS:  cpu time    0.0119: real time    0.0120
    CHARGE:  cpu time    2.7757: real time    2.7763
    MIXING:  cpu time    0.1099: real time    0.1100
    --------------------------------------------
      LOOP:  cpu time   32.7903: real time   33.0580

 eigenvalue-minimisations  : 12492
 total energy-change (2. order) :-0.7594475E-01  (-0.8231926E-01)
 number of electron     372.0000027 magnetization      -0.0000001
 augmentation part      212.4159887 magnetization      -0.0000000

 DIPCOR: dipole corrections for dipol
 direction  3 min pos   164,
 dipolmoment           0.000000      0.000000     -1.475993 electrons x Angstroem
 Tr[quadrupol]     -6234.200387

 energy correction for charged system         0.000000 eV
 dipol+quadrupol energy correction            0.065313 eV
 added-field ion interaction          0.000000 eV  (added to PSCEN)


 Broyden mixing:
  rms(total) = 0.54608E-01    rms(broyden)= 0.54606E-01
  rms(prec ) = 0.55869E-01
  weight for this iteration     100.00

 eigenvalues of (default mixing * dielectric matrix)
  average eigenvalue GAMMA=   2.1251
  2.1251

 Free energy of the ion-electron system (eV)
  ---------------------------------------------------
  alpha Z        PSCENC =       375.64957894
  Ewald energy   TEWEN  =    129622.63163622
  -Hartree energ DENC   =   -159401.76487702
  -exchange      EXHF   =         0.00000000
  -V(xc)+E(xc)   XCENC  =       524.38795846
  PAW double counting   =     25098.49621033   -27551.48856560
  entropy T*S    EENTRO =        -0.00889305
  eigenvalues    EBANDS =     -6065.05929477
  atomic energy  EATOM  =     37294.13790831
  Solvation  Ediel_sol  =         0.00000000
  ---------------------------------------------------
  free energy    TOTEN  =      -103.01833818 eV

  energy without entropy =     -103.00944512  energy(sigma->0) =     -103.01537382


--------------------------------------------------------------------------------------------------------




--------------------------------------- Iteration      6(   3)  ---------------------------------------


    POTLOK:  cpu time    3.7864: real time    4.0731
    SETDIJ:  cpu time    1.9843: real time    1.9845
    EDDIAG:  cpu time    5.0579: real time    5.0585
  RMM-DIIS:  cpu time   19.0739: real time   19.0760
    ORTHCH:  cpu time    0.4104: real time    0.4106
       DOS:  cpu time    0.0097: real time    0.0098
    CHARGE:  cpu time    2.7700: real time    2.7707
    MIXING:  cpu time    0.1138: real time    0.1139
    --------------------------------------------
      LOOP:  cpu time   33.2064: real time   33.4972

 eigenvalue-minimisations  : 12856
 total energy-change (2. order) :-0.7304704E-01  (-0.6086862E-01)
 number of electron     372.0000027 magnetization      -0.0000001
 augmentation part      212.3668615 magnetization      -0.0000003

 DIPCOR: dipole corrections for dipol
 direction  3 min pos   166,
 dipolmoment           0.000000      0.000000     -1.608133 electrons x Angstroem
 Tr[quadrupol]     -6234.201702

 energy correction for charged system         0.000000 eV
 dipol+quadrupol energy correction            0.077531 eV
 added-field ion interaction          0.000000 eV  (added to PSCEN)


 Broyden mixing:
  rms(total) = 0.60249E-01    rms(broyden)= 0.60193E-01
  rms(prec ) = 0.97712E-01
  weight for this iteration     100.00

 eigenvalues of (default mixing * dielectric matrix)
  average eigenvalue GAMMA=   1.0241
  1.6087  0.4394

 Free energy of the ion-electron system (eV)
  ---------------------------------------------------
  alpha Z        PSCENC =       375.66179684
  Ewald energy   TEWEN  =    129622.63163622
  -Hartree energ DENC   =   -159419.42891306
  -exchange      EXHF   =         0.00000000
  -V(xc)+E(xc)   XCENC  =       524.44753196
  PAW double counting   =     25099.29217412   -27552.55656938
  entropy T*S    EENTRO =        -0.00883534
  eigenvalues    EBANDS =     -6047.26811489
  atomic energy  EATOM  =     37294.13790831
  Solvation  Ediel_sol  =         0.00000000
  ---------------------------------------------------
  free energy    TOTEN  =      -103.09138521 eV

  energy without entropy =     -103.08254988  energy(sigma->0) =     -103.08844010


--------------------------------------------------------------------------------------------------------




--------------------------------------- Iteration      6(   4)  ---------------------------------------


    POTLOK:  cpu time    3.8841: real time    4.1498
    SETDIJ:  cpu time    1.9585: real time    1.9588
    EDDIAG:  cpu time    5.0509: real time    5.0515
  RMM-DIIS:  cpu time   18.3436: real time   18.3456
    ORTHCH:  cpu time    0.4152: real time    0.4154
       DOS:  cpu time    0.0091: real time    0.0096
    CHARGE:  cpu time    2.7640: real time    2.7644
    MIXING:  cpu time    0.1138: real time    0.1140
    --------------------------------------------
      LOOP:  cpu time   32.5393: real time   32.8090

 eigenvalue-minimisations  : 12444
 total energy-change (2. order) : 0.1820038E-03  (-0.2354169E-02)
 number of electron     372.0000027 magnetization      -0.0000001
 augmentation part      212.4032394 magnetization       0.0000020

 DIPCOR: dipole corrections for dipol
 direction  3 min pos   166,
 dipolmoment           0.000000      0.000000     -1.431544 electrons x Angstroem
 Tr[quadrupol]     -6234.355402

 energy correction for charged system         0.000000 eV
 dipol+quadrupol energy correction            0.061439 eV
 added-field ion interaction          0.000000 eV  (added to PSCEN)


 Broyden mixing:
  rms(total) = 0.53636E-01    rms(broyden)= 0.53633E-01
  rms(prec ) = 0.74313E-01
  weight for this iteration     100.00

 eigenvalues of (default mixing * dielectric matrix)
  average eigenvalue GAMMA=   0.6860
  1.2771  0.6367  0.1441

 Free energy of the ion-electron system (eV)
  ---------------------------------------------------
  alpha Z        PSCENC =       375.64570436
  Ewald energy   TEWEN  =    129622.63163622
  -Hartree energ DENC   =   -159409.08114054
  -exchange      EXHF   =         0.00000000
  -V(xc)+E(xc)   XCENC  =       524.42406473
  PAW double counting   =     25098.64095627   -27551.85718601
  entropy T*S    EENTRO =        -0.00814406
  eigenvalues    EBANDS =     -6057.62500249
  atomic energy  EATOM  =     37294.13790831
  Solvation  Ediel_sol  =         0.00000000
  ---------------------------------------------------
  free energy    TOTEN  =      -103.09120321 eV

  energy without entropy =     -103.08305915  energy(sigma->0) =     -103.08848852


--------------------------------------------------------------------------------------------------------




--------------------------------------- Iteration      6(   5)  ---------------------------------------


    POTLOK:  cpu time    3.6461: real time    4.1426
    SETDIJ:  cpu time    1.9583: real time    1.9586
    EDDIAG:  cpu time    5.0370: real time    5.0376
  RMM-DIIS:  cpu time   18.9563: real time   18.9584
    ORTHCH:  cpu time    0.4019: real time    0.4021
       DOS:  cpu time    0.0093: real time    0.0097
