
Running Job 1 of 1 mol.qin
qchem mol.qin_53217.0 /tmp/scratch/ 0
/clusterfs/mp/software/qchem5.4/exe/qcprog.exe_s mol.qin_53217.0 /tmp/scratch/
                  Welcome to Q-Chem
     A Quantum Leap Into The Future Of Chemistry


 Q-Chem 5.4, Q-Chem, Inc., Pleasanton, CA (2021)

 E. Epifanovsky,  A. T. B. Gilbert,  Xintian Feng,  Joonho Lee,  Yuezhi Mao,  
 N. Mardirossian,  P. Pokhilko,  A. White,  M. Wormit,  M. P. Coons,  
 A. L. Dempwolff,  Zhengting Gan,  D. Hait,  P. R. Horn,  L. D. Jacobson,  
 I. Kaliman,  J. Kussmann,  A. W. Lange,  Ka Un Lao,  D. S. Levine,  Jie Liu,  
 S. C. McKenzie,  A. F. Morrison,  K. Nanda,  F. Plasser,  D. R. Rehn,  
 M. L. Vidal,  Zhi-Qiang You,  Ying Zhu,  B. Alam,  B. Albrecht,  
 A. Aldossary,  E. Alguire,  J. H. Andersen,  D. Barton,  K. Begam,  A. Behn,  
 Y. A. Bernard,  E. J. Berquist,  H. Burton,  A. Carreras,  K. Carter-Fenk,  
 Romit Chakraborty,  A. D. Chien,  K. D. Closser,  V. Cofer-Shabica,  
 S. Dasgupta,  Jia Deng,  M. de Wergifosse,  M. Diedenhofen,  Hainam Do,  
 S. Ehlert,  Po-Tung Fang,  S. Fatehi,  Qingguo Feng,  T. Friedhoff,  
 J. Gayvert,  Qinghui Ge,  G. Gidofalvi,  M. Goldey,  J. Gomes,  
 C. Gonzalez-Espinoza,  S. Gulania,  A. Gunina,  M. W. D. Hanson-Heine,  
 P. H. P. Harbach,  A. W. Hauser,  M. F. Herbst,  M. Hernandez Vera,  
 M. Hodecker,  Z. C. Holden,  S. Houck,  Xunkun Huang,  Kerwin Hui,  
 B. C. Huynh,  M. Ivanov,  Hyunjun Ji,  Hanjie Jiang,  B. Kaduk,  S. Kaehler,  
 K. Khistyaev,  Jaehoon Kim,  P. Klunzinger,  Z. Koczor-Benda,  
 Joong Hoon Koh,  D. Kosenkov,  L. Koulias,  T. Kowalczyk,  C. M. Krauter,  
 K. Kue,  A. Kunitsa,  T. Kus,  A. Landau,  K. V. Lawler,  D. Lefrancois,  
 S. Lehtola,  Rain Li,  Yi-Pei Li,  Jiashu Liang,  M. Liebenthal,  
 Hung-Hsuan Lin,  You-Sheng Lin,  Fenglai Liu,  Kuan-Yu Liu,  
 M. Loipersberger,  A. Luenser,  A. Manjanath,  P. Manohar,  E. Mansoor,  
 S. F. Manzer,  Shan-Ping Mao,  A. V. Marenich,  T. Markovich,  S. Mason,  
 S. A. Maurer,  P. F. McLaughlin,  M. F. S. J. Menger,  J.-M. Mewes,  
 S. A. Mewes,  P. Morgante,  J. W. Mullinax,  K. J. Oosterbaan,  G. Paran,  
 Alexander C. Paul,  Suranjan K. Paul,  F. Pavosevic,  Zheng Pei,  S. Prager,  
 E. I. Proynov,  E. Ramos,  B. Rana,  A. E. Rask,  A. Rettig,  R. M. Richard,  
 F. Rob,  E. Rossomme,  T. Scheele,  M. Scheurer,  M. Schneider,  
 N. Sergueev,  S. M. Sharada,  W. Skomorowski,  D. W. Small,  C. J. Stein,  
 Yu-Chuan Su,  E. J. Sundstrom,  Zhen Tao,  J. Thirman,  T. Tsuchimochi,  
 N. M. Tubman,  S. P. Veccham,  O. Vydrov,  J. Wenzel,  J. Witte,  A. Yamada,  
 Kun Yao,  S. Yeganeh,  S. R. Yost,  A. Zech,  Igor Ying Zhang,  Xing Zhang,  
 Yu Zhang,  D. Zuev,  A. Aspuru-Guzik,  A. T. Bell,  N. A. Besley,  
 K. B. Bravaya,  B. R. Brooks,  D. Casanova,  Jeng-Da Chai,  S. Coriani,  
 C. J. Cramer,  A. E. DePrince, III,  R. A. DiStasio Jr.,  A. Dreuw,  
 B. D. Dunietz,  T. R. Furlani,  W. A. Goddard III,  S. Grimme,  
 S. Hammes-Schiffer,  T. Head-Gordon,  W. J. Hehre,  Chao-Ping Hsu,  
 T.-C. Jagau,  Yousung Jung,  A. Klamt,  Jing Kong,  D. S. Lambrecht,  
 WanZhen Liang,  N. J. Mayhall,  C. W. McCurdy,  J. B. Neaton,  T. Neudecker,  
 C. Ochsenfeld,  J. A. Parkhill,  R. Peverati,  V. A. Rassolov,  Yihan Shao,  
 L. V. Slipchenko,  R. P. Steele,  J. E. Subotnik,  A. J. W. Thom,  
 A. Tkatchenko,  D. G. Truhlar,  T. Van Voorhis,  T. A. Wesolowski,  
 K. B. Whaley,  H. L. Woodcock III,  P. M. Zimmerman,  S. Faraji,  
 P. M. W. Gill,  M. Head-Gordon,  J. M. Herbert,  A. I. Krylov

 Additional authors since Version 5.4.0: 
 Chandrima Chakravarty,  L. Cunha,  R. Kang,  Yongbin Kim,  S. Kotaru,  
 Shaozhi Li,  Xiangyuan Li,  F. Matz,  A. Molle,  V. Parravicini,  
 Haisheng Ren,  Hengyuan Shen,  Yingli Su,  Hung-Yi Tsai,  C. Utku,  
 Fang Wang,  Jeff Yang,  F. Zeller

 Contributors to earlier versions of Q-Chem not listed above: 
 R. D. Adamson,  B. Austin,  R. Baer,  J. Baker,  G. J. O. Beran,  
 K. Brandhorst,  S. T. Brown,  E. F. C. Byrd,  Arup K. Chakraborty,  
 G. K. L. Chan,  Chun-Min Chang,  Yunqing Chen,  C.-L. Cheng,  
 Siu Hung Chien,  D. M. Chipman,  D. L. Crittenden,  H. Dachsel,  
 R. J. Doerksen,  A. D. Dutoi,  R. G. Edgar,  J. Fosso-Tande,  
 L. Fusti-Molnar,  D. Ghosh,  A. Ghysels,  A. Golubeva-Zadorozhnaya,  
 J. Gonthier,  M. S. Gordon,  S. R. Gwaltney,  G. Hawkins,  J. E. Herr,  
 A. Heyden,  S. Hirata,  E. G. Hohenstein,  G. Kedziora,  F. J. Keil,  
 C. Kelley,  Jihan Kim,  R. A. King,  R. Z. Khaliullin,  P. P. Korambath,  
 W. Kurlancheek,  A. Laurent,  A. M. Lee,  M. S. Lee,  S. V. Levchenko,  
 Ching Yeh Lin,  D. Liotard,  E. Livshits,  R. C. Lochan,  I. Lotan,  
 L. A. Martinez-Martinez,  P. E. Maslen,  N. Nair,  D. P. O'Neill,  
 D. Neuhauser,  E. Neuscamman,  C. M. Oana,  R. Olivares-Amaya,  R. Olson,  
 T. M. Perrine,  B. Peters,  P. A. Pieniazek,  A. Prociuk,  Y. M. Rhee,  
 J. Ritchie,  M. A. Rohrdanz,  E. Rosta,  N. J. Russ,  H. F. Schaefer III,  
 M. W. Schmidt,  N. E. Schultz,  S. Sharma,  N. Shenvi,  C. D. Sherrill,  
 A. C. Simmonett,  A. Sodt,  T. Stein,  D. Stuck,  K. S. Thanthiriwatte,  
 V. Vanovschi,  L. Vogt,  Tao Wang,  A. Warshel,  M. A. Watson,  
 C. F. Williams,  Q. Wu,  X. Xu,  Jun Yang,  W. Zhang,  Yan Zhao

   Please cite Q-Chem as follows:
  "Software for the frontiers of quantum chemistry:
   An overview of developments in the Q-Chem 5 package"
   J. Chem. Phys. 155, 084801 (2021)
   https://doi.org/10.1063/5.0055522 (open access)

 Q-Chem 5.4.2 for Intel X86 EM64T Linux

 Parts of Q-Chem use Armadillo 9.900.5 (Nocturnal Misbehaviour).
 http://arma.sourceforge.net/

 Q-Chem begins on Tue May 17 11:09:47 2022  

 Host: 
0

     Scratch files written to /tmp/scratch//
 Dec1321 |scratch|qcdevops|jenkins|workspace|build_RNUM 7600   
 Processing $rem in /clusterfs/mp/software/qchem5.4/config/preferences:
 Processing $rem in /global/home/users/smblau/.qchemrc:
 Symmetry turned off for PCM/SM12/SMD calculation

 Checking the input file for inconsistencies... 	...done.

--------------------------------------------------------------
User input:
--------------------------------------------------------------
$molecule
-1 1
N      0.1280200000      0.2012000000     -0.0598900000
C      1.0911000000     -0.7938100000      0.5545300000
C     -0.8488200000      0.6354800000      1.0047300000
C     -0.5808400000     -0.4625600000     -1.2179300000
C      0.8581100000      1.4144700000     -0.5797700000
C      2.1162700000     -0.2245100000      1.5212400000
C     -1.9791900000      1.5442100000      0.5511600000
C     -1.4714600000     -1.6397600000     -0.8585000000
C      1.9653500000      1.1476500000     -1.5884100000
C      2.9523100000     -1.3639200000      2.1057900000
C     -2.9353100000      1.8107500000      1.7139500000
C     -2.0120500000     -2.2834300000     -2.1353900000
C      2.7152700000      2.4444000000     -1.8902300000
C      4.0422000000     -0.8642400000      3.0466900000
C     -4.0849500000      2.7299300000      1.3186900000
C     -2.8729300000     -3.5082800000     -1.8522900000
C      3.8077100000      2.2502700000     -2.9349600000
H      1.5791700000     -1.3072600000     -0.2822400000
H      0.4702800000     -1.5272000000      1.0781300000
H     -0.2588800000      1.1343700000      1.7801500000
H     -1.2562000000     -0.2817200000      1.4422300000
H      0.2017500000     -0.8188000000     -1.8950500000
H     -1.1541300000      0.3203800000     -1.7250400000
H      1.2526400000      1.9373200000      0.2981700000
H      0.1005200000      2.0610700000     -1.0322800000
H      1.6338800000      0.3238300000      2.3422400000
H      2.7887500000      0.4785900000      1.0120600000
H     -2.5428000000      1.0871600000     -0.2734000000
H     -1.5865300000      2.5026500000      0.1853400000
H     -2.3140200000     -1.3325200000     -0.2230200000
H     -0.8996700000     -2.3946500000     -0.3015200000
H      1.5503300000      0.7421500000     -2.5200700000
H      2.6726600000      0.3954900000     -1.2174800000
H      3.4059100000     -1.9342900000      1.2806900000
H      2.2901300000     -2.0622900000      2.6398100000
H     -2.3754000000      2.2543100000      2.5516500000
H     -3.3348300000      0.8522600000      2.0795200000
H     -1.1650900000     -2.5715300000     -2.7753700000
H     -2.5930200000     -1.5378900000     -2.7000500000
H      3.1559300000      2.8332200000     -0.9589700000
H      2.0009000000      3.2073400000     -2.2368100000
H      3.6085600000     -0.3157700000      3.8951100000
H      4.7311800000     -0.1861600000      2.5230600000
H      4.6297200000     -1.6994800000      3.4492100000
H     -4.6778900000      2.2884000000      0.5047200000
H     -3.7082300000      3.7024500000      0.9704000000
H     -4.7572900000      2.9109600000      2.1671900000
H     -3.7362400000     -3.2495200000     -1.2222600000
H     -2.2918300000     -4.2797500000     -1.3263800000
H     -3.2527800000     -3.9484200000     -2.7834000000
H      3.3833700000      1.8902900000     -3.8833000000
H      4.5473700000      1.5101000000     -2.5970900000
H      4.3369900000      3.1909400000     -3.1351100000
H      4.0568000000      7.0505700000      6.2993400000
H      2.5574000000      6.1161700000      6.2669400000
C      3.6076000000      6.1153700000      5.9341400000
H      4.2899000000      4.9893700000      7.6407400000
C      4.3625000000      4.9360700000      6.5447400000
H      1.1233000000      6.5845700000      3.9754400000
H      3.3826000000      7.1339700000      4.0401400000
C      3.6321000000      6.1297700000      4.4043400000
H      5.4324000000      5.0438700000      6.2989400000
C      1.4618000000      5.8173700000      3.2635400000
H      2.8506000000      3.3882700000      6.3821400000
C      3.8968000000      3.5563700000      6.0793400000
H     -0.0274000000      4.4675700000      4.0436400000
N      2.6850000000      5.2157700000      3.7820400000
H      4.6500000000      5.9238700000      4.0413400000
C      0.3817000000      4.7687700000      3.0673400000
H      1.6760000000      6.3320700000      2.3116400000
H     -0.4418000000      5.1895700000      2.4764400000
H      4.4955000000      2.7961700000      6.6006400000
C      2.8691000000      3.8608700000      3.7612400000
C      4.0230000000      3.3096700000      4.5666400000
H      4.9770000000      3.7206700000      4.1995400000
C      0.9949000000      3.5510700000      2.3860400000
N      2.1128000000      3.0176700000      3.1406400000
H      4.0414000000      2.2342700000      4.3623400000
H      0.2431000000      2.7593700000      2.2603400000
H      1.3274000000      3.8308700000      1.3694400000
$end

$rem
job_type = opt
basis = def2-svpd
max_scf_cycles = 100
gen_scfman = true
xc_grid = 3
thresh = 14
s2thresh = 16
scf_algorithm = diis
resp_charges = true
symmetry = false
sym_ignore = true
method = wb97xd
geom_opt_max_cycles = 200
solvent_method = pcm
geom_opt2 = 3
$end

$pcm
heavypoints 194
hpoints 194
radii uff
theory cpcm
vdwscale 1.1
$end

$solvent
dielectric 38.88
$end

$geom_opt
maxiter = 200
$end
--------------------------------------------------------------
 ----------------------------------------------------------------
             Standard Nuclear Orientation (Angstroms)
    I     Atom           X                Y                Z
 ----------------------------------------------------------------
    1      N       0.1280200000     0.2012000000    -0.0598900000
    2      C       1.0911000000    -0.7938100000     0.5545300000
    3      C      -0.8488200000     0.6354800000     1.0047300000
    4      C      -0.5808400000    -0.4625600000    -1.2179300000
    5      C       0.8581100000     1.4144700000    -0.5797700000
    6      C       2.1162700000    -0.2245100000     1.5212400000
    7      C      -1.9791900000     1.5442100000     0.5511600000
    8      C      -1.4714600000    -1.6397600000    -0.8585000000
    9      C       1.9653500000     1.1476500000    -1.5884100000
   10      C       2.9523100000    -1.3639200000     2.1057900000
   11      C      -2.9353100000     1.8107500000     1.7139500000
   12      C      -2.0120500000    -2.2834300000    -2.1353900000
   13      C       2.7152700000     2.4444000000    -1.8902300000
   14      C       4.0422000000    -0.8642400000     3.0466900000
   15      C      -4.0849500000     2.7299300000     1.3186900000
   16      C      -2.8729300000    -3.5082800000    -1.8522900000
   17      C       3.8077100000     2.2502700000    -2.9349600000
   18      H       1.5791700000    -1.3072600000    -0.2822400000
   19      H       0.4702800000    -1.5272000000     1.0781300000
   20      H      -0.2588800000     1.1343700000     1.7801500000
   21      H      -1.2562000000    -0.2817200000     1.4422300000
   22      H       0.2017500000    -0.8188000000    -1.8950500000
   23      H      -1.1541300000     0.3203800000    -1.7250400000
   24      H       1.2526400000     1.9373200000     0.2981700000
   25      H       0.1005200000     2.0610700000    -1.0322800000
   26      H       1.6338800000     0.3238300000     2.3422400000
   27      H       2.7887500000     0.4785900000     1.0120600000
   28      H      -2.5428000000     1.0871600000    -0.2734000000
   29      H      -1.5865300000     2.5026500000     0.1853400000
   30      H      -2.3140200000    -1.3325200000    -0.2230200000
   31      H      -0.8996700000    -2.3946500000    -0.3015200000
   32      H       1.5503300000     0.7421500000    -2.5200700000
   33      H       2.6726600000     0.3954900000    -1.2174800000
   34      H       3.4059100000    -1.9342900000     1.2806900000
   35      H       2.2901300000    -2.0622900000     2.6398100000
   36      H      -2.3754000000     2.2543100000     2.5516500000
   37      H      -3.3348300000     0.8522600000     2.0795200000
   38      H      -1.1650900000    -2.5715300000    -2.7753700000
   39      H      -2.5930200000    -1.5378900000    -2.7000500000
   40      H       3.1559300000     2.8332200000    -0.9589700000
   41      H       2.0009000000     3.2073400000    -2.2368100000
   42      H       3.6085600000    -0.3157700000     3.8951100000
   43      H       4.7311800000    -0.1861600000     2.5230600000
   44      H       4.6297200000    -1.6994800000     3.4492100000
   45      H      -4.6778900000     2.2884000000     0.5047200000
   46      H      -3.7082300000     3.7024500000     0.9704000000
   47      H      -4.7572900000     2.9109600000     2.1671900000
   48      H      -3.7362400000    -3.2495200000    -1.2222600000
   49      H      -2.2918300000    -4.2797500000    -1.3263800000
   50      H      -3.2527800000    -3.9484200000    -2.7834000000
   51      H       3.3833700000     1.8902900000    -3.8833000000
   52      H       4.5473700000     1.5101000000    -2.5970900000
   53      H       4.3369900000     3.1909400000    -3.1351100000
   54      H       4.0568000000     7.0505700000     6.2993400000
   55      H       2.5574000000     6.1161700000     6.2669400000
   56      C       3.6076000000     6.1153700000     5.9341400000
   57      H       4.2899000000     4.9893700000     7.6407400000
   58      C       4.3625000000     4.9360700000     6.5447400000
   59      H       1.1233000000     6.5845700000     3.9754400000
   60      H       3.3826000000     7.1339700000     4.0401400000
   61      C       3.6321000000     6.1297700000     4.4043400000
   62      H       5.4324000000     5.0438700000     6.2989400000
   63      C       1.4618000000     5.8173700000     3.2635400000
   64      H       2.8506000000     3.3882700000     6.3821400000
   65      C       3.8968000000     3.5563700000     6.0793400000
   66      H      -0.0274000000     4.4675700000     4.0436400000
   67      N       2.6850000000     5.2157700000     3.7820400000
   68      H       4.6500000000     5.9238700000     4.0413400000
   69      C       0.3817000000     4.7687700000     3.0673400000
   70      H       1.6760000000     6.3320700000     2.3116400000
   71      H      -0.4418000000     5.1895700000     2.4764400000
   72      H       4.4955000000     2.7961700000     6.6006400000
   73      C       2.8691000000     3.8608700000     3.7612400000
   74      C       4.0230000000     3.3096700000     4.5666400000
   75      H       4.9770000000     3.7206700000     4.1995400000
   76      C       0.9949000000     3.5510700000     2.3860400000
   77      N       2.1128000000     3.0176700000     3.1406400000
   78      H       4.0414000000     2.2342700000     4.3623400000
   79      H       0.2431000000     2.7593700000     2.2603400000
   80      H       1.3274000000     3.8308700000     1.3694400000
 ----------------------------------------------------------------
 Nuclear Repulsion Energy =        2906.87671542 hartrees
 There are      112 alpha and      112 beta electrons
 Requested basis set is def2-SVPD
 There are 432 shells and 976 basis functions

 Total QAlloc Memory Limit  96000 MB
 Mega-Array Size       188 MB
 MEM_STATIC part       192 MB
 -----------------------------------------------------------------------
                STARTING GEOMETRY OPTIMIZER USING LIBOPT3
                by Peter F. McLaughlin, Yu Zhang, Evgeny Epifanovsky
 -----------------------------------------------------------------------
  Checking Topology for Ill-Behaving Coordinates
  Done Checking Topology
              Initial Energy and Gradient Calculation

	Performing Iterative Coordinate Back-Transformation

	  Starting from Previous Position
	  iter:	0	rms: 0.000000	maxdev: 0.000000	 Success!

	Finished Iterative Coordinate Back-Transformation
 ----------------------------------------------------------------
             Standard Nuclear Orientation (Angstroms)
    I     Atom           X                Y                Z
 ----------------------------------------------------------------
    1      N       0.1280200000     0.2012000000    -0.0598900000
    2      C       1.0911000000    -0.7938100000     0.5545300000
    3      C      -0.8488200000     0.6354800000     1.0047300000
    4      C      -0.5808400000    -0.4625600000    -1.2179300000
    5      C       0.8581100000     1.4144700000    -0.5797700000
    6      C       2.1162700000    -0.2245100000     1.5212400000
    7      C      -1.9791900000     1.5442100000     0.5511600000
    8      C      -1.4714600000    -1.6397600000    -0.8585000000
    9      C       1.9653500000     1.1476500000    -1.5884100000
   10      C       2.9523100000    -1.3639200000     2.1057900000
   11      C      -2.9353100000     1.8107500000     1.7139500000
   12      C      -2.0120500000    -2.2834300000    -2.1353900000
   13      C       2.7152700000     2.4444000000    -1.8902300000
   14      C       4.0422000000    -0.8642400000     3.0466900000
   15      C      -4.0849500000     2.7299300000     1.3186900000
   16      C      -2.8729300000    -3.5082800000    -1.8522900000
   17      C       3.8077100000     2.2502700000    -2.9349600000
   18      H       1.5791700000    -1.3072600000    -0.2822400000
   19      H       0.4702800000    -1.5272000000     1.0781300000
   20      H      -0.2588800000     1.1343700000     1.7801500000
   21      H      -1.2562000000    -0.2817200000     1.4422300000
   22      H       0.2017500000    -0.8188000000    -1.8950500000
   23      H      -1.1541300000     0.3203800000    -1.7250400000
   24      H       1.2526400000     1.9373200000     0.2981700000
   25      H       0.1005200000     2.0610700000    -1.0322800000
   26      H       1.6338800000     0.3238300000     2.3422400000
   27      H       2.7887500000     0.4785900000     1.0120600000
   28      H      -2.5428000000     1.0871600000    -0.2734000000
   29      H      -1.5865300000     2.5026500000     0.1853400000
   30      H      -2.3140200000    -1.3325200000    -0.2230200000
   31      H      -0.8996700000    -2.3946500000    -0.3015200000
   32      H       1.5503300000     0.7421500000    -2.5200700000
   33      H       2.6726600000     0.3954900000    -1.2174800000
   34      H       3.4059100000    -1.9342900000     1.2806900000
   35      H       2.2901300000    -2.0622900000     2.6398100000
   36      H      -2.3754000000     2.2543100000     2.5516500000
   37      H      -3.3348300000     0.8522600000     2.0795200000
   38      H      -1.1650900000    -2.5715300000    -2.7753700000
   39      H      -2.5930200000    -1.5378900000    -2.7000500000
   40      H       3.1559300000     2.8332200000    -0.9589700000
   41      H       2.0009000000     3.2073400000    -2.2368100000
   42      H       3.6085600000    -0.3157700000     3.8951100000
   43      H       4.7311800000    -0.1861600000     2.5230600000
   44      H       4.6297200000    -1.6994800000     3.4492100000
   45      H      -4.6778900000     2.2884000000     0.5047200000
   46      H      -3.7082300000     3.7024500000     0.9704000000
   47      H      -4.7572900000     2.9109600000     2.1671900000
   48      H      -3.7362400000    -3.2495200000    -1.2222600000
   49      H      -2.2918300000    -4.2797500000    -1.3263800000
   50      H      -3.2527800000    -3.9484200000    -2.7834000000
   51      H       3.3833700000     1.8902900000    -3.8833000000
   52      H       4.5473700000     1.5101000000    -2.5970900000
   53      H       4.3369900000     3.1909400000    -3.1351100000
   54      H       4.0568000000     7.0505700000     6.2993400000
   55      H       2.5574000000     6.1161700000     6.2669400000
   56      C       3.6076000000     6.1153700000     5.9341400000
   57      H       4.2899000000     4.9893700000     7.6407400000
   58      C       4.3625000000     4.9360700000     6.5447400000
   59      H       1.1233000000     6.5845700000     3.9754400000
   60      H       3.3826000000     7.1339700000     4.0401400000
   61      C       3.6321000000     6.1297700000     4.4043400000
   62      H       5.4324000000     5.0438700000     6.2989400000
   63      C       1.4618000000     5.8173700000     3.2635400000
   64      H       2.8506000000     3.3882700000     6.3821400000
   65      C       3.8968000000     3.5563700000     6.0793400000
   66      H      -0.0274000000     4.4675700000     4.0436400000
   67      N       2.6850000000     5.2157700000     3.7820400000
   68      H       4.6500000000     5.9238700000     4.0413400000
   69      C       0.3817000000     4.7687700000     3.0673400000
   70      H       1.6760000000     6.3320700000     2.3116400000
   71      H      -0.4418000000     5.1895700000     2.4764400000
   72      H       4.4955000000     2.7961700000     6.6006400000
   73      C       2.8691000000     3.8608700000     3.7612400000
   74      C       4.0230000000     3.3096700000     4.5666400000
   75      H       4.9770000000     3.7206700000     4.1995400000
   76      C       0.9949000000     3.5510700000     2.3860400000
   77      N       2.1128000000     3.0176700000     3.1406400000
   78      H       4.0414000000     2.2342700000     4.3623400000
   79      H       0.2431000000     2.7593700000     2.2603400000
   80      H       1.3274000000     3.8308700000     1.3694400000
 ----------------------------------------------------------------
 Nuclear Repulsion Energy =        2906.87671542 hartrees
 There are      112 alpha and      112 beta electrons
 Discretize the solute cavity surface with Lebedev spheres
	Using 194 Lebedev grid points for each H atom
	Using 194 Lebedev grid points for other atoms
	Atomic van der Waals radii will be scaled by 1.10
 Remove points where switching function is < 1.0e-08
 Keep 5523 surface tesserae and discard 9997 interior tesserae
 Molecular Surface Area = 595.469 Angst**2
 Requested basis set is def2-SVPD
 There are 432 shells and 976 basis functions
 A cutoff of  1.0D-14 yielded  71684 shell pairs
 There are    362514 function pairs (    405887 Cartesian)
 Smallest overlap matrix eigenvalue = 5.99E-06

 Scale SEOQF with 1.000000e-02/1.000000e-02/1.000000e-02

 Standard Electronic Orientation quadrupole field applied
 Guess from superposition of atomic densities
 Warning:  Energy on first SCF cycle will be non-variational
 SAD guess density has 223.000000 electrons

 -----------------------------------------------------------------------
  General SCF calculation program by
  Eric Jon Sundstrom, Paul Horn, Yuezhi Mao, Dmitri Zuev, Alec White,
  David Stuck, Shaama M.S., Shane Yost, Joonho Lee, David Small,
  Daniel Levine, Susi Lehtola, Hugh Burton, Evgeny Epifanovsky,
  Bang C. Huynh
 -----------------------------------------------------------------------
 Exchange:     0.2220 Hartree-Fock + 1.0000 wB97X-D + LR-HF
 Correlation:  1.0000 wB97X-D
 Using SG-3 standard quadrature grid
 Dispersion:   Grimme D
 using 40 threads for integral computing
 -------------------------------------------------------
 OpenMP Integral computing Module                
 Release: version 1.0, May 2013, Q-Chem Inc. Pittsburgh 
 -------------------------------------------------------
 A restricted SCF calculation will be
 performed using DIIS
 SCF converges when DIIS error is below 1.0e-08
 ---------------------------------------
  Cycle       Energy         DIIS error
 ---------------------------------------
    1   -1155.4900931398      1.91e-02  
    2   -1146.3362983737      2.09e-03  
    3   -1145.5722669206      3.32e-03  
    4   -1146.9410868435      5.15e-04  
    5   -1146.9930798343      3.98e-04  
    6   -1147.0258968086      2.06e-04  
    7   -1147.0423398663      1.70e-04  
    8   -1147.0605023471      7.54e-05  
    9   -1147.0662258463      3.46e-05  
   10   -1147.0680190121      2.21e-05  
   11   -1147.0686269568      1.65e-05  
   12   -1147.0690086165      1.09e-05  
   13   -1147.0693421917      9.50e-06  
   14   -1147.0696680654      8.23e-06  
   15   -1147.0700592604      7.24e-06  
   16   -1147.0702444963      6.94e-06  
   17   -1147.0704368060      7.15e-06  
   18   -1147.0706005465      6.88e-06  
   19   -1147.0710575297      6.62e-06  
   20   -1147.0718267366      6.02e-06  
   21   -1147.0716350156      6.07e-06  
   22   -1147.0723865509      7.78e-06  
   23   -1147.0724192085      5.65e-06  
   24   -1147.0724413362      5.11e-06  
   25   -1147.0727277701      4.34e-06  
   26   -1147.0729361083      3.63e-06  
   27   -1147.0729655227      3.59e-06  
   28   -1147.0732307869      5.82e-06  
   29   -1147.0732626811      3.21e-06  
   30   -1147.0733214758      3.34e-06  
   31   -1147.0733150869      3.55e-06  
   32   -1147.0734289615      2.46e-06  
   33   -1147.0734328705      1.90e-06  
   34   -1147.0734418515      1.52e-06  
   35   -1147.0734442464      7.48e-07  
   36   -1147.0734443516      5.41e-07  
   37   -1147.0734447227      1.62e-07  
   38   -1147.0734447825      1.41e-07  
   39   -1147.0734447218      5.75e-08  
   40   -1147.0734449594      2.07e-08  
   41   -1147.0734447456      2.27e-08  
   42   -1147.0734449491      1.10e-08  
   43   -1147.0734445898      4.44e-09  Convergence criterion met
 ---------------------------------------
 SCF time:   CPU 108012.90s  wall 5947.00s 

************** Final PCM Free Energy Summary **************
 G_electrostatic  =      -0.29067239 hartree =    -182.39967748 kcal/mol
 G_cavitation     =       0.00000000 hartree =       0.00000000 kcal/mol
 G_dispersion     =       0.00000000 hartree =       0.00000000 kcal/mol
 G_repulsion      =       0.00000000 hartree =       0.00000000 kcal/mol
 --------------------------------------------------
 Non-electrostatic Free Energy =       0.00000000 hartree =       0.00000000 kcal/mol
 Total                         =      -0.29067239 hartree =    -182.39967748 kcal/mol
 --------------------------------------------------
 SCF Energy (H0 + V/2)                       =   -1147.07344459 
 Solute Internal Energy (H0)                 =   -1146.78277220 
 Total Free Energy (H0 + V/2 + non-elec)     =   -1147.07344459 hartree
                                             = -719799.45041270 kcal/mol
***********************************************************

 SCF   energy in the final basis set =    -1147.0734445898
 Total energy in the final basis set =    -1147.0734445898
 
 --------------------------------------------------------------
 
                    Orbital Energies (a.u.)
 --------------------------------------------------------------
 
 Alpha MOs
 -- Occupied --
-14.5784 -14.4543 -14.3894 -10.3564 -10.3552 -10.3533 -10.3499 -10.3436
-10.3222 -10.3198 -10.3105 -10.3104 -10.3017 -10.3014 -10.2968 -10.2959
-10.2957 -10.2915 -10.2902 -10.2889 -10.2889 -10.2885 -10.2882 -10.2874
-10.2851 -10.2833 -10.2759 -10.2637  -1.1157  -1.0557  -0.9592  -0.9153
 -0.9138  -0.9024  -0.9017  -0.8876  -0.8644  -0.8447  -0.8399  -0.8393
 -0.8334  -0.7975  -0.7714  -0.7589  -0.7516  -0.7475  -0.7344  -0.7337
 -0.6863  -0.6827  -0.6802  -0.6721  -0.6703  -0.6610  -0.6553  -0.6249
 -0.6023  -0.5996  -0.5977  -0.5898  -0.5869  -0.5737  -0.5711  -0.5629
 -0.5497  -0.5410  -0.5333  -0.5277  -0.5236  -0.5203  -0.5167  -0.5131
 -0.5100  -0.5062  -0.5054  -0.5034  -0.4977  -0.4947  -0.4917  -0.4843
 -0.4789  -0.4749  -0.4695  -0.4646  -0.4640  -0.4585  -0.4544  -0.4504
 -0.4418  -0.4385  -0.4369  -0.4355  -0.4317  -0.4306  -0.4274  -0.4257
 -0.4204  -0.4170  -0.4159  -0.4149  -0.4134  -0.4095  -0.4069  -0.4055
 -0.4034  -0.3972  -0.3943  -0.3935  -0.3672  -0.3108  -0.2764  -0.1000
 -- Virtual --
  0.0732   0.0820   0.0870   0.0932   0.0961   0.0968   0.1049   0.1073
  0.1102   0.1119   0.1142   0.1177   0.1196   0.1241   0.1300   0.1311
  0.1337   0.1362   0.1401   0.1418   0.1448   0.1516   0.1542   0.1578
  0.1613   0.1632   0.1650   0.1672   0.1706   0.1740   0.1782   0.1803
  0.1806   0.1837   0.1844   0.1877   0.1894   0.1928   0.1938   0.1961
  0.1967   0.1997   0.2020   0.2044   0.2046   0.2071   0.2110   0.2120
  0.2140   0.2167   0.2190   0.2209   0.2233   0.2262   0.2298   0.2304
  0.2352   0.2364   0.2377   0.2423   0.2428   0.2455   0.2474   0.2495
  0.2513   0.2537   0.2556   0.2570   0.2573   0.2592   0.2621   0.2655
  0.2683   0.2716   0.2729   0.2737   0.2743   0.2782   0.2812   0.2825
  0.2861   0.2878   0.2899   0.2916   0.2941   0.2949   0.2993   0.3013
  0.3046   0.3088   0.3115   0.3166   0.3174   0.3208   0.3213   0.3229
  0.3264   0.3280   0.3298   0.3335   0.3363   0.3399   0.3407   0.3422
  0.3455   0.3474   0.3488   0.3505   0.3559   0.3572   0.3576   0.3618
  0.3631   0.3663   0.3684   0.3696   0.3734   0.3742   0.3763   0.3781
  0.3792   0.3802   0.3829   0.3852   0.3858   0.3871   0.3885   0.3914
  0.3925   0.3956   0.3970   0.3984   0.3998   0.4011   0.4044   0.4057
  0.4061   0.4072   0.4097   0.4117   0.4129   0.4159   0.4191   0.4196
  0.4219   0.4237   0.4251   0.4262   0.4273   0.4289   0.4296   0.4318
  0.4332   0.4340   0.4370   0.4375   0.4391   0.4410   0.4424   0.4438
  0.4451   0.4481   0.4488   0.4497   0.4517   0.4537   0.4559   0.4569
  0.4585   0.4595   0.4612   0.4634   0.4653   0.4677   0.4689   0.4694
  0.4717   0.4731   0.4739   0.4760   0.4784   0.4806   0.4817   0.4846
  0.4855   0.4883   0.4912   0.4933   0.4943   0.4967   0.4990   0.5009
  0.5025   0.5055   0.5061   0.5078   0.5084   0.5102   0.5120   0.5131
  0.5176   0.5186   0.5211   0.5233   0.5250   0.5301   0.5312   0.5334
  0.5356   0.5375   0.5388   0.5418   0.5422   0.5452   0.5474   0.5493
  0.5513   0.5526   0.5544   0.5548   0.5580   0.5591   0.5614   0.5629
  0.5647   0.5663   0.5665   0.5694   0.5713   0.5719   0.5751   0.5758
  0.5800   0.5809   0.5834   0.5841   0.5853   0.5875   0.5906   0.5934
  0.5959   0.5966   0.5995   0.6009   0.6033   0.6062   0.6082   0.6089
  0.6114   0.6131   0.6147   0.6200   0.6204   0.6227   0.6232   0.6248
  0.6272   0.6311   0.6322   0.6343   0.6351   0.6363   0.6379   0.6388
  0.6418   0.6448   0.6466   0.6493   0.6502   0.6524   0.6590   0.6600
  0.6623   0.6629   0.6641   0.6672   0.6738   0.6748   0.6767   0.6788
  0.6791   0.6802   0.6849   0.6862   0.6903   0.6931   0.6959   0.6965
  0.6995   0.7011   0.7026   0.7063   0.7083   0.7133   0.7152   0.7163
  0.7175   0.7204   0.7212   0.7258   0.7284   0.7311   0.7327   0.7369
  0.7374   0.7398   0.7418   0.7439   0.7458   0.7470   0.7515   0.7547
  0.7562   0.7614   0.7644   0.7672   0.7696   0.7705   0.7718   0.7726
  0.7763   0.7794   0.7833   0.7861   0.7878   0.7936   0.7950   0.7955
  0.7992   0.8022   0.8051   0.8093   0.8106   0.8126   0.8155   0.8177
  0.8198   0.8218   0.8269   0.8291   0.8311   0.8367   0.8388   0.8409
  0.8447   0.8460   0.8520   0.8537   0.8562   0.8580   0.8602   0.8676
  0.8688   0.8724   0.8740   0.8823   0.8853   0.8900   0.8919   0.8928
  0.8959   0.8995   0.8999   0.9033   0.9058   0.9092   0.9123   0.9146
  0.9196   0.9226   0.9277   0.9310   0.9342   0.9357   0.9411   0.9419
  0.9456   0.9478   0.9532   0.9545   0.9609   0.9645   0.9698   0.9736
  0.9833   0.9843   0.9898   0.9937   0.9973   0.9994   1.0029   1.0068
  1.0088   1.0180   1.0231   1.0284   1.0320   1.0353   1.0377   1.0412
  1.0436   1.0512   1.0513   1.0593   1.0616   1.0659   1.0679   1.0740
  1.0785   1.0793   1.0846   1.0873   1.0897   1.0947   1.0980   1.1013
  1.1025   1.1038   1.1063   1.1075   1.1143   1.1149   1.1195   1.1222
  1.1245   1.1270   1.1283   1.1323   1.1355   1.1379   1.1386   1.1424
  1.1455   1.1483   1.1496   1.1570   1.1596   1.1610   1.1640   1.1685
  1.1735   1.1769   1.1792   1.1843   1.1848   1.1923   1.1978   1.2003
  1.2061   1.2081   1.2099   1.2148   1.2197   1.2225   1.2255   1.2359
  1.2373   1.2416   1.2454   1.2484   1.2531   1.2552   1.2578   1.2650
  1.2682   1.2752   1.2811   1.2836   1.2889   1.2925   1.3100   1.3127
  1.3186   1.3239   1.3266   1.3321   1.3343   1.3389   1.3466   1.3473
  1.3501   1.3618   1.3635   1.3662   1.3718   1.3819   1.3839   1.3894
  1.3958   1.3999   1.4028   1.4103   1.4152   1.4193   1.4218   1.4301
  1.4364   1.4380   1.4420   1.4485   1.4553   1.4578   1.4587   1.4656
  1.4740   1.4843   1.4883   1.4907   1.4952   1.4981   1.5048   1.5091
  1.5159   1.5194   1.5241   1.5292   1.5375   1.5462   1.5488   1.5496
  1.5556   1.5637   1.5677   1.5742   1.5762   1.5791   1.5827   1.5921
  1.5959   1.6054   1.6066   1.6137   1.6152   1.6246   1.6302   1.6402
  1.6439   1.6524   1.6543   1.6670   1.6685   1.6711   1.6830   1.6872
  1.6925   1.6980   1.7051   1.7136   1.7199   1.7271   1.7329   1.7387
  1.7450   1.7496   1.7534   1.7608   1.7645   1.7702   1.7765   1.7813
  1.7844   1.7921   1.7949   1.7978   1.8055   1.8103   1.8158   1.8233
  1.8254   1.8374   1.8400   1.8424   1.8493   1.8554   1.8598   1.8652
  1.8689   1.8733   1.8770   1.8829   1.8876   1.8934   1.8964   1.9014
  1.9056   1.9141   1.9249   1.9279   1.9291   1.9335   1.9351   1.9417
  1.9465   1.9499   1.9576   1.9631   1.9646   1.9667   1.9727   1.9772
  1.9795   1.9820   1.9835   1.9895   1.9949   2.0001   2.0066   2.0091
  2.0126   2.0199   2.0234   2.0270   2.0289   2.0325   2.0352   2.0383
  2.0408   2.0437   2.0561   2.0564   2.0589   2.0649   2.0664   2.0738
  2.0757   2.0809   2.0840   2.0910   2.0937   2.0982   2.1016   2.1049
  2.1087   2.1114   2.1174   2.1197   2.1256   2.1267   2.1321   2.1355
  2.1408   2.1464   2.1478   2.1501   2.1550   2.1569   2.1619   2.1655
  2.1720   2.1731   2.1757   2.1814   2.1863   2.1882   2.1932   2.2016
  2.2031   2.2088   2.2128   2.2194   2.2207   2.2250   2.2294   2.2316
  2.2399   2.2420   2.2488   2.2522   2.2549   2.2602   2.2627   2.2688
  2.2704   2.2779   2.2821   2.2886   2.2939   2.3009   2.3028   2.3053
  2.3073   2.3186   2.3227   2.3252   2.3272   2.3343   2.3388   2.3402
  2.3529   2.3532   2.3543   2.3632   2.3696   2.3724   2.3775   2.3849
  2.3918   2.3968   2.4003   2.4028   2.4064   2.4154   2.4222   2.4270
  2.4307   2.4316   2.4326   2.4440   2.4481   2.4570   2.4636   2.4715
  2.4776   2.4789   2.4840   2.4883   2.4942   2.5076   2.5110   2.5207
  2.5229   2.5269   2.5285   2.5369   2.5407   2.5507   2.5568   2.5701
  2.5706   2.5814   2.5883   2.5912   2.5985   2.6010   2.6045   2.6148
  2.6206   2.6241   2.6311   2.6352   2.6397   2.6436   2.6439   2.6485
  2.6567   2.6597   2.6670   2.6723   2.6768   2.6829   2.6833   2.6919
  2.6930   2.7006   2.7038   2.7089   2.7128   2.7208   2.7247   2.7352
  2.7393   2.7437   2.7482   2.7559   2.7638   2.7677   2.7695   2.7726
  2.7822   2.7870   2.7900   2.7945   2.7999   2.8035   2.8092   2.8126
  2.8198   2.8237   2.8263   2.8405   2.8422   2.8500   2.8535   2.8588
  2.8619   2.8708   2.9032   2.9086   2.9129   2.9202   2.9236   2.9334
  2.9396   2.9441   2.9473   2.9594   2.9621   2.9651   2.9739   2.9877
  2.9918   2.9967   3.0105   3.0206   3.0237   3.0356   3.0585   3.0845
  3.1021   3.1130   3.1218   3.1250   3.1364   3.1457   3.1558   3.1576
  3.1724   3.1749   3.1887   3.1903   3.1947   3.1967   3.2084   3.2116
  3.2189   3.2269   3.2340   3.2428   3.2455   3.2505   3.2547   3.2698
  3.2742   3.2810   3.2834   3.2863   3.2892   3.3036   3.3042   3.3108
  3.3151   3.3192   3.3207   3.3285   3.3352   3.3371   3.3535   3.3623
  3.3668   3.3806   3.3911   3.3960   3.4036   3.4153   3.4244   3.4428
  3.4470   3.4744   3.5167   3.5341   3.5487   3.5836   3.6415   3.6805
 --------------------------------------------------------------
 
          Ground-State Mulliken Net Atomic Charges

     Atom                 Charge (a.u.)
  ----------------------------------------
      1 N                    -2.558351
      2 C                     0.410261
      3 C                     0.942566
      4 C                     0.286235
      5 C                     1.292676
      6 C                    -0.809263
      7 C                     0.175601
      8 C                     0.142286
      9 C                     0.462275
     10 C                     0.122374
     11 C                    -0.045993
     12 C                    -0.117923
     13 C                    -1.770200
     14 C                     0.637258
     15 C                     0.669792
     16 C                     0.610774
     17 C                     0.779951
     18 H                    -0.054324
     19 H                    -0.174031
     20 H                    -1.139714
     21 H                    -0.211300
     22 H                    -0.206701
     23 H                    -0.093986
     24 H                    -1.044161
     25 H                    -0.226012
     26 H                     0.080310
     27 H                     0.086487
     28 H                    -0.048752
     29 H                     0.159558
     30 H                    -0.028369
     31 H                     0.136724
     32 H                    -0.019634
     33 H                    -0.165256
     34 H                     0.029459
     35 H                    -0.002548
     36 H                    -0.059580
     37 H                     0.104303
     38 H                     0.035361
     39 H                     0.056056
     40 H                     0.343113
     41 H                     0.199566
     42 H                     0.087269
     43 H                     0.115622
     44 H                    -0.040934
     45 H                     0.090347
     46 H                     0.071824
     47 H                     0.008085
     48 H                     0.082819
     49 H                     0.085610
     50 H                     0.002400
     51 H                     0.092954
     52 H                     0.071532
     53 H                     0.031823
     54 H                    -0.114143
     55 H                     0.016206
     56 C                     0.166883
     57 H                    -0.107376
     58 C                     0.110931
     59 H                    -0.141623
     60 H                    -0.136944
     61 C                     0.517266
     62 H                     0.152241
     63 C                     0.483792
     64 H                    -0.010877
     65 C                     0.178452
     66 H                     0.122888
     67 N                    -0.417302
     68 H                    -0.010057
     69 C                     0.861983
     70 H                     0.068343
     71 H                    -0.277577
     72 H                    -0.096339
     73 C                    -2.375664
     74 C                     0.601044
     75 H                     0.303364
     76 C                     0.242814
     77 N                     0.865245
     78 H                    -0.613802
     79 H                    -1.260204
     80 H                     0.184220
  ----------------------------------------
  Sum of atomic charges =    -1.000000

  Building new vdw surfaces
         Merz-Kollman RESP Net Atomic Charges

     Atom                 Charge (a.u.)
  ----------------------------------------
      1 N                    -2.275039
      2 C                    -3.141028
      3 C                    -0.642668
      4 C                    -0.282872
      5 C                     7.751425
      6 C                     3.420460
      7 C                    -1.101690
      8 C                     0.625201
      9 C                    -2.999941
     10 C                     2.094712
     11 C                     0.713659
     12 C                    -0.031644
     13 C                     2.802520
     14 C                    -0.719313
     15 C                    -0.582005
     16 C                    -0.719313
     17 C                    -0.719313
     18 H                     0.820195
     19 H                     0.820195
     20 H                     1.398007
     21 H                     0.378951
     22 H                     0.010156
     23 H                     0.010156
     24 H                    -1.289383
     25 H                    -1.289383
     26 H                    -1.738052
     27 H                    -1.738052
     28 H                     0.355594
     29 H                     0.355594
     30 H                     0.018573
     31 H                     0.018573
     32 H                     0.340085
     33 H                     0.340085
     34 H                    -0.640019
     35 H                    -0.640019
     36 H                    -0.158667
     37 H                    -0.158667
     38 H                     0.087223
     39 H                     0.087223
     40 H                    -1.338669
     41 H                    -1.338669
     42 H                     0.046527
     43 H                     0.046527
     44 H                     0.046527
     45 H                     0.137515
     46 H                     0.137515
     47 H                     0.137515
     48 H                     0.177571
     49 H                     0.177571
     50 H                     0.177571
     51 H                     0.104817
     52 H                     0.104817
     53 H                     0.104817
     54 H                    -0.653818
     55 H                    -0.653818
     56 C                     2.837167
     57 H                    -0.036082
     58 C                    -1.071140
     59 H                    -0.178373
     60 H                     0.280629
     61 C                    -1.559136
     62 H                    -0.036082
     63 C                    -0.518170
     64 H                    -0.309176
     65 C                     1.657000
     66 H                    -0.869083
     67 N                     1.984237
     68 H                     0.280629
     69 C                     3.604730
     70 H                    -0.178373
     71 H                    -0.869083
     72 H                    -0.309176
     73 C                    -5.408192
     74 C                     1.184723
     75 H                    -0.163319
     76 C                     0.429621
     77 N                     1.781363
     78 H                    -0.163319
     79 H                    -0.899251
     80 H                    -1.467985
  ----------------------------------------
  Sum of atomic charges =    -1.000000

  Related Dipole Moment =    39.4957 (X -29.3052 Y -26.2168 Z -3.7134)

 -----------------------------------------------------------------
                    Cartesian Multipole Moments
 -----------------------------------------------------------------
    Charge (ESU x 10^10)
                -4.8032
    Dipole Moment (Debye)
         X     -29.9648      Y     -26.2626      Z      -4.7083
       Tot      40.1220
    Quadrupole Moments (Debye-Ang)
        XX    -280.5519     XY     -89.0920     YY    -262.3832
        XZ     -11.6007     YZ       1.0020     ZZ    -185.4804
    Octopole Moments (Debye-Ang^2)
       XXX   -1071.5119    XXY    -660.1750    XYY    -506.9905
       YYY   -1319.7404    XXZ    -316.6515    XYZ      -7.9064
       YYZ    -226.5516    XZZ    -232.5092    YZZ    -317.7344
       ZZZ    -829.9641
    Hexadecapole Moments (Debye-Ang^3)
      XXXX  -10404.6926   XXXY   -4058.5937   XXYY   -4477.9648
      XYYY   -3821.4593   YYYY  -12909.9238   XXXZ   -2892.9021
      XXYZ   -1368.0803   XYYZ    -751.6820   YYYZ   -3609.2365
      XXZZ   -3234.2442   XYZZ    -813.0207   YYZZ   -3413.6161
      XZZZ   -2569.3520   YZZZ   -3807.6528   ZZZZ  -10619.1372
 -----------------------------------------------------------------
 Calculating analytic gradient of the SCF energy
 Gradient of SCF Energy
            1           2           3           4           5           6
    1   0.0799829   0.0174731  -0.0436179   0.0184253  -0.0864540   0.0762956
    2   0.0463581  -0.0353863  -0.0202428   0.0191045  -0.1229475   0.2443979
    3   0.0243382   0.0221838  -0.0014809  -0.0094182  -0.1066341  -0.0352366
            7           8           9          10          11          12
    1   0.0047102  -0.0031622  -0.0059163   0.0261204   0.0052957   0.0013662
    2  -0.0047539   0.0012427  -0.0870228  -0.0306742   0.0042303  -0.0000208
    3  -0.0258430   0.0150099  -0.0843573   0.0122748   0.0134830  -0.0044454
           13          14          15          16          17          18
    1   0.2005813  -0.0257056   0.0119230   0.0031983  -0.0334285  -0.0125591
    2   0.3255827   0.0172854  -0.0042448   0.0033690  -0.0341161   0.0076443
    3   0.6595938  -0.0352859  -0.0048189   0.0019080   0.0261036   0.0175588
           19          20          21          22          23          24
    1   0.0064114   0.0276762  -0.0032791  -0.0070860   0.0052388  -0.0397877
    2   0.0100664   0.0485786   0.0017369   0.0085396  -0.0070455   0.0592343
    3  -0.0065909   0.0151682  -0.0060425   0.0092897   0.0012966   0.0628736
           25          26          27          28          29          30
    1   0.0313138   0.0386383  -0.0984046   0.0083168  -0.0228572   0.0050749
    2  -0.0033047  -0.0123011  -0.1136776   0.0101697  -0.0238148  -0.0069979
    3   0.0219465  -0.0600832   0.0280127   0.0088733   0.0053810  -0.0014190
           31          32          33          34          35          36
    1  -0.0081013   0.0313072  -0.0357439  -0.0073317   0.0222724  -0.0167593
    2   0.0045273   0.0064272   0.0386378   0.0106480   0.0134381  -0.0097590
    3  -0.0013601   0.0309795  -0.0056835   0.0295911  -0.0104895  -0.0124472
           37          38          39          40          41          42
    1   0.0031352  -0.0069920   0.0022668  -0.1901507   0.0578914   0.0268019
    2   0.0137143   0.0008871  -0.0050537  -0.1725288  -0.0547217  -0.0073844
    3  -0.0024118   0.0032135   0.0017632  -0.4617444  -0.0075446  -0.0336271
           43          44          45          46          47          48
    1  -0.0366614  -0.0193735   0.0061264  -0.0084180   0.0089145   0.0039312
    2  -0.0492688   0.0308333   0.0055839  -0.0144665  -0.0013523  -0.0017454
    3   0.0473313  -0.0143416   0.0090355   0.0049412  -0.0125002  -0.0027313
           49          50          51          52          53          54
    1  -0.0035674   0.0023201   0.0193568  -0.0332473  -0.0278814  -0.0073026
    2   0.0038238   0.0020020   0.0101109   0.0372805  -0.0716211  -0.0316160
    3  -0.0027523   0.0056241   0.0318620  -0.0316961  -0.0102463  -0.0126309
           55          56          57          58          59          60
    1   0.0288142  -0.0056862   0.0008815   0.0030988   0.0126652   0.0041072
    2  -0.0051948   0.0157846  -0.0000433  -0.0021774  -0.0236612  -0.0284767
    3  -0.0141887   0.0106942  -0.0304070   0.0103683  -0.0341022   0.0072134
           61          62          63          64          65          66
    1  -0.0026221  -0.0316761   0.0648837   0.0354259  -0.0053144   0.0136564
    2  -0.0131356  -0.0052224  -0.0635962   0.0133109  -0.0146786   0.0110706
    3  -0.0387628   0.0064373  -0.1063715  -0.0133927   0.0327487  -0.0322792
           67          68          69          70          71          72
    1  -0.1133228  -0.0311760  -0.1054842  -0.0135195   0.0210490  -0.0139779
    2   0.0972639   0.0005686   0.0213567   0.0005182  -0.0212914   0.0289553
    3   0.2299028   0.0472406   0.0372314   0.0748184   0.0557604  -0.0110406
           73          74          75          76          77          78
    1   0.3283397  -0.0460121  -0.0319474   0.3474119  -0.3575725   0.0092957
    2  -0.0628058  -0.0588694   0.0102667   0.0444898  -0.0732751   0.1137137
    3  -0.8049551   0.0135027   0.0483474  -0.2580365   0.5487511   0.0328701
           79          80
    1   0.0300805  -0.1099755
    2   0.0055587  -0.0498158
    3  -0.0725007   0.1543761
 Max gradient component =       8.050E-01
 RMS gradient           =       1.054E-01
 Computing fast CPCM-SWIG gradient
 Updating gradient with PCM contributions...
 -- total gradient after adding PCM contribution --
---------------------------------------------------
  Atom         X              Y              Z     
---------------------------------------------------
   1       0.000341       0.002780       0.002829
   2       0.001761      -0.000347      -0.001156
   3       0.000742       0.002106       0.000151
   4       0.000400       0.002336      -0.003703
   5      -0.000986      -0.001883      -0.001014
   6       0.002073       0.004603       0.000212
   7      -0.000603      -0.000090      -0.000143
   8       0.000488       0.000836       0.000395
   9       0.002432      -0.000485       0.002020
  10       0.001045      -0.000345       0.000112
  11      -0.000243       0.000031      -0.000063
  12       0.000713       0.000032      -0.000336
  13      -0.002337       0.006760       0.010406
  14      -0.000151       0.000107      -0.000080
  15      -0.000115      -0.000144      -0.000003
  16       0.000212       0.000227      -0.000137
  17       0.004521       0.001077       0.001196
  18      -0.000873      -0.000594      -0.001384
  19      -0.000094       0.000717       0.000787
  20       0.000522       0.002893       0.001690
  21       0.000003      -0.000080      -0.000125
  22      -0.000109      -0.003060       0.000517
  23      -0.000966       0.000648       0.001189
  24      -0.001797       0.000092       0.001015
  25       0.000129      -0.000255      -0.000109
  26      -0.000339      -0.001173       0.001251
  27      -0.001723      -0.004570      -0.000326
  28       0.000043      -0.000306      -0.000082
  29      -0.000294      -0.000213       0.000096
  30      -0.000427      -0.000588       0.000106
  31       0.000519      -0.000091      -0.000191
  32       0.001118       0.000269       0.000701
  33      -0.002282      -0.000191      -0.002105
  34      -0.000609       0.000296      -0.000025
  35      -0.000191       0.000604      -0.000294
  36      -0.000223      -0.000171      -0.000051
  37      -0.000100      -0.000014      -0.000121
  38      -0.000173      -0.000083       0.000728
  39      -0.000019       0.000195       0.000039
  40      -0.004855      -0.005687      -0.007677
  41       0.001082      -0.001584       0.000038
  42       0.000149      -0.000321       0.000144
  43       0.000044      -0.001516       0.000590
  44      -0.000024       0.000359      -0.000160
  45      -0.000043      -0.000007       0.000024
  46      -0.000060       0.000022      -0.000077
  47      -0.000052       0.000028      -0.000005
  48      -0.000094      -0.000106       0.000000
  49       0.000209      -0.000072      -0.000071
  50       0.000103      -0.000116      -0.000015
  51      -0.001067       0.000239       0.001298
  52      -0.000849       0.000337      -0.000567
  53      -0.000719      -0.001411      -0.000450
  54       0.000103      -0.000164      -0.000306
  55       0.000066       0.000144      -0.000030
  56      -0.000275      -0.000140       0.000311
  57      -0.000065      -0.000035      -0.000288
  58       0.000137       0.000178       0.000084
  59      -0.000016      -0.000236      -0.000304
  60       0.000067      -0.000140      -0.000013
  61       0.001467       0.001154       0.000669
  62      -0.000116       0.000044      -0.000001
  63      -0.001578       0.001492      -0.000372
  64       0.000269       0.000332      -0.000001
  65       0.000757       0.000207       0.000525
  66       0.000604      -0.000833       0.000086
  67       0.000867      -0.002711      -0.003241
  68      -0.000343       0.000290       0.000649
  69       0.000152       0.001748      -0.000554
  70      -0.001047       0.000646       0.001634
  71       0.000742      -0.000343       0.000818
  72       0.000028      -0.000021      -0.000298
  73      -0.005604      -0.000167       0.013938
  74      -0.000123      -0.000336      -0.001602
  75       0.000624       0.000274       0.001141
  76       0.002706       0.002340      -0.015051
  77       0.011029      -0.000647      -0.004870
  78      -0.000064      -0.000035       0.000169
  79      -0.000167      -0.003055      -0.002834
  80      -0.006454      -0.002078       0.002676
---------------------------------------------------
 Number of fixed atoms: 0
 Gradient time:  CPU 6534.30 s  wall 446.00 s
Initial Energy: -1.14707344e+03

 *****************************************************
             Starting BFGS Algorithm
 *****************************************************
            LIBOPT3 RUN PARAMETERS

  Geometry Optimization Coordinates :
	Internal Coordinates

  Step Length Selection Method :
	Eigenvector Following Algorithm

  Convergence Criteria :
	Max Gradient Component    	3.00000000e-04
	Max Displacement Component	1.20000000e-03
	Absolute Energy Difference	1.00000000e-06

  Initial Hessian :
	Approximate Hessian - Simple Internal Coordinate Scaled

  Type of Verification :
	Verify with final updated Hessian
 *****************************************************

	OPTIMIZATION CYCLE:	1

 All Eigenvalues from Projected Hessian
   0.10000000   0.10000000   0.10000000   0.10000000   0.10000000
   0.10000000   0.10000000   0.10000000   0.10000000   0.10000000
   0.10000000   0.10000000   0.10000000   0.10000000   0.10000000
   0.10000000   0.10000000   0.10000000   0.10000000   0.10000000
   0.10000000   0.10000000   0.10000000   0.10000000   0.10000000
   0.10000000   0.10000000   0.10000000   0.10000000   0.10000000
   0.10000000   0.10000000   0.10000000   0.10000000   0.10000000
   0.10000000   0.10000000   0.10000000   0.10000000   0.10000000
   0.10000000   0.10000000   0.10000000   0.10000000   0.10000000
   0.10000000   0.10000000   0.10000000   0.10000000   0.10000000
   0.10000000   0.10000000   0.10000000   0.10000000   0.10000000
   0.10000000   0.10000000   0.10000000   0.10000000   0.10000000
   0.10000000   0.10000000   0.10000000   0.10000000   0.10000000
   0.10000000   0.10000000   0.10000000   0.10000000   0.10000000
   0.10000000   0.10000000   0.10000000   0.10000000   0.10000000
   0.10000000   0.10000000   0.10000000   0.10000000   0.10000000
   0.10000000   0.10000000   0.10000000   0.10000000   0.10000000
   0.10000000   0.10000000   0.10000000   0.10000000   0.10000000
   0.10000000   0.10000000   0.10000000   0.10000000   0.10000000
   0.10000000   0.10000000   0.10000000   0.10000000   0.10000000
   0.10000000   0.10000000   0.10000000   0.10000000   0.10000000
   0.10000000   0.10000000   0.10000000   0.10000000   0.10000000
   0.10000000   0.10000000   0.10000000   0.10000000   0.10000000
   0.10000000   0.10000000   0.10000000   0.10000000   0.10000000
   0.10000000   0.10000000   0.10000000   0.10000000   0.10000000
   0.10000000   0.10000000   0.10000000   0.10000000   0.10000000
   0.10000000   0.10000000   0.10000000   0.10000000   0.10000000
   0.10000000   0.10000000   0.10000000   0.10000000   0.10000000
   0.10000000   0.10000000   0.10000000   0.10000000   0.10000000
   0.10000000   0.10000000   0.10000000   0.10000000   0.10000000
   0.10000000   0.10000000   0.10000000   0.10000000   0.10000000
   0.10000000   0.10000000   0.10000000   0.10000000   0.10000000
   0.10000000   0.10000000   0.10000000   0.10000000   0.10000000
   0.10000000   0.10000000   0.10000000   0.10000000   0.10000000
   0.10000000   0.10000000   0.10000000   0.10000000   0.10000000
   0.10000000   0.10000000   0.10000000   0.10000000   0.10000000
   0.10000000   0.10000000   0.10000000   0.10000000   0.10000000
   0.10000000   0.10000000   0.10000000   0.10000000   0.10000000
   0.10000000   0.10000000   0.10000000   0.10000000   0.10000000
   0.10000000   0.10000000   0.10000000   0.10000000   0.10000000
   0.10000000   0.10000000   0.10000000   0.10000000   0.10000000
   0.10000000   0.10000000   0.10000000   0.10000000   0.10000000
   0.10000000   0.10000000   0.10000000   0.10000000   0.10000000
   0.10000000   0.10000000   0.10000000   0.10000000   0.10000000
   0.10000000   0.10000000   0.10000000   0.10000000   0.10000000
   0.10000000   0.10000000   0.10000000   0.10000000   0.10000000
   0.10000000   0.10000000   0.20000000   0.20000000   0.20000000
   0.20000000   0.20000000   0.20000000   0.20000000   0.20000000
   0.20000000   0.20000000   0.20000000   0.20000000   0.20000000
   0.20000000   0.20000000   0.20000000   0.20000000   0.20000000
   0.20000000   0.20000000   0.20000000   0.20000000   0.20000000
   0.20000000   0.20000000   0.20000000   0.20000000   0.20000000
   0.20000000   0.20000000   0.20000000   0.20000000   0.20000000
   0.20000000   0.20000000   0.20000000   0.20000000   0.20000000
   0.20000000   0.20000000   0.20000000   0.20000000   0.20000000
   0.20000000   0.20000000   0.20000000   0.20000000   0.20000000
   0.20000000   0.20000000   0.20000000   0.20000000   0.20000000
   0.20000000   0.20000000   0.20000000   0.20000000   0.20000000
   0.20000000   0.20000000   0.20000000   0.20000000   0.20000000
   0.20000000   0.20000000   0.20000000   0.20000000   0.20000000
   0.20000000   0.20000000   0.20000000   0.20000000   0.20000000
   0.20000000   0.20000000   0.20000000   0.20000000   0.20000000
   0.20000000   0.20000000   0.20000000   0.20000000   0.20000000
   0.20000000   0.20000000   0.20000000   0.20000000   0.20000000
   0.20000000   0.20000000   0.20000000   0.20000000   0.20000000
   0.20000000   0.20000000   0.20000000   0.20000000   0.20000000
   0.20000000   0.20000000   0.20000000   0.20000000   0.20000000
   0.20000000   0.20000000   0.20000000   0.20000000   0.20000000
   0.20000000   0.20000000   0.20000000   0.20000000   0.20000000
   0.20000000   0.20000000   0.20000000   0.20000000   0.20000000
   0.20000000   0.20000000   0.20000000   0.20000000   0.20000000
   0.20000000   0.20000000   0.20000000   0.20000000   0.20000000
   0.20000000   0.20000000   0.20000000   0.20000000   0.20000000
   0.20000000   0.20000000   0.20000000   0.20000000   0.20000000
   0.20000000   0.20000000   0.20000000   0.20000000   0.20000000
   0.20000000   0.20000000   0.20000000   0.20000000   0.20000000
   0.20000000   0.20000000   0.20000000   0.20000000   0.20000000
   0.20000000   0.20000000   0.20000000   0.20000000   0.20000000
   0.20000000   0.50000000   0.50000000   0.50000000   0.50000000
   0.50000000   0.50000000   0.50000000   0.50000000   0.50000000
   0.50000000   0.50000000   0.50000000   0.50000000   0.50000000
   0.50000000   0.50000000   0.50000000   0.50000000   0.50000000
   0.50000000   0.50000000   0.50000000   0.50000000   0.50000000
   0.50000000   0.50000000   0.50000000   0.50000000   0.50000000
   0.50000000   0.50000000   0.50000000   0.50000000   0.50000000
   0.50000000   0.50000000   0.50000000   0.50000000   0.50000000
   0.50000000   0.50000000   0.50000000   0.50000000   0.50000000
   0.50000000   0.50000000   0.50000000   0.50000000   0.50000000
   0.50000000   0.50000000   0.50000000   0.50000000   0.50000000
   0.50000000   0.50000000   0.50000000   0.50000000   0.50000000
   0.50000000   0.50000000   0.50000000   0.50000000   0.50000000
   0.50000000   0.50000000   0.50000000   0.50000000   0.50000000
   0.50000000   0.50000000   0.50000000   0.50000000   0.50000000
   0.50000000   0.50000000   0.50000000   0.50000000   0.50000000
   0.50000000   0.50000000

 Scaling Magnitute of eigenvalues
 Minimum: -25.00000000
 Maximum: 25.00000000
 472 Hessian Eigenvalues to form next step
   0.10000000   0.10000000   0.10000000   0.10000000   0.10000000
   0.10000000   0.10000000   0.10000000   0.10000000   0.10000000
   0.10000000   0.10000000   0.10000000   0.10000000   0.10000000
   0.10000000   0.10000000   0.10000000   0.10000000   0.10000000
   0.10000000   0.10000000   0.10000000   0.10000000   0.10000000
   0.10000000   0.10000000   0.10000000   0.10000000   0.10000000
   0.10000000   0.10000000   0.10000000   0.10000000   0.10000000
   0.10000000   0.10000000   0.10000000   0.10000000   0.10000000
   0.10000000   0.10000000   0.10000000   0.10000000   0.10000000
   0.10000000   0.10000000   0.10000000   0.10000000   0.10000000
   0.10000000   0.10000000   0.10000000   0.10000000   0.10000000
   0.10000000   0.10000000   0.10000000   0.10000000   0.10000000
   0.10000000   0.10000000   0.10000000   0.10000000   0.10000000
   0.10000000   0.10000000   0.10000000   0.10000000   0.10000000
   0.10000000   0.10000000   0.10000000   0.10000000   0.10000000
   0.10000000   0.10000000   0.10000000   0.10000000   0.10000000
   0.10000000   0.10000000   0.10000000   0.10000000   0.10000000
   0.10000000   0.10000000   0.10000000   0.10000000   0.10000000
   0.10000000   0.10000000   0.10000000   0.10000000   0.10000000
   0.10000000   0.10000000   0.10000000   0.10000000   0.10000000
   0.10000000   0.10000000   0.10000000   0.10000000   0.10000000
   0.10000000   0.10000000   0.10000000   0.10000000   0.10000000
   0.10000000   0.10000000   0.10000000   0.10000000   0.10000000
   0.10000000   0.10000000   0.10000000   0.10000000   0.10000000
   0.10000000   0.10000000   0.10000000   0.10000000   0.10000000
   0.10000000   0.10000000   0.10000000   0.10000000   0.10000000
   0.10000000   0.10000000   0.10000000   0.10000000   0.10000000
   0.10000000   0.10000000   0.10000000   0.10000000   0.10000000
   0.10000000   0.10000000   0.10000000   0.10000000   0.10000000
   0.10000000   0.10000000   0.10000000   0.10000000   0.10000000
   0.10000000   0.10000000   0.10000000   0.10000000   0.10000000
   0.10000000   0.10000000   0.10000000   0.10000000   0.10000000
   0.10000000   0.10000000   0.10000000   0.10000000   0.10000000
   0.10000000   0.10000000   0.10000000   0.10000000   0.10000000
   0.10000000   0.10000000   0.10000000   0.10000000   0.10000000
   0.10000000   0.10000000   0.10000000   0.10000000   0.10000000
   0.10000000   0.10000000   0.10000000   0.10000000   0.10000000
   0.10000000   0.10000000   0.10000000   0.10000000   0.10000000
   0.10000000   0.10000000   0.10000000   0.10000000   0.10000000
   0.10000000   0.10000000   0.10000000   0.10000000   0.10000000
   0.10000000   0.10000000   0.10000000   0.10000000   0.10000000
   0.10000000   0.10000000   0.10000000   0.10000000   0.10000000
   0.10000000   0.10000000   0.10000000   0.10000000   0.10000000
   0.10000000   0.10000000   0.10000000   0.10000000   0.10000000
   0.10000000   0.10000000   0.10000000   0.10000000   0.10000000
   0.10000000   0.10000000   0.10000000   0.10000000   0.10000000
   0.10000000   0.10000000   0.20000000   0.20000000   0.20000000
   0.20000000   0.20000000   0.20000000   0.20000000   0.20000000
   0.20000000   0.20000000   0.20000000   0.20000000   0.20000000
   0.20000000   0.20000000   0.20000000   0.20000000   0.20000000
   0.20000000   0.20000000   0.20000000   0.20000000   0.20000000
   0.20000000   0.20000000   0.20000000   0.20000000   0.20000000
   0.20000000   0.20000000   0.20000000   0.20000000   0.20000000
   0.20000000   0.20000000   0.20000000   0.20000000   0.20000000
   0.20000000   0.20000000   0.20000000   0.20000000   0.20000000
   0.20000000   0.20000000   0.20000000   0.20000000   0.20000000
   0.20000000   0.20000000   0.20000000   0.20000000   0.20000000
   0.20000000   0.20000000   0.20000000   0.20000000   0.20000000
   0.20000000   0.20000000   0.20000000   0.20000000   0.20000000
   0.20000000   0.20000000   0.20000000   0.20000000   0.20000000
   0.20000000   0.20000000   0.20000000   0.20000000   0.20000000
   0.20000000   0.20000000   0.20000000   0.20000000   0.20000000
   0.20000000   0.20000000   0.20000000   0.20000000   0.20000000
   0.20000000   0.20000000   0.20000000   0.20000000   0.20000000
   0.20000000   0.20000000   0.20000000   0.20000000   0.20000000
   0.20000000   0.20000000   0.20000000   0.20000000   0.20000000
   0.20000000   0.20000000   0.20000000   0.20000000   0.20000000
   0.20000000   0.20000000   0.20000000   0.20000000   0.20000000
   0.20000000   0.20000000   0.20000000   0.20000000   0.20000000
   0.20000000   0.20000000   0.20000000   0.20000000   0.20000000
   0.20000000   0.20000000   0.20000000   0.20000000   0.20000000
   0.20000000   0.20000000   0.20000000   0.20000000   0.20000000
   0.20000000   0.20000000   0.20000000   0.20000000   0.20000000
   0.20000000   0.20000000   0.20000000   0.20000000   0.20000000
   0.20000000   0.20000000   0.20000000   0.20000000   0.20000000
   0.20000000   0.20000000   0.20000000   0.20000000   0.20000000
   0.20000000   0.20000000   0.20000000   0.20000000   0.20000000
   0.20000000   0.20000000   0.20000000   0.20000000   0.20000000
   0.20000000   0.50000000   0.50000000   0.50000000   0.50000000
   0.50000000   0.50000000   0.50000000   0.50000000   0.50000000
   0.50000000   0.50000000   0.50000000   0.50000000   0.50000000
   0.50000000   0.50000000   0.50000000   0.50000000   0.50000000
   0.50000000   0.50000000   0.50000000   0.50000000   0.50000000
   0.50000000   0.50000000   0.50000000   0.50000000   0.50000000
   0.50000000   0.50000000   0.50000000   0.50000000   0.50000000
   0.50000000   0.50000000   0.50000000   0.50000000   0.50000000
   0.50000000   0.50000000   0.50000000   0.50000000   0.50000000
   0.50000000   0.50000000   0.50000000   0.50000000   0.50000000
   0.50000000   0.50000000   0.50000000   0.50000000   0.50000000
   0.50000000   0.50000000   0.50000000   0.50000000   0.50000000
   0.50000000   0.50000000   0.50000000   0.50000000   0.50000000
   0.50000000   0.50000000   0.50000000   0.50000000   0.50000000
   0.50000000   0.50000000   0.50000000   0.50000000   0.50000000
   0.50000000   0.50000000   0.50000000   0.50000000   0.50000000
   0.50000000   0.50000000

 Minimum Search taking a RFO step
 Searching for Lambda that minimizes along all modes
 Value of Lambda  -0.01195391
 Norm of Stepsize  0.27508562

	Performing Iterative Coordinate Back-Transformation

	  Starting from Previous Position
	  iter:	0	rms: 0.35118708	maxdev: 1.50555672
	  iter:	1	rms: 0.02325078	maxdev: 0.09503360
	  iter:	2	rms: 0.00008475	maxdev: 0.00038868
	  iter:	3	rms: 0.00000037	maxdev: 0.00000129	 Success!

	Finished Iterative Coordinate Back-Transformation
 ----------------------------------------------------------------
             Standard Nuclear Orientation (Angstroms)
    I     Atom           X                Y                Z
 ----------------------------------------------------------------
    1      N       0.1618141708     0.2724308943    -0.1034386904
    2      C       1.1714569820    -0.6425147221     0.5541505219
    3      C      -0.8261399035     0.6945963117     0.9641074514
    4      C      -0.5629924298    -0.4458424856    -1.2173591035
    5      C       0.8701035529     1.4565045789    -0.7295207428
    6      C       2.1513864266     0.0915516265     1.4538004399
    7      C      -1.9859541238     1.5499698534     0.4846365686
    8      C      -1.4357131070    -1.6172780509    -0.7963587741
    9      C       1.9304442162     1.0626180140    -1.7550824771
   10      C       3.0992188933    -0.8915824723     2.1403071901
   11      C      -2.9618408278     1.7923497130     1.6358106361
   12      C      -2.0075872337    -2.3160802116    -2.0306116281
   13      C       2.7265565829     2.2591262152    -2.2837277978
   14      C       4.1224027642    -0.1652006827     3.0055861295
   15      C      -4.1411688962     2.6630172014     1.2192661709
   16      C      -2.8573090331    -3.5284750558    -1.6696491533
   17      C       3.7337493093     1.8515740030    -3.3519652035
   18      H       1.6865909872    -1.1862680911    -0.2451286499
   19      H       0.6042450856    -1.3746979805     1.1370190829
   20      H      -0.2957639529     1.2285531171     1.7605461281
   21      H      -1.1883520716    -0.2351398991     1.4146302017
   22      H       0.2125462041    -0.8053952757    -1.8998263561
   23      H      -1.1575255970     0.3090668789    -1.7412944737
   24      H       1.3010540275     2.0585660327     0.0774071303
   25      H       0.0979959213     2.0630278983    -1.2124380067
   26      H       1.6200012372     0.6713160610     2.2204815369
   27      H       2.7573424169     0.8084386830     0.8763654948
   28      H      -2.5214538467     1.0628198715    -0.3411980461
   29      H      -1.6267786322     2.5194248087     0.1124658338
   30      H      -2.2642582473    -1.2864413434    -0.1547303935
   31      H      -0.8479639882    -2.3462235124    -0.2221803062
   32      H       1.4481852047     0.5663251917    -2.6084939539
   33      H       2.6349489384     0.3358373556    -1.3264067561
   34      H       3.6150123444    -1.4938642452     1.3761481291
   35      H       2.5205568843    -1.5994009751     2.7538877799
   36      H      -2.4264543211     2.2671224944     2.4727275638
   37      H      -3.3273286254     0.8235835575     2.0097528467
   38      H      -1.1781105061    -2.6288475975    -2.6827504963
   39      H      -2.6072426825    -1.5975331543    -2.6102860184
   40      H       3.2558239691     2.7622961215    -1.4451566527
   41      H       2.0292367462     3.0068197590    -2.6976348998
   42      H       3.6250828821     0.4210467588     3.7916743803
   43      H       4.7239153711     0.5284458359     2.3986367876
   44      H       4.8047228055    -0.8746807111     3.4920966182
   45      H      -4.7094285946     2.1902818101     0.4052206826
   46      H      -3.7972398264     3.6447320383     0.8629744591
   47      H      -4.8275992132     2.8286310248     2.0595361885
   48      H      -3.7025230867    -3.2417771142    -1.0273858088
   49      H      -2.2610627032    -4.2759780561    -1.1266406663
   50      H      -3.2630594712    -4.0089616153    -2.5693302526
   51      H       3.2404913936     1.3824129316    -4.2164627004
   52      H       4.4587658430     1.1279103088    -2.9494546446
   53      H       4.2939029372     2.7251978875    -3.7144617862
   54      H       4.2032380058     6.8025062752     6.4659033393
   55      H       2.6279607186     6.0035183352     6.4115036409
   56      C       3.6779187121     5.9118127758     6.0905260891
   57      H       4.2356301340     4.7250383201     7.8014138571
   58      C       4.3172239750     4.6681571621     6.7059268150
   59      H       1.2614099376     6.6037568444     4.1036535255
   60      H       3.5624418466     6.9536856192     4.1989211698
   61      C       3.7196872596     5.9300271709     4.5608896831
   62      H       5.3956781431     4.6803640150     6.4741081946
   63      C       1.5401156014     5.8053400471     3.3996377192
   64      H       2.6750861390     3.2602350247     6.5173679294
   65      C       3.7363956671     3.3366162013     6.2292937701
   66      H      -0.0976475363     4.6000932441     4.1499188027
   67      N       2.7029171881     5.1047107065     3.9299335052
   68      H       4.7182528365     5.6359551676     4.2031119746
   69      C       0.3663830526     4.8623736351     3.1871439242
   70      H       1.8180792262     6.2904249942     2.4470913845
   71      H      -0.4000267332     5.3570323272     2.5748648305
   72      H       4.2582321015     2.5251976207     6.7562022827
   73      C       2.7699057304     3.7396592136     3.9032849727
   74      C       3.8604538584     3.0845861037     4.7175058084
   75      H       4.8490356916     3.4091253722     4.3561648632
   76      C       0.9029548128     3.6032080968     2.5219793741
   77      N       1.9484486755     2.9683162021     3.2822003162
   78      H       3.7846937695     2.0125326712     4.5088943683
   79      H       0.1323857077     2.8453434950     2.3402450091
   80      H       1.3039423022     3.8708417728     1.5213813364
 ----------------------------------------------------------------
 Nuclear Repulsion Energy =        2914.63110701 hartrees
 There are      112 alpha and      112 beta electrons
 Discretize the solute cavity surface with Lebedev spheres
	Using 194 Lebedev grid points for each H atom
	Using 194 Lebedev grid points for other atoms
	Atomic van der Waals radii will be scaled by 1.10
 Remove points where switching function is < 1.0e-08
 Keep 5463 surface tesserae and discard 10057 interior tesserae
 Molecular Surface Area = 585.922 Angst**2
 Nucleus-field energy     =    -0.0000000024 hartrees
 Requested basis set is def2-SVPD
 There are 432 shells and 976 basis functions
 A cutoff of  1.0D-14 yielded  71609 shell pairs
 There are    362051 function pairs (    405336 Cartesian)
 Smallest overlap matrix eigenvalue = 6.05E-06
 Guess MOs from SCF MO coefficient file

 -----------------------------------------------------------------------
  General SCF calculation program by
  Eric Jon Sundstrom, Paul Horn, Yuezhi Mao, Dmitri Zuev, Alec White,
  David Stuck, Shaama M.S., Shane Yost, Joonho Lee, David Small,
  Daniel Levine, Susi Lehtola, Hugh Burton, Evgeny Epifanovsky,
  Bang C. Huynh
 -----------------------------------------------------------------------
 Exchange:     0.2220 Hartree-Fock + 1.0000 wB97X-D + LR-HF
 Correlation:  1.0000 wB97X-D
 Using SG-3 standard quadrature grid
 Dispersion:   Grimme D
 A restricted SCF calculation will be
 performed using Roothaan-Hall, DIIS
 SCF converges when DIIS error is below 1.0e-08
 ---------------------------------------
  Cycle       Energy         DIIS error
 ---------------------------------------
    1   -1146.4658916915      2.04e-03  Roothaan Step
 ---------------------------------------
  Cycle       Energy         DIIS error
 ---------------------------------------
    1   -1146.9032009485      7.97e-04  
    2   -1147.0016900803      5.48e-04  
    3   -1147.0364126368      1.64e-04  
    4   -1147.0413774443      8.03e-05  
    5   -1147.0444089930      4.06e-05  
    6   -1147.0470294589      3.41e-05  
    7   -1147.0499115865      3.09e-05  
    8   -1147.0540239865      2.36e-05  
    9   -1147.0557928472      1.70e-05  
   10   -1147.0566105720      1.32e-05  
   11   -1147.0571651045      6.45e-06  
   12   -1147.0572772180      4.71e-06  
   13   -1147.0573331522      1.87e-06  
   14   -1147.0573415997      9.36e-07  
   15   -1147.0573434465      6.27e-07  
   16   -1147.0573440292      4.23e-07  
   17   -1147.0573444359      3.86e-07  
   18   -1147.0573449212      3.81e-07  
   19   -1147.0573453113      3.79e-07  
   20   -1147.0573450507      3.79e-07  
   21   -1147.0573455068      3.81e-07  
   22   -1147.0573452283      3.81e-07  
   23   -1147.0573446729      3.73e-07  
   24   -1147.0573396464      3.38e-07  
   25   -1147.0573328862      2.84e-07  
   26   -1147.0573274623      3.18e-07  
   27   -1147.0573270118      3.11e-07  
   28   -1147.0573271628      2.99e-07  
   29   -1147.0573260747      2.43e-07  
   30   -1147.0573240899      2.78e-07  
   31   -1147.0573238051      2.39e-07  
   32   -1147.0573225005      1.08e-07  
   33   -1147.0573224010      7.18e-08  
   34   -1147.0573222893      8.49e-08  
   35   -1147.0573223820      5.51e-08  
   36   -1147.0573224667      9.62e-09  Convergence criterion met
 ---------------------------------------
 SCF time:   CPU 90855.52s  wall 5022.00s 

************** Final PCM Free Energy Summary **************
 G_electrostatic  =      -0.24405598 hartree =    -153.14744186 kcal/mol
 G_cavitation     =       0.00000000 hartree =       0.00000000 kcal/mol
 G_dispersion     =       0.00000000 hartree =       0.00000000 kcal/mol
 G_repulsion      =       0.00000000 hartree =       0.00000000 kcal/mol
 --------------------------------------------------
 Non-electrostatic Free Energy =       0.00000000 hartree =       0.00000000 kcal/mol
 Total                         =      -0.24405598 hartree =    -153.14744186 kcal/mol
 --------------------------------------------------
 SCF Energy (H0 + V/2)                       =   -1147.05732247 
 Solute Internal Energy (H0)                 =   -1146.81326648 
 Total Free Energy (H0 + V/2 + non-elec)     =   -1147.05732247 hartree
                                             = -719789.33362775 kcal/mol
***********************************************************

 SCF   energy in the final basis set =    -1147.0573224667
 Total energy in the final basis set =    -1147.0573224667
 
 --------------------------------------------------------------
 
                    Orbital Energies (a.u.)
 --------------------------------------------------------------
 
 Alpha MOs
 -- Occupied --
-14.5724 -14.4647 -14.4025 -10.3592 -10.3532 -10.3504 -10.3411 -10.3392
-10.3295 -10.3285 -10.3124 -10.3086 -10.3020 -10.3002 -10.2969 -10.2953
-10.2947 -10.2933 -10.2928 -10.2915 -10.2888 -10.2850 -10.2799 -10.2791
-10.2756 -10.2740 -10.2731 -10.2711  -1.1080  -1.0683  -0.9748  -0.9095
 -0.9084  -0.9066  -0.8915  -0.8805  -0.8733  -0.8468  -0.8419  -0.8340
 -0.8275  -0.7911  -0.7791  -0.7588  -0.7540  -0.7427  -0.7406  -0.7286
 -0.6854  -0.6822  -0.6772  -0.6725  -0.6643  -0.6603  -0.6535  -0.6185
 -0.6086  -0.5958  -0.5930  -0.5918  -0.5860  -0.5831  -0.5643  -0.5559
 -0.5501  -0.5429  -0.5404  -0.5273  -0.5243  -0.5204  -0.5193  -0.5147
 -0.5082  -0.5028  -0.5002  -0.4997  -0.4971  -0.4947  -0.4924  -0.4871
 -0.4830  -0.4755  -0.4668  -0.4654  -0.4619  -0.4583  -0.4516  -0.4468
 -0.4436  -0.4418  -0.4347  -0.4317  -0.4282  -0.4263  -0.4230  -0.4198
 -0.4154  -0.4138  -0.4109  -0.4098  -0.4093  -0.4078  -0.4067  -0.4045
 -0.4013  -0.3958  -0.3940  -0.3925  -0.3764  -0.3229  -0.2879  -0.0954
 -- Virtual --
  0.0763   0.0770   0.0838   0.0919   0.0952   0.0954   0.1048   0.1074
  0.1083   0.1111   0.1149   0.1154   0.1214   0.1256   0.1292   0.1325
  0.1343   0.1368   0.1401   0.1414   0.1514   0.1525   0.1550   0.1567
  0.1574   0.1628   0.1669   0.1698   0.1724   0.1729   0.1743   0.1779
  0.1795   0.1828   0.1837   0.1887   0.1909   0.1926   0.1942   0.1960
  0.1987   0.2001   0.2022   0.2042   0.2081   0.2109   0.2113   0.2120
  0.2160   0.2173   0.2204   0.2219   0.2252   0.2267   0.2287   0.2328
  0.2347   0.2370   0.2395   0.2404   0.2426   0.2444   0.2472   0.2505
  0.2519   0.2531   0.2553   0.2563   0.2588   0.2606   0.2635   0.2666
  0.2687   0.2713   0.2747   0.2755   0.2777   0.2792   0.2829   0.2833
  0.2856   0.2891   0.2923   0.2942   0.2961   0.2978   0.3014   0.3019
  0.3069   0.3094   0.3113   0.3141   0.3184   0.3207   0.3236   0.3261
  0.3280   0.3310   0.3328   0.3336   0.3363   0.3394   0.3428   0.3465
  0.3472   0.3486   0.3513   0.3551   0.3571   0.3585   0.3599   0.3621
[...]
   0.20000000   0.20000000   0.20000000   0.20000000   0.20000000
   0.20000000   0.20000000   0.20000000   0.20000000   0.20000000
   0.20000000   0.20000000   0.20000000   0.20000000   0.20000000
   0.20000000   0.20000000   0.20000000   0.20000000   0.20000000
   0.20000000   0.20000000   0.20000000   0.20000000   0.20000000
   0.45561880   0.48436081   0.50000000   0.50000000   0.50000000
   0.50000000   0.50000000   0.50000000   0.50000000   0.50000000
   0.50000000   0.50000000   0.50000000   0.50000000   0.50000000
   0.50000000   0.50000000   0.50000000   0.50000000   0.50000000
   0.50000000   0.50000000   0.50000000   0.50000000   0.50000000
   0.50000000   0.50000000   0.50000000   0.50000000   0.50000000
   0.50000000   0.50000000   0.50000000   0.50000000   0.50000000
   0.50000000   0.50000000   0.50000000   0.50000000   0.50000000
   0.50000000   0.50000000   0.50000000   0.50000000   0.50000000
   0.50000000   0.50000000   0.50000000   0.50000000   0.50000000
   0.50000000   0.50000000   0.50000000   0.50000000   0.50000000
   0.50000000   0.50000000   0.50000000   0.50000000   0.50000000
   0.50000000   0.50000000   0.50000000   0.50000000   0.50000000
   0.50000000   0.50000000   0.50000000   0.50000000   0.50000000
   0.50000000   0.50000000   0.50000000   0.50000000   0.50000000
   0.50000000   0.50000000   0.50000000   0.50000000   0.50000000
   0.50000000   0.87684537

 Scaling Magnitute of eigenvalues
 Minimum: -25.00000000
 Maximum: 25.00000000
 472 Hessian Eigenvalues to form next step
   0.06319408   0.10000000   0.10000000   0.10000000   0.10000000
   0.10000000   0.10000000   0.10000000   0.10000000   0.10000000
   0.10000000   0.10000000   0.10000000   0.10000000   0.10000000
   0.10000000   0.10000000   0.10000000   0.10000000   0.10000000
   0.10000000   0.10000000   0.10000000   0.10000000   0.10000000
   0.10000000   0.10000000   0.10000000   0.10000000   0.10000000
   0.10000000   0.10000000   0.10000000   0.10000000   0.10000000
   0.10000000   0.10000000   0.10000000   0.10000000   0.10000000
   0.10000000   0.10000000   0.10000000   0.10000000   0.10000000
   0.10000000   0.10000000   0.10000000   0.10000000   0.10000000
   0.10000000   0.10000000   0.10000000   0.10000000   0.10000000
   0.10000000   0.10000000   0.10000000   0.10000000   0.10000000
   0.10000000   0.10000000   0.10000000   0.10000000   0.10000000
   0.10000000   0.10000000   0.10000000   0.10000000   0.10000000
   0.10000000   0.10000000   0.10000000   0.10000000   0.10000000
   0.10000000   0.10000000   0.10000000   0.10000000   0.10000000
   0.10000000   0.10000000   0.10000000   0.10000000   0.10000000
   0.10000000   0.10000000   0.10000000   0.10000000   0.10000000
   0.10000000   0.10000000   0.10000000   0.10000000   0.10000000
   0.10000000   0.10000000   0.10000000   0.10000000   0.10000000
   0.10000000   0.10000000   0.10000000   0.10000000   0.10000000
   0.10000000   0.10000000   0.10000000   0.10000000   0.10000000
   0.10000000   0.10000000   0.10000000   0.10000000   0.10000000
   0.10000000   0.10000000   0.10000000   0.10000000   0.10000000
   0.10000000   0.10000000   0.10000000   0.10000000   0.10000000
   0.10000000   0.10000000   0.10000000   0.10000000   0.10000000
   0.10000000   0.10000000   0.10000000   0.10000000   0.10000000
   0.10000000   0.10000000   0.10000000   0.10000000   0.10000000
   0.10000000   0.10000000   0.10000000   0.10000000   0.10000000
   0.10000000   0.10000000   0.10000000   0.10000000   0.10000000
   0.10000000   0.10000000   0.10000000   0.10000000   0.10000000
   0.10000000   0.10000000   0.10000000   0.10000000   0.10000000
   0.10000000   0.10000000   0.10000000   0.10000000   0.10000000
   0.10000000   0.10000000   0.10000000   0.10000000   0.10000000
   0.10000000   0.10000000   0.10000000   0.10000000   0.10000000
   0.10000000   0.10000000   0.10000000   0.10000000   0.10000000
   0.10000000   0.10000000   0.10000000   0.10000000   0.10000000
   0.10000000   0.10000000   0.10000000   0.10000000   0.10000000
   0.10000000   0.10000000   0.10000000   0.10000000   0.10000000
   0.10000000   0.10000000   0.10000000   0.10000000   0.10000000
   0.10000000   0.10000000   0.10000000   0.10000000   0.10000000
   0.10000000   0.10000000   0.10000000   0.10000000   0.10000000
   0.10000000   0.10000000   0.10000000   0.10000000   0.10000000
   0.10000000   0.10000000   0.10000000   0.10000000   0.10000000
   0.10000000   0.10000000   0.10000000   0.10000000   0.10000000
   0.10000000   0.10000000   0.10000000   0.10000000   0.10000000
   0.10000000   0.11722159   0.17563424   0.20000000   0.20000000
   0.20000000   0.20000000   0.20000000   0.20000000   0.20000000
   0.20000000   0.20000000   0.20000000   0.20000000   0.20000000
   0.20000000   0.20000000   0.20000000   0.20000000   0.20000000
   0.20000000   0.20000000   0.20000000   0.20000000   0.20000000
   0.20000000   0.20000000   0.20000000   0.20000000   0.20000000
   0.20000000   0.20000000   0.20000000   0.20000000   0.20000000
   0.20000000   0.20000000   0.20000000   0.20000000   0.20000000
   0.20000000   0.20000000   0.20000000   0.20000000   0.20000000
   0.20000000   0.20000000   0.20000000   0.20000000   0.20000000
   0.20000000   0.20000000   0.20000000   0.20000000   0.20000000
   0.20000000   0.20000000   0.20000000   0.20000000   0.20000000
   0.20000000   0.20000000   0.20000000   0.20000000   0.20000000
   0.20000000   0.20000000   0.20000000   0.20000000   0.20000000
   0.20000000   0.20000000   0.20000000   0.20000000   0.20000000
   0.20000000   0.20000000   0.20000000   0.20000000   0.20000000
   0.20000000   0.20000000   0.20000000   0.20000000   0.20000000
   0.20000000   0.20000000   0.20000000   0.20000000   0.20000000
   0.20000000   0.20000000   0.20000000   0.20000000   0.20000000
   0.20000000   0.20000000   0.20000000   0.20000000   0.20000000
   0.20000000   0.20000000   0.20000000   0.20000000   0.20000000
   0.20000000   0.20000000   0.20000000   0.20000000   0.20000000
   0.20000000   0.20000000   0.20000000   0.20000000   0.20000000
   0.20000000   0.20000000   0.20000000   0.20000000   0.20000000
   0.20000000   0.20000000   0.20000000   0.20000000   0.20000000
   0.20000000   0.20000000   0.20000000   0.20000000   0.20000000
   0.20000000   0.20000000   0.20000000   0.20000000   0.20000000
   0.20000000   0.20000000   0.20000000   0.20000000   0.20000000
   0.20000000   0.20000000   0.20000000   0.20000000   0.20000000
   0.20000000   0.20000000   0.20000000   0.20000000   0.20000000
   0.20000000   0.20000000   0.20000000   0.20000000   0.20000000
   0.20000000   0.20000000   0.20000000   0.20000000   0.20000000
   0.45561880   0.48436081   0.50000000   0.50000000   0.50000000
   0.50000000   0.50000000   0.50000000   0.50000000   0.50000000
   0.50000000   0.50000000   0.50000000   0.50000000   0.50000000
   0.50000000   0.50000000   0.50000000   0.50000000   0.50000000
   0.50000000   0.50000000   0.50000000   0.50000000   0.50000000
   0.50000000   0.50000000   0.50000000   0.50000000   0.50000000
   0.50000000   0.50000000   0.50000000   0.50000000   0.50000000
   0.50000000   0.50000000   0.50000000   0.50000000   0.50000000
   0.50000000   0.50000000   0.50000000   0.50000000   0.50000000
   0.50000000   0.50000000   0.50000000   0.50000000   0.50000000
   0.50000000   0.50000000   0.50000000   0.50000000   0.50000000
   0.50000000   0.50000000   0.50000000   0.50000000   0.50000000
   0.50000000   0.50000000   0.50000000   0.50000000   0.50000000
   0.50000000   0.50000000   0.50000000   0.50000000   0.50000000
   0.50000000   0.50000000   0.50000000   0.50000000   0.50000000
   0.50000000   0.50000000   0.50000000   0.50000000   0.50000000
   0.50000000   0.87684537

 Minimum Search taking a RFO step
 Searching for Lambda that minimizes along all modes
 Value of Lambda  -0.01701787
 Norm of Stepsize  0.22441901

	Performing Iterative Coordinate Back-Transformation

	  Starting from Previous Position
	  iter:	0	rms: 0.43288148	maxdev: 1.60088601
	  iter:	1	rms: 0.02750487	maxdev: 0.10336568
	  iter:	2	rms: 0.00009399	maxdev: 0.00024521
	  iter:	3	rms: 0.00000086	maxdev: 0.00000330	 Success!

	Finished Iterative Coordinate Back-Transformation
 ----------------------------------------------------------------
             Standard Nuclear Orientation (Angstroms)
    I     Atom           X                Y                Z
 ----------------------------------------------------------------
    1      N       0.2730513542     0.2148197214    -0.1477544157
    2      C       1.2657748573    -0.7955784017     0.3871673886
    3      C      -0.6445338245     0.6397800887     0.9852333538
    4      C      -0.5705126438    -0.4212437234    -1.2286910728
    5      C       1.0013527378     1.3924671176    -0.7729934984
    6      C       2.3784972849    -0.2404630339     1.2577968614
    7      C      -1.7695180135     1.5663380725     0.5619958634
    8      C      -1.4822399047    -1.5472957073    -0.7705719633
    9      C       1.9653723209     1.0021860524    -1.8941509559
   10      C       3.2550369086    -1.3869446672     1.7624299013
   11      C      -2.7224798980     1.7995119330     1.7313358897
   12      C      -2.2224446405    -2.1602453415    -1.9575314492
   13      C       2.7813326509     2.1748955996    -2.4472234426
   14      C       4.4196414251    -0.8787621062     2.6016635451
   15      C      -3.8661558318     2.7313598948     1.3536861726
   16      C      -3.1336580545    -3.3029823502    -1.5285704922
   17      C       3.6740344839     1.7539851347    -3.6077306157
   18      H       1.6796043718    -1.3159030839    -0.4822760359
   19      H       0.6822494114    -1.5224711053     0.9602074656
   20      H      -0.1204167284     1.1430316600     1.8077379068
   21      H      -1.0345442796    -0.2943414099     1.4042245655
   22      H       0.1273533075    -0.7919344669    -1.9837407180
   23      H      -1.1610767788     0.3834157970    -1.6811728204
   24      H       1.5182339312     1.9371359563     0.0232232895
   25      H       0.2257758931     2.0534912314    -1.1719679503
   26      H       1.9733774827     0.3174853988     2.1113996004
   27      H       3.0166159009     0.4662902055     0.7008351073
   28      H      -2.3495408763     1.1407539034    -0.2732811041
   29      H      -1.3689732015     2.5341264390     0.2258765793
   30      H      -2.2373738501    -1.1770537475    -0.0569892417
   31      H      -0.9020629478    -2.3327642453    -0.2655966341
   32      H       1.3948408708     0.5681519244    -2.7269362440
   33      H       2.6668304488     0.2275258610    -1.5502964185
   34      H       3.6383192749    -1.9565264020     0.9011270619
   35      H       2.6466893290    -2.0896147894     2.3530650695
   36      H      -2.1641093605     2.2128919215     2.5863410746
   37      H      -3.1301524829     0.8288140709     2.0607139150
   38      H      -1.4938426582    -2.5183468484    -2.7016498939
   39      H      -2.8186414595    -1.3747948548    -2.4518400519
   40      H       3.4065468810     2.6244183673    -1.6394030774
   41      H       2.0939001146     2.9722727028    -2.7784297648
   42      H       4.0494763624    -0.3336384046     3.4796317797
   43      H       5.0512702274    -0.1903200017     2.0190767127
   44      H       5.0481236346    -1.7073538635     2.9547468716
   45      H      -4.4447967696     2.2990385825     0.5215747394
   46      H      -3.4872994988     3.7130923159     1.0336822072
   47      H      -4.5471798571     2.8892173748     2.2007649549
   48      H      -3.8744745110    -2.9448452450    -0.7963825517
   49      H      -2.5568356654    -4.1141221671    -1.0608184017
   50      H      -3.6745466459    -3.7232721445    -2.3870902110
   51      H       3.0916423574     1.3411889445    -4.4454485198
   52      H       4.3906047480     0.9813567509    -3.2885090194
   53      H       4.2492566741     2.6118425991    -3.9856045543
   54      H       3.7792784403     7.1727975345     6.5854920204
   55      H       2.2612653217     6.2764792406     6.4648649523
   56      C       3.3360118787     6.2320917085     6.2263894808
   57      H       3.8297002300     5.1763730730     8.0400662034
   58      C       3.9963192690     5.0654683195     6.9582735209
   59      H       1.0456537623     6.6676388536     4.0411915119
   60      H       3.3028968361     7.1586655202     4.2738461079
   61      C       3.4916221071     6.1677923332     4.7054975336
   62      H       5.0868440357     5.1299337595     6.8044022214
   63      C       1.4184845407     5.8499156486     3.4062045560
   64      H       2.4542618076     3.5521920445     6.7337004677
   65      C       3.5282330426     3.6781961805     6.5188209182
   66      H      -0.2133329524     4.5917626018     4.0955897045
   67      N       2.5741406283     5.2486436919     4.0543444851
   68      H       4.5290682673     5.9163524016     4.4361336844
   69      C       0.3162969528     4.8321666575     3.1616448182
   70      H       1.7410670664     6.2972995967     2.4487312883
   71      H      -0.4197700651     5.2548494249     2.4637781494
   72      H       4.0543186369     2.9300630489     7.1287357370
   73      C       2.7171713632     3.8900548055     4.1069450153
   74      C       3.7787105749     3.3527710427     5.0372381811
   75      H       4.7708264913     3.7156950922     4.7259543711
   76      C       0.9697041794     3.5766795682     2.6066419346
   77      N       1.9819417378     3.0390453074     3.4757573895
   78      H       3.7797288998     2.2701064904     4.8899871780
   79      H       0.2491359333     2.7809862321     2.3857064179
   80      H       1.4405261521     3.8297823113     1.6305053929
 ----------------------------------------------------------------
 Nuclear Repulsion Energy =        2877.23508976 hartrees
 There are      112 alpha and      112 beta electrons
 Discretize the solute cavity surface with Lebedev spheres
	Using 194 Lebedev grid points for each H atom
	Using 194 Lebedev grid points for other atoms
	Atomic van der Waals radii will be scaled by 1.10
 Remove points where switching function is < 1.0e-08
 Keep 5580 surface tesserae and discard 9940 interior tesserae
 Molecular Surface Area = 602.790 Angst**2
 Nucleus-field energy     =    -0.0000000030 hartrees
 Requested basis set is def2-SVPD
 There are 432 shells and 976 basis functions
 A cutoff of  1.0D-14 yielded  70625 shell pairs
 There are    356819 function pairs (    399526 Cartesian)
 Smallest overlap matrix eigenvalue = 6.62E-06
 Guess MOs from SCF MO coefficient file

 -----------------------------------------------------------------------
  General SCF calculation program by
  Eric Jon Sundstrom, Paul Horn, Yuezhi Mao, Dmitri Zuev, Alec White,
  David Stuck, Shaama M.S., Shane Yost, Joonho Lee, David Small,
  Daniel Levine, Susi Lehtola, Hugh Burton, Evgeny Epifanovsky,
  Bang C. Huynh
 -----------------------------------------------------------------------
 Exchange:     0.2220 Hartree-Fock + 1.0000 wB97X-D + LR-HF
 Correlation:  1.0000 wB97X-D
 Using SG-3 standard quadrature grid
 Dispersion:   Grimme D
 A restricted SCF calculation will be
 performed using Roothaan-Hall, DIIS
 SCF converges when DIIS error is below 1.0e-08
 ---------------------------------------
  Cycle       Energy         DIIS error
 ---------------------------------------
    1   -1146.1483712631      2.98e-03  Roothaan Step
 ---------------------------------------
  Cycle       Energy         DIIS error
 ---------------------------------------
    1   -1146.9021922913      7.04e-04  
    2   -1146.9943930814      4.07e-04  
    3   -1147.0161470240      1.23e-04  
    4   -1147.0202198392      6.53e-05  
    5   -1147.0224335680      3.58e-05  
    6   -1147.0240610739      2.58e-05  
    7   -1147.0260844555      2.16e-05  
    8   -1147.0282630489      1.64e-05  
    9   -1147.0293545214      1.15e-05  
   10   -1147.0298568579      7.70e-06  
   11   -1147.0300992642      5.82e-06  
   12   -1147.0301970630      4.73e-06  
   13   -1147.0302823177      4.13e-06  
   14   -1147.0303615547      3.79e-06  
   15   -1147.0304791214      3.37e-06  
   16   -1147.0306142966      2.82e-06  
   17   -1147.0307282419      2.39e-06  
   18   -1147.0307853675      2.02e-06  
   19   -1147.0308414668      1.66e-06  
   20   -1147.0309016543      1.53e-06  
   21   -1147.0309156582      1.25e-06  
   22   -1147.0309446436      1.75e-06  
   23   -1147.0309594329      1.24e-06  
   24   -1147.0309869969      1.36e-06  
   25   -1147.0309767546      1.69e-06  
   26   -1147.0309743082      1.72e-06  
   27   -1147.0309731951      1.63e-06  
   28   -1147.0309735597      1.59e-06  
   29   -1147.0309787348      1.72e-06  
   30   -1147.0309889902      1.65e-06  
   31   -1147.0309904954      1.61e-06  
   32   -1147.0309902769      1.30e-06  
   33   -1147.0309926001      1.14e-06  
   34   -1147.0309918837      1.06e-06  
   35   -1147.0309905930      1.05e-06  
   36   -1147.0309877642      8.99e-07  
   37   -1147.0309712149      8.99e-07  
   38   -1147.0309540438      8.49e-07  
   39   -1147.0309322472      9.30e-07  
   40   -1147.0309539753      9.81e-07  
   41   -1147.0309705613      1.05e-06  
   42   -1147.0309644821      1.04e-06  
   43   -1147.0309555486      1.11e-06  
   44   -1147.0309604810      1.06e-06  
   45   -1147.0309551955      1.11e-06  
   46   -1147.0309556638      1.10e-06  
   47   -1147.0309598556      1.13e-06  
   48   -1147.0309625096      1.55e-06  
   49   -1147.0309662246      1.63e-06  
   50   -1147.0309653507      1.57e-06  
   51   -1147.0309656528      1.57e-06  
   52   -1147.0309794657      9.83e-07  
   53   -1147.0309783606      9.83e-07  
   54   -1147.0309669639      8.66e-07  
   55   -1147.0309438373      8.37e-07  
   56   -1147.0309521333      8.26e-07  
   57   -1147.0309679254      9.33e-07  
   58   -1147.0309578295      8.90e-07  
   59   -1147.0309514655      9.20e-07  
   60   -1147.0309481347      8.56e-07  
   61   -1147.0309539837      8.99e-07  
   62   -1147.0309791779      8.13e-07  
   63   -1147.0309816015      8.06e-07  
   64   -1147.0309846052      7.90e-07  
   65   -1147.0310151513      1.00e-06  
   66   -1147.0310191332      1.01e-06  
   67   -1147.0310083389      7.63e-07  
   68   -1147.0310427298      1.57e-06  
   69   -1147.0310454981      1.59e-06  
   70   -1147.0310520878      1.28e-06  
   71   -1147.0310508298      1.34e-06  
   72   -1147.0310744186      3.51e-06  
   73   -1147.0310602187      1.13e-06  
   74   -1147.0310701082      9.87e-07  
   75   -1147.0310769207      7.51e-07  
   76   -1147.0311004108      8.15e-07  
   77   -1147.0310999816      4.85e-07  
   78   -1147.0311068931      4.20e-06  
   79   -1147.0311069893      4.19e-06  
   80   -1147.0311126594      2.71e-06  
   81   -1147.0311147653      2.59e-06  
   82   -1147.0311173964      2.43e-06  
   83   -1147.0311185522      2.01e-06  
   84   -1147.0311174546      2.03e-06  
   85   -1147.0311135612      1.70e-06  
   86   -1147.0311091799      1.32e-06  
   87   -1147.0311048213      9.51e-07  
   88   -1147.0310983451      1.05e-06  
   89   -1147.0311061189      1.05e-06  
   90   -1147.0311090138      1.12e-06  
   91   -1147.0311121249      1.22e-06  
   92   -1147.0311160522      1.25e-06  
   93   -1147.0311179181      1.28e-06  
   94   -1147.0311125928      1.31e-06  
   95   -1147.0311143234      1.35e-06  
   96   -1147.0311153495      1.32e-06  
   97   -1147.0311151292      1.27e-06  
   98   -1147.0311159577      1.30e-06  
   99   -1147.0311153571      1.29e-06  
  100   -1147.0311174227      1.22e-06  
gen_scfman_exception: SCF failed to converge

 Q-Chem fatal error occurred in module libgscf/gen_scfman/gen_scfman_main.C, line 243:

 Error in gen_scfman


 Please submit a crash report at q-chem.com/reporter 
 
 
