
Running Job 1 of 1 mol.qin
qchem mol.qin_22574.0 /tmp/qchem22574/ 1
/global/common/edison/software/qchem/5.1/exe/qcprog.exe mol.qin_22574.0 /tmp/qchem22574/
Check license passed

                  Welcome to Q-Chem
     A Quantum Leap Into The Future Of Chemistry


 Q-Chem 5.1, Q-Chem, Inc., Pleasanton, CA (2018)

 Yihan Shao,  Zhengting Gan,  E. Epifanovsky,  A. T. B. Gilbert,  M. Wormit,  
 J. Kussmann,  A. W. Lange,  A. Behn,  Jia Deng,  Xintian Feng,  D. Ghosh,  
 M. Goldey,  P. R. Horn,  L. D. Jacobson,  I. Kaliman,  T. Kus,  A. Landau,  
 Jie Liu,  E. I. Proynov,  R. M. Richard,  R. P. Steele,  E. J. Sundstrom,  
 H. L. Woodcock III,  P. M. Zimmerman,  D. Zuev,  B. Albrecht,  E. Alguire,  
 S. A. Baeppler,  D. Barton,  Z. Benda,  Y. A. Bernard,  E. J. Berquist,  
 K. B. Bravaya,  H. Burton,  D. Casanova,  Chun-Min Chang,  Yunqing Chen,  
 A. Chien,  K. D. Closser,  M. P. Coons,  S. Coriani,  S. Dasgupta,  
 A. L. Dempwolff,  M. Diedenhofen,  Hainam Do,  R. G. Edgar,  Po-Tung Fang,  
 S. Faraji,  S. Fatehi,  Qingguo Feng,  K. D. Fenk,  J. Fosso-Tande,  
 Qinghui Ge,  A. Ghysels,  G. Gidofalvi,  J. Gomes,  J. Gonthier,  A. Gunina,  
 D. Hait,  M. W. D. Hanson-Heine,  P. H. P. Harbach,  A. W. Hauser,  
 J. E. Herr,  E. G. Hohenstein,  Z. C. Holden,  Kerwin Hui,  B. C. Huynh,  
 T.-C. Jagau,  Hyunjun Ji,  B. Kaduk,  K. Khistyaev,  Jaehoon Kim,  
 P. Klunzinger,  K. Koh,  D. Kosenkov,  L. Koulias,  T. Kowalczyk,  
 C. M. Krauter,  A. Kunitsa,  Ka Un Lao,  A. Laurent,  K. V. Lawler,  
 Joonho Lee,  D. Lefrancois,  S. Lehtola,  D. S. Levine,  Yi-Pei Li,  
 You-Sheng Lin,  Fenglai Liu,  E. Livshits,  A. Luenser,  P. Manohar,  
 E. Mansoor,  S. F. Manzer,  Shan-Ping Mao,  Yuezhi Mao,  N. Mardirossian,  
 A. V. Marenich,  T. Markovich,  L. A. Martinez-Martinez,  S. A. Maurer,  
 N. J. Mayhall,  S. C. McKenzie,  J.-M. Mewes,  A. F. Morrison,  
 J. W. Mullinax,  K. Nanda,  T. S. Nguyen-Beck,  R. Olivares-Amaya,  
 J. A. Parkhill,  T. M. Perrine,  F. Plasser,  P. Pokhilko,  S. Prager,  
 A. Prociuk,  E. Ramos,  D. R. Rehn,  F. Rob,  M. Schneider,  N. Sergueev,  
 S. M. Sharada,  S. Sharma,  D. W. Small,  T. Stauch,  T. Stein,  
 Yu-Chuan Su,  A. J. W. Thom,  A. Tkatchenko,  T. Tsuchimochi,  N. M. Tubman,  
 L. Vogt,  M. L. Vidal,  O. Vydrov,  M. A. Watson,  J. Wenzel,  
 M. de Wergifosse,  T. A. Wesolowski,  A. White,  J. Witte,  A. Yamada,  
 Jun Yang,  K. Yao,  S. Yeganeh,  S. R. Yost,  Zhi-Qiang You,  A. Zech,  
 Igor Ying Zhang,  Xing Zhang,  Yan Zhao,  Ying Zhu,  B. R. Brooks,  
 G. K. L. Chan,  C. J. Cramer,  M. S. Gordon,  W. J. Hehre,  A. Klamt,  
 M. W. Schmidt,  C. D. Sherrill,  D. G. Truhlar,  A. Aspuru-Guzik,  R. Baer,  
 A. T. Bell,  N. A. Besley,  Jeng-Da Chai,  R. A. DiStasio Jr.,  A. Dreuw,  
 B. D. Dunietz,  T. R. Furlani,  Chao-Ping Hsu,  Yousung Jung,  Jing Kong,  
 D. S. Lambrecht,  WanZhen Liang,  C. Ochsenfeld,  V. A. Rassolov,  
 L. V. Slipchenko,  J. E. Subotnik,  T. Van Voorhis,  J. M. Herbert,  
 A. I. Krylov,  P. M. W. Gill,  M. Head-Gordon

 Contributors to earlier versions of Q-Chem not listed above: 
 R. D. Adamson,  B. Austin,  J. Baker,  G. J. O. Beran,  K. Brandhorst,  
 S. T. Brown,  E. F. C. Byrd,  A. K. Chakraborty,  C.-L. Cheng,  
 Siu Hung Chien,  D. M. Chipman,  D. L. Crittenden,  H. Dachsel,  
 R. J. Doerksen,  A. D. Dutoi,  L. Fusti-Molnar,  W. A. Goddard III,  
 A. Golubeva-Zadorozhnaya,  S. R. Gwaltney,  G. Hawkins,  A. Heyden,  
 S. Hirata,  G. Kedziora,  F. J. Keil,  C. Kelley,  Jihan Kim,  R. A. King,  
 R. Z. Khaliullin,  P. P. Korambath,  W. Kurlancheek,  A. M. Lee,  M. S. Lee,  
 S. V. Levchenko,  Ching Yeh Lin,  D. Liotard,  R. C. Lochan,  I. Lotan,  
 P. E. Maslen,  N. Nair,  D. P. O'Neill,  D. Neuhauser,  E. Neuscamman,  
 C. M. Oana,  R. Olson,  B. Peters,  R. Peverati,  P. A. Pieniazek,  
 Y. M. Rhee,  J. Ritchie,  M. A. Rohrdanz,  E. Rosta,  N. J. Russ,  
 H. F. Schaefer III,  N. E. Schultz,  N. Shenvi,  A. C. Simmonett,  A. Sodt,  
 D. Stuck,  K. S. Thanthiriwatte,  V. Vanovschi,  Tao Wang,  A. Warshel,  
 C. F. Williams,  Q. Wu,  X. Xu,  W. Zhang

 Please cite Q-Chem as follows:
 Y. Shao et al., Mol. Phys. 113, 184-215 (2015)
 DOI: 10.1080/00268976.2014.952696

 Q-Chem 5.1.0 for Intel X86 EM64T Linux

 Parts of Q-Chem use Armadillo 8.300.2 (Tropical Shenanigans).
 http://arma.sourceforge.net/

 Q-Chem begins on Wed Nov 14 04:17:40 2018  

Host: edison03
0

     Scratch files written to /tmp/qchem22574//
 Jun2518 |scratch|qcdevops|jenkins|workspace|build_RNUM -1
Processing $rem in /global/common/edison/software/qchem/5.1/config/preferences.
 MEM_TOTAL  48000 
Symmetry turned off for PCM/SM12/SMD calculation

Checking the input file for inconsistencies... 	...done.

--------------------------------------------------------------
User input:
--------------------------------------------------------------
$molecule
-1 3
S      0.4987861275     -1.3905800791      0.1234427448
C      0.8240733887      2.1244575519      0.6879182965
N      0.2237168448     -0.2724552361     -1.0632198256
O     -0.2412404766     -1.0540798017      1.3936849354
F      1.0545582817      3.0329022521     -0.2407646530
F     -0.0028681208      2.5928060509      1.6056281686
F      1.9557291767      1.7239900567      1.2392244335
S     -1.0351292269     -0.3342856583     -2.0184923746
C     -2.2772807032      0.8531315333     -1.2764242843
O     -0.7249495108      0.2924469933     -3.2963059567
O     -1.7567854336     -1.6049447602     -2.0396031383
F     -1.7720525260      2.0835246495     -1.1973083481
F     -3.3708765805      0.9006099760     -2.0410174101
F     -2.6382157044      0.4673601427     -0.0557642310
$end

$rem
job_type = freq
basis = 6-311++g*
max_scf_cycles = 200
gen_scfman = true
scf_algorithm = gdm
method = wb97xd
geom_opt_max_cycles = 200
solvent_method = pcm
$end

$pcm
heavypoints 194
hpoints 194
radii uff
theory cpcm
vdwscale 1.1
$end

$solvent
dielectric 7.0
$end
--------------------------------------------------------------
 ----------------------------------------------------------------
             Standard Nuclear Orientation (Angstroms)
    I     Atom           X                Y                Z
 ----------------------------------------------------------------
    1      S       0.4987861275    -1.3905800791     0.1234427448
    2      C       0.8240733887     2.1244575519     0.6879182965
    3      N       0.2237168448    -0.2724552361    -1.0632198256
    4      O      -0.2412404766    -1.0540798017     1.3936849354
    5      F       1.0545582817     3.0329022521    -0.2407646530
    6      F      -0.0028681208     2.5928060509     1.6056281686
    7      F       1.9557291767     1.7239900567     1.2392244335
    8      S      -1.0351292269    -0.3342856583    -2.0184923746
    9      C      -2.2772807032     0.8531315333    -1.2764242843
   10      O      -0.7249495108     0.2924469933    -3.2963059567
   11      O      -1.7567854336    -1.6049447602    -2.0396031383
   12      F      -1.7720525260     2.0835246495    -1.1973083481
   13      F      -3.3708765805     0.9006099760    -2.0410174101
   14      F      -2.6382157044     0.4673601427    -0.0557642310
 ----------------------------------------------------------------
 Nuclear Repulsion Energy =  1363.0548830788 hartrees
 There are       66 alpha and       64 beta electrons
 Requested basis set is 6-311++G(d)
 There are 98 shells and 324 basis functions

 Total QAlloc Memory Limit  48000 MB
 Mega-Array Size       188 MB
 MEM_STATIC part       192 MB
 Discretize the solute cavity surface with Lebedev spheres
	Using 194 Lebedev grid points for each H atom
	Using 194 Lebedev grid points for other atoms
	Atomic van der Waals radii will be scaled by 1.10
 Remove points where switching function is < 1.0e-08
 Keep 1337 surface tesserae and discard 1379 interior tesserae
 Molecular Surface Area = 236.452 Angst**2

                       Distance Matrix (Angstroms)
             S (  1)   C (  2)   N (  3)   O (  4)   F (  5)   F (  6)
   C (  2)  3.574903
   N (  3)  1.653492  3.028548
   O (  4)  1.508107  3.425799  2.619829
   F (  5)  4.473111  1.319412  3.506012  4.588457
   F (  6)  4.279707  1.321126  3.922220  3.660808  2.172787
   F (  7)  3.614996  1.320968  3.505269  3.545167  2.171573  2.173752
   S (  8)  2.838405  4.102037  1.581475  3.576495  4.343393  4.771549
   C (  9)  3.834112  3.885011  2.750889  3.861657  4.114018  4.062714
   O ( 10)  4.003098  4.650782  2.491135  4.903379  4.473598  5.462784
   O ( 11)  3.132463  5.292320  2.579000  3.793125  5.713939  5.829670
   F ( 12)  4.355513  3.208680  3.090585  4.347550  3.131457  3.353481
   F ( 13)  4.990865  5.151941  3.905544  5.041093  5.231831  5.244524
   F ( 14)  3.650320  3.909793  3.122972  3.187659  4.500312  3.771313
             F (  7)   S (  8)   C (  9)   O ( 10)   O ( 11)   F ( 12)
   S (  8)  4.877956
   C (  9)  5.000526  1.871781
   O ( 10)  5.459523  1.456644  2.608452
   O ( 11)  5.967854  1.461440  2.625928  2.498816
   F ( 12)  4.467920  2.657669  1.332435  2.951301  3.783451
   F ( 13)  6.309570  2.642194  1.335219  2.991077  2.980452  2.160410
   F ( 14)  4.935630  2.657974  1.330077  3.767266  3.001164  2.159942
             F ( 13)
   F ( 14)  2.160030
 
 A cutoff of  1.0D-12 yielded   3691 shell pairs
 There are     42811 function pairs (     46254 Cartesian)
 
 -------------------------------------------------------
 OpenMP Integral Computing Module                       
 Release: version 1.0, May 2013, Q-Chem Inc. Pittsburgh 
 -------------------------------------------------------
 Integral Job Info:
 Integral job number is                      11
 Integral operator is                         1
 short-range coefficients              22203600
 long-range coefficients              100000000
 Omega coefficients                         200
 if combine SR and LR in K                    1
 Integral screening is                        0
 Integral computing path is                   2
 max size of driver memory is            800000
 size of driver memory is                593474
 size of scratch memory is              4293864
 max col of scratch BK array               1296
 max len of scratch array in speh3          155
 max len of scratch index in speh4           18
 max int batch size is                      520
 min int batch size is                       52
 fixed nKL is                                52
 max L of basis functions is                  2
 order of int derivative is                   0
 number of shells is                         98
 number of basis is                         338
 number of cartesian basis is               338
 number of contracted shell pairs          3691
 number of primitive shell pairs           9795
 maxK2 (contraction) of shell pair           36
 max number of K2 of shell pair               1
 max number of CS2 of shell pair            737
 max number of PS2 of shell pair           2508
 mem total for path MDJ                  604988
 -------------------------------------------------------
 Smallest overlap matrix eigenvalue = 5.72E-05
 Guess from superposition of atomic densities
 Warning:  Energy on first SCF cycle will be non-variational
 SAD guess density has 129.000000 electrons

 -----------------------------------------------------------------------
  General SCF calculation program by
  Eric Jon Sundstrom, Paul Horn, Yuezhi Mao, Dmitri Zuev, Alec White,
  David Stuck, Shaama M.S., Shane Yost, Joonho Lee, David Small,
  Daniel Levine, Susi Lehtola, Hugh Burton, Evgeny Epifanovsky
 -----------------------------------------------------------------------
 Exchange:     0.2220 Hartree-Fock + 1.0000 wB97X-D + LR-HF
 Correlation:  1.0000 wB97X-D
 Using SG-2 standard quadrature grid
 Dispersion:   Grimme D
 using 24 threads for integral computing
 -------------------------------------------------------
 OpenMP Integral computing Module                
 Release: version 1.0, May 2013, Q-Chem Inc. Pittsburgh 
 -------------------------------------------------------
 using 24 threads for integral computing
 -------------------------------------------------------
 OpenMP Integral computing Module                
 Release: version 1.0, May 2013, Q-Chem Inc. Pittsburgh 
 -------------------------------------------------------
 -------------------------------------------------------
 OpenMP BLAS3 based DFT computing Module                
 Release: version 1.0, May 2013, Q-Chem Inc. Pittsburgh 
 -------------------------------------------------------
 A unrestricted SCF calculation will be
 performed using Roothaan-Hall, GDM
 SCF converges when RMS gradient is below 1.0e-08
 ---------------------------------------
  Cycle       Energy         DIIS error
 ---------------------------------------
    1   -1754.6418650998      1.77e-02  Roothaan Step
 ---------------------------------------
  Cycle       Energy        RMS Gradient
 ---------------------------------------
    1   -1751.4734202736      2.24e-01   Descent step
    2   -1751.8641516782      6.88e-02   Descent step
    3   -1752.0007132343      2.06e-02   Normal BFGS step
    4   -1752.0144129981      1.73e-02   Normal BFGS step
    5   -1752.0157629714      9.39e-03   Normal BFGS step
    6   -1752.0169998402      3.51e-03   Normal BFGS step
    7   -1752.0170977985      2.09e-03   Normal BFGS step
    8   -1752.0171343210      1.33e-03   Normal BFGS step
    9   -1752.0171448442      5.00e-04   Normal BFGS step
   10   -1752.0171477490      2.64e-04   Normal BFGS step
   11   -1752.0171481966      9.43e-05   Normal BFGS step
   12   -1752.0171484278      4.39e-05   Normal BFGS step
   13   -1752.0171484482      2.71e-05   Normal BFGS step
   14   -1752.0171484534      1.54e-05   Normal BFGS step
   15   -1752.0171484549      6.97e-06   Normal BFGS step
   16   -1752.0171484556      5.28e-06   Normal BFGS step
   17   -1752.0171484557      2.23e-06   Normal BFGS step
   18   -1752.0171484558      5.72e-07   Normal BFGS step
   19   -1752.0171484558      2.57e-07   Normal BFGS step
   20   -1752.0171484558      9.42e-08   Normal BFGS step
   21   -1752.0171484558      6.67e-08   Normal BFGS step
   22   -1752.0171484558      2.92e-08   Normal BFGS step
   23   -1752.0171484558      1.47e-08   Normal BFGS step
   24   -1752.0171484558      8.40e-09  Convergence criterion met
 ---------------------------------------
 SCF time:   CPU 1593.34s  wall 103.00s 
<S^2> =          2.006768738

************** Final PCM Free Energy Summary **************
 G_electrostatic  =      -0.06615095 hartree =     -41.51034815 kcal/mol
 G_cavitation     =       0.00000000 hartree =       0.00000000 kcal/mol
 G_dispersion     =       0.00000000 hartree =       0.00000000 kcal/mol
 G_repulsion      =       0.00000000 hartree =       0.00000000 kcal/mol
 --------------------------------------------------
 Non-electrostatic Free Energy =       0.00000000 hartree =       0.00000000 kcal/mol
 Total                         =      -0.06615095 hartree =     -41.51034815 kcal/mol
 --------------------------------------------------
 SCF Energy (H0 + V/2)                       =   -1752.01714846 
 Solute Internal Energy (H0)                 =   -1751.95099750 
 Total Free Energy (H0 + V/2 + non-elec)     =   -1752.01714846 hartree
                                             = -1099407.35401041 kcal/mol
***********************************************************

 SCF   energy in the final basis set =    -1752.0171484558
 Total energy in the final basis set =    -1752.0171484558
 
 --------------------------------------------------------------
 
                    Orbital Energies (a.u.)
 --------------------------------------------------------------
 
 Alpha MOs
 -- Occupied --
-89.220 -89.096 -24.854 -24.854 -24.853 -24.847 -24.846 -24.846
-19.238 -19.231 -19.229 -14.417 -10.543 -10.529  -8.240  -8.132
 -6.189  -6.188  -6.188  -6.082  -6.079  -6.076  -1.439  -1.436
 -1.352  -1.352  -1.344  -1.343  -1.217  -1.134  -1.101  -0.993
 -0.839  -0.806  -0.785  -0.720  -0.701  -0.701  -0.696  -0.696
 -0.666  -0.623  -0.579  -0.575  -0.574  -0.572  -0.565  -0.550
 -0.545  -0.540  -0.539  -0.531  -0.529  -0.514  -0.508  -0.503
 -0.495  -0.454  -0.420  -0.401  -0.390  -0.375  -0.360  -0.346
 -0.330  -0.274
 -- Virtual --
  0.083   0.092   0.094   0.099   0.110   0.119   0.126   0.129
  0.131   0.138   0.149   0.153   0.162   0.162   0.168   0.180
  0.184   0.189   0.203   0.212   0.224   0.227   0.255   0.259
  0.262   0.270   0.278   0.298   0.302   0.303   0.307   0.313
  0.317   0.326   0.329   0.333   0.342   0.351   0.355   0.359
  0.372   0.379   0.380   0.387   0.391   0.398   0.405   0.407
  0.411   0.417   0.424   0.427   0.436   0.438   0.446   0.452
  0.456   0.465   0.472   0.478   0.481   0.486   0.491   0.499
  0.516   0.526   0.535   0.554   0.567   0.582   0.591   0.605
  0.622   0.656   0.663   0.680   0.758   0.761   0.792   0.810
  0.828   0.836   0.850   0.875   0.907   0.915   0.933   0.994
  1.046   1.070   1.090   1.106   1.128   1.141   1.159   1.179
  1.190   1.214   1.215   1.231   1.240   1.242   1.253   1.270
  1.275   1.283   1.298   1.309   1.327   1.339   1.401   1.433
  1.437   1.440   1.484   1.492   1.501   1.512   1.520   1.521
  1.530   1.545   1.558   1.572   1.580   1.594   1.596   1.613
  1.622   1.659   1.710   1.742   1.755   1.790   1.820   1.845
  1.895   1.912   1.931   1.950   1.952   1.972   1.989   2.003
  2.046   2.061   2.077   2.119   2.192   2.229   2.275   2.296
  2.315   2.633   2.739   2.852   2.868   2.917   2.919   2.927
  2.934   2.952   2.964   3.012   3.022   3.035   3.044   3.049
  3.060   3.071   3.137   3.210   3.254   3.543   3.578   3.707
  3.789   3.797   3.824   3.825   3.826   3.834   3.838   3.840
  3.847   3.848   3.850   3.865   3.867   3.894   3.950   3.960
  3.962   3.967   4.076   4.120   4.184   4.216   4.279   4.285
  4.292   4.308   4.311   4.438   4.473   5.002   5.007   5.026
  5.029   5.103   5.153   5.166   5.176   5.196   5.214   5.230
  5.274   5.436   6.381   6.397   6.401   6.416   6.431   6.446
  6.449   6.454   6.457   6.497   6.501   6.504   6.532   6.544
  6.875   6.876   6.888   6.896   8.136   8.283  17.408  17.500
 17.519  17.541  17.593  17.655  23.614  23.621  35.567  50.022
 50.025  50.063  66.874  66.883  66.910  66.911  66.936  66.959
189.385 189.502
 
 Beta MOs
 -- Occupied --
-89.220 -89.093 -24.851 -24.851 -24.850 -24.847 -24.846 -24.846
-19.231 -19.229 -19.229 -14.415 -10.543 -10.514  -8.240  -8.129
 -6.188  -6.188  -6.187  -6.080  -6.074  -6.068  -1.436  -1.429
 -1.344  -1.343  -1.343  -1.343  -1.216  -1.114  -1.100  -0.986
 -0.836  -0.789  -0.773  -0.715  -0.697  -0.695  -0.690  -0.690
 -0.629  -0.615  -0.574  -0.572  -0.565  -0.565  -0.561  -0.546
 -0.544  -0.533  -0.531  -0.529  -0.527  -0.511  -0.508  -0.484
 -0.469  -0.436  -0.408  -0.396  -0.386  -0.361  -0.341  -0.335
 -- Virtual --
 -0.020   0.000   0.086   0.094   0.096   0.104   0.114   0.122
  0.128   0.133   0.134   0.140   0.152   0.156   0.163   0.164
  0.170   0.182   0.186   0.194   0.205   0.215   0.227   0.233
  0.260   0.266   0.276   0.282   0.290   0.303   0.304   0.307
  0.312   0.317   0.321   0.330   0.331   0.336   0.345   0.353
  0.358   0.361   0.374   0.381   0.382   0.389   0.393   0.401
  0.407   0.408   0.413   0.418   0.427   0.429   0.439   0.440
  0.448   0.454   0.458   0.467   0.474   0.480   0.484   0.490
  0.494   0.500   0.518   0.527   0.537   0.555   0.568   0.583
  0.594   0.606   0.625   0.658   0.666   0.682   0.764   0.773
  0.800   0.824   0.837   0.849   0.864   0.888   0.911   0.916
  0.942   0.999   1.052   1.076   1.096   1.110   1.133   1.150
  1.162   1.183   1.200   1.221   1.226   1.236   1.246   1.252
  1.263   1.277   1.280   1.285   1.304   1.313   1.329   1.342
  1.406   1.437   1.443   1.446   1.485   1.494   1.503   1.516
  1.523   1.525   1.535   1.550   1.559   1.573   1.591   1.597
  1.603   1.621   1.646   1.685   1.716   1.752   1.758   1.811
  1.821   1.851   1.901   1.928   1.933   1.953   1.975   1.986
  1.993   2.006   2.048   2.063   2.079   2.120   2.198   2.234
  2.276   2.299   2.320   2.639   2.741   2.867   2.907   2.920
  2.932   2.948   2.954   2.960   2.971   3.021   3.043   3.046
  3.051   3.059   3.070   3.080   3.138   3.210   3.255   3.556
  3.581   3.707   3.792   3.797   3.829   3.831   3.831   3.834
  3.838   3.840   3.853   3.854   3.856   3.865   3.868   3.894
  3.950   3.967   3.972   3.974   4.078   4.127   4.194   4.216
  4.280   4.285   4.293   4.316   4.319   4.449   4.473   5.009
  5.015   5.026   5.029   5.135   5.153   5.176   5.185   5.200
  5.217   5.238   5.275   5.437   6.388   6.398   6.405   6.417
  6.439   6.449   6.454   6.458   6.461   6.497   6.501   6.505
  6.533   6.544   6.876   6.877   6.894   6.900   8.139   8.284
 17.420  17.503  17.520  17.543  17.594  17.655  23.619  23.642
 35.569  50.025  50.031  50.064  66.876  66.885  66.911  66.911
 66.938  66.960 189.388 189.502
 --------------------------------------------------------------
 
          Ground-State Mulliken Net Atomic Charges

     Atom                 Charge (a.u.)    Spin (a.u.)
  --------------------------------------------------------
      1 S                     0.365636       0.594945
      2 C                     0.196987       0.866840
      3 N                    -0.422807       0.109855
      4 O                    -0.428525       0.339386
      5 F                    -0.074800       0.036656
      6 F                    -0.063933       0.037507
      7 F                    -0.082670       0.037036
      8 S                     0.246796      -0.051188
      9 C                    -0.033805       0.014424
     10 O                    -0.242302      -0.002130
     11 O                    -0.275581       0.016130
     12 F                    -0.053274       0.000432
     13 F                    -0.076824      -0.000202
     14 F                    -0.054897       0.000309
  --------------------------------------------------------
  Sum of atomic charges =    -1.000000
  Sum of spin   charges =     2.000000

 -----------------------------------------------------------------
                    Cartesian Multipole Moments
 -----------------------------------------------------------------
    Charge (ESU x 10^10)
                -4.8032
    Dipole Moment (Debye)
         X       3.8967      Y       1.2632      Z       5.5262
       Tot       6.8788
    Quadrupole Moments (Debye-Ang)
        XX    -100.8765     XY      -5.4411     YY     -99.9304
        XZ      -7.0318     YZ       0.1820     ZZ    -121.9031
    Octopole Moments (Debye-Ang^2)
       XXX     181.4065    XXY     -27.9571    XYY      66.9177
       YYY    -101.2959    XXZ      77.6070    XYZ       7.3526
       YYZ      71.7124    XZZ      80.3126    YZZ     -29.9050
       ZZZ     255.4819
    Hexadecapole Moments (Debye-Ang^3)
      XXXX   -1377.1724   XXXY     -25.5958   XXYY    -453.3750
      XYYY     -28.4945   YYYY   -1318.0198   XXXZ    -453.3535
      XXYZ     -35.2744   XYYZ    -154.6393   YYYZ     -74.3518
      XXZZ    -498.6337   XYZZ     -19.7608   YYZZ    -482.1737
      XZZZ    -478.8651   YZZZ     -51.3577   ZZZZ   -1689.6938
 -----------------------------------------------------------------
 Calculating MO derivatives via CPSCF
 Computing fast CPCM-SWIG hessian.
 D1JvT checksum  = 1998528 88315.8565713906
 D1KAT checksum  = 4983552 5060.4018343128
 D1JvT checksum  = 1998528 61593.7761538040
 D1KAT checksum  = 4983552 2287.3720111706
   1         3          42      0.142143    0.023661
   2         3          42      0.039383    0.007120
   3         3          42      0.008970    0.002601
   4         3          42      0.002409    0.000914
   5         3          42      0.000501    0.000180
   6        30          15      0.000085    0.000036
   7        42           3      0.000012    0.000008
   8        44           1      0.000001    0.000001
   9        45           0      0.000000    0.000000    Roots Converged
 Time for AOints: 411.1 s (CPU) 45.3 s (wall)
 ------------------------------------------------------------------------------
                     AOints        : Timing summary (seconds)
 ------------------------------------------------------------------------------
     job step          cpu (% of tot)      sys (% of tot)     wall (% of tot)
 ------------------------------------------------------------------------------
  cpscf_lag         0.2793E+04 (35.1)   0.1478E-01 (57.3)   0.7738E+03 (33.1)
  iterzp            0.4750E+04 (59.7)   0.9692E-02 (37.6)   0.1519E+04 (64.9)
  make_fx           0.0000E+00 ( 0.0)   0.0000E+00 ( 0.0)   0.0000E+00 ( 0.0)
  AOints            0.4111E+03 ( 5.2)   0.1296E-02 ( 5.0)   0.4528E+02 ( 1.9)
 ------------------------------------------------------------------------------
   Grand Totals     0.7956E+04          0.2579E-01          0.2339E+04
 ------------------------------------------------------------------------------
 Calculating analytic Hessian of the SCF energy
 Polarizability Matrix (a.u.)
            1           2           3
    1-103.2407633   4.8597933  -5.9676074
    2   4.8597933-102.6486060   9.6676926
    3  -5.9676074   9.6676926-130.0684261
atom: 0 element: 16
atom: 1 element: 6
atom: 2 element: 7
atom: 3 element: 8
atom: 4 element: 9
atom: 5 element: 9
atom: 6 element: 9
atom: 7 element: 16
atom: 8 element: 6
atom: 9 element: 8
atom: 10 element: 8
atom: 11 element: 9
atom: 12 element: 9
atom: 13 element: 9
 
 Direct stationary perturbation theory relativistic correction:
 
 rels  =       1.625095693690
 relv  =      -6.693573908778
 rel2e =       0.000000000000
 E_rel =      -5.068478215088
 
 Computing fast CPCM-SWIG hessian
 Hessian of the SCF Energy
            1           2           3           4           5           6
    1   0.1207290  -0.1363179  -0.1447321   0.0001797   0.0003629   0.0001384
    2  -0.1363179   0.1377374  -0.0235679  -0.0021198  -0.0051256  -0.0035149
    3  -0.1447321  -0.0235679   0.4016710   0.0013141   0.0010477   0.0043375
    4   0.0001797  -0.0021198   0.0013141   0.3650069  -0.0625815  -0.0355260
    5   0.0003629  -0.0051256   0.0010477  -0.0625815   0.2843638  -0.0660502
    6   0.0001384  -0.0035149   0.0043375  -0.0355260  -0.0660502   0.3634673
    7  -0.0139035   0.0502260  -0.0257404  -0.0004427   0.0042182   0.0017850
    8   0.0372766  -0.1110494   0.1017764   0.0041312   0.0037763   0.0057665
    9  -0.0204432   0.1025989  -0.0852915   0.0022968   0.0059126   0.0002600
   10  -0.0891194   0.0766473   0.1912077   0.0003963   0.0012635   0.0006522
   11   0.0796988  -0.0146756  -0.0903446   0.0016451   0.0028674  -0.0007076
   12   0.1882827  -0.0868369  -0.2871340  -0.0009597  -0.0011069  -0.0023716
   13  -0.0001279   0.0008781  -0.0001111  -0.0343030  -0.0487119   0.0398009
   14  -0.0002730   0.0018848  -0.0000187  -0.0468969  -0.1811497   0.1340707
   15   0.0000012  -0.0003312  -0.0009942   0.0350989   0.1235080  -0.1258545
   16  -0.0001693  -0.0004213   0.0004365  -0.1002305   0.0602895   0.1020584
   17   0.0002393   0.0015650  -0.0007524   0.0680372  -0.0747822  -0.0896968
   18   0.0001905   0.0018373  -0.0014659   0.1087762  -0.0854255  -0.1611112
   19  -0.0003542   0.0008835  -0.0016012  -0.2308520   0.0489458  -0.1080823
   20  -0.0003195   0.0000407  -0.0000570   0.0379161  -0.0313494   0.0195531
   21  -0.0001919   0.0006857  -0.0015737  -0.1109345   0.0255177  -0.0770704
   22  -0.0195153   0.0238820  -0.0425940  -0.0005400  -0.0075007  -0.0040114
   23   0.0190360  -0.0112752   0.0057076  -0.0010375   0.0021667  -0.0012462
   24  -0.0233156   0.0204293  -0.0489041  -0.0032807  -0.0081465  -0.0043976
   25  -0.0015374   0.0060140  -0.0049947  -0.0027081  -0.0014085  -0.0027351
   26   0.0012939  -0.0035664   0.0069587  -0.0033220   0.0020557  -0.0026271
   27  -0.0054421  -0.0026461   0.0127192  -0.0011003   0.0006250   0.0006250
   28   0.0021730  -0.0046300   0.0022774  -0.0004275   0.0010602   0.0008475
   29  -0.0021490   0.0073561  -0.0029481   0.0002361  -0.0009629   0.0007988
   30  -0.0015869  -0.0057390   0.0083952   0.0017926   0.0031901   0.0015489
   31   0.0022617  -0.0083736   0.0149589   0.0006240   0.0026943   0.0013911
   32   0.0023675  -0.0072506   0.0084028   0.0007382   0.0008249   0.0009247
   33   0.0036853  -0.0035018   0.0043099   0.0002912   0.0012549   0.0006803
   34   0.0001558  -0.0011007   0.0013772   0.0015817  -0.0003926   0.0016423
   35  -0.0008976   0.0024477  -0.0030911   0.0023792  -0.0014903   0.0021452
   36   0.0002919   0.0003326  -0.0014464   0.0013758  -0.0003184   0.0005527
   37  -0.0007488  -0.0043463   0.0071814   0.0012622   0.0012358   0.0013935
   38   0.0005569   0.0016988  -0.0032504   0.0003275  -0.0008505   0.0001712
   39   0.0004538  -0.0003946   0.0001220   0.0007333   0.0001067   0.0003501
   40  -0.0000235  -0.0012213   0.0010204   0.0004530   0.0005249   0.0006456
   41  -0.0008751   0.0002124   0.0001368   0.0005472  -0.0003443   0.0004128
   42   0.0026679   0.0006485  -0.0047450   0.0001224  -0.0001153  -0.0010164
            7           8           9          10          11          12
    1  -0.0139035   0.0372766  -0.0204432  -0.0891194   0.0796988   0.1882827
    2   0.0502260  -0.1110494   0.1025989   0.0766473  -0.0146756  -0.0868369
    3  -0.0257404   0.1017764  -0.0852915   0.1912077  -0.0903446  -0.2871340
    4  -0.0004427   0.0041312   0.0022968   0.0003963   0.0016451  -0.0009597
    5   0.0042182   0.0037763   0.0059126   0.0012635   0.0028674  -0.0011069
    6   0.0017850   0.0057665   0.0002600   0.0006522  -0.0007076  -0.0023716
    7   0.2353039  -0.0194287   0.1907440   0.0121094  -0.0148284  -0.0105418
    8  -0.0194287   0.1489563  -0.1195830  -0.0129511   0.0116657   0.0055026
    9   0.1907440  -0.1195830   0.3015316   0.0010860   0.0129310  -0.0358205
   10   0.0121094  -0.0129511   0.0010860   0.0779061  -0.0608239  -0.1937590
   11  -0.0148284   0.0116657   0.0129310  -0.0608239  -0.0002351   0.0789641
   12  -0.0105418   0.0055026  -0.0358205  -0.1937590   0.0789641   0.3187685
   13  -0.0003674  -0.0010026  -0.0013160  -0.0001201  -0.0006887   0.0001278
   14  -0.0015720  -0.0016731  -0.0033602  -0.0005226  -0.0017822   0.0002760
   15   0.0000934  -0.0008286   0.0016402   0.0001076   0.0009185   0.0002874
   16   0.0002926   0.0007726   0.0005211   0.0004523   0.0001538  -0.0004715
   17  -0.0016219  -0.0024216  -0.0017718  -0.0003999  -0.0004478   0.0002353
   18  -0.0015148  -0.0026250  -0.0018246  -0.0007232  -0.0004166   0.0010379
   19   0.0001379  -0.0037038  -0.0015291  -0.0003177  -0.0009257   0.0009768
   20  -0.0008098  -0.0004337  -0.0007595  -0.0002839  -0.0003169  -0.0002923
   21  -0.0001452  -0.0021455  -0.0007020  -0.0001621  -0.0001720   0.0011655
   22  -0.2013005  -0.0130564  -0.1381974  -0.0063105  -0.0048639   0.0278882
   23  -0.0068992  -0.0479801   0.0042523  -0.0043531   0.0028963   0.0054916
   24  -0.1246788  -0.0045878  -0.1413021  -0.0036383  -0.0005195   0.0125567
   25   0.0181654  -0.0042684   0.0082019  -0.0014562  -0.0007330   0.0027296
   26  -0.0207791   0.0148802  -0.0129716   0.0001968   0.0004498  -0.0036536
   27  -0.0215885   0.0130721  -0.0064398   0.0048095  -0.0025463  -0.0028709
   28  -0.0036815   0.0098027  -0.0224152   0.0013784   0.0007224  -0.0053012
   29  -0.0037966  -0.0066994   0.0023499   0.0000951  -0.0007940   0.0029315
   30  -0.0022909   0.0161846  -0.0273612   0.0025981  -0.0002480  -0.0084848
   31  -0.0284386  -0.0127407  -0.0106253   0.0017623   0.0006231  -0.0049781
   32  -0.0015227  -0.0038671   0.0031112   0.0014238  -0.0001127  -0.0042374
   33  -0.0151582  -0.0082281  -0.0150887   0.0014217   0.0005465  -0.0002374
   34  -0.0002010   0.0014124   0.0004051   0.0005180  -0.0001805  -0.0002086
   35   0.0080697  -0.0003666   0.0032355  -0.0000792  -0.0001494   0.0016177
   36   0.0039938  -0.0001302   0.0015428  -0.0003972   0.0000104   0.0006597
   37  -0.0153835   0.0106081  -0.0069215   0.0012479   0.0002135  -0.0030953
   38   0.0070070  -0.0042775   0.0037782  -0.0006714   0.0000713   0.0012296
   39  -0.0017969   0.0012048   0.0002793  -0.0006555   0.0004742  -0.0004404
   40  -0.0022905   0.0031482  -0.0018071   0.0015530  -0.0000125  -0.0006898
   41   0.0017376  -0.0005101   0.0002766   0.0004587   0.0005633  -0.0001214
   42   0.0068394  -0.0053787   0.0085765  -0.0025474   0.0011098   0.0028836
           13          14          15          16          17          18
    1  -0.0001279  -0.0002730   0.0000012  -0.0001693   0.0002393   0.0001905
    2   0.0008781   0.0018848  -0.0003312  -0.0004213   0.0015650   0.0018373
    3  -0.0001111  -0.0000187  -0.0009942   0.0004365  -0.0007524  -0.0014659
    4  -0.0343030  -0.0468969   0.0350989  -0.1002305   0.0680372   0.1087762
    5  -0.0487119  -0.1811497   0.1235080   0.0602895  -0.0747822  -0.0854255
    6   0.0398009   0.1340707  -0.1258545   0.1020584  -0.0896968  -0.1611112
    7  -0.0003674  -0.0015720   0.0000934   0.0002926  -0.0016219  -0.0015148
    8  -0.0010026  -0.0016731  -0.0008286   0.0007726  -0.0024216  -0.0026250
    9  -0.0013160  -0.0033602   0.0016402   0.0005211  -0.0017718  -0.0018246
   10  -0.0001201  -0.0005226   0.0001076   0.0004523  -0.0003999  -0.0007232
   11  -0.0006887  -0.0017822   0.0009185   0.0001538  -0.0004478  -0.0004166
   12   0.0001278   0.0002760   0.0002874  -0.0004715   0.0002353   0.0010379
   13   0.0351251   0.0263504  -0.0477666  -0.0122360  -0.0131971   0.0360510
   14   0.0263504   0.1694024  -0.1846219  -0.0115131   0.0304017   0.0174282
   15  -0.0477666  -0.1846219   0.2142732   0.0385657   0.0216065  -0.0564802
   16  -0.0122360  -0.0115131   0.0385657   0.1739329  -0.0871716  -0.1632056
   17  -0.0131971   0.0304017   0.0216065  -0.0871716   0.0490585   0.0683261
   18   0.0360510   0.0174282  -0.0564802  -0.1632056   0.0683261   0.1921033
   19   0.0117308   0.0330066  -0.0258264  -0.0620146   0.0333835   0.0198619
   20   0.0366751  -0.0165658   0.0393879   0.0377868  -0.0028051   0.0018776
   21  -0.0270998   0.0352092  -0.0334545   0.0224718   0.0013900   0.0271943
   22   0.0010484   0.0029387  -0.0002057  -0.0010972   0.0024011   0.0023735
   23  -0.0001318  -0.0011467   0.0008520   0.0001840  -0.0004523  -0.0002345
   24   0.0014382   0.0033156  -0.0001163  -0.0004298   0.0022915   0.0021948
   25   0.0004644   0.0004879   0.0006248   0.0001801   0.0005579   0.0007980
   26   0.0006324  -0.0011914   0.0013363   0.0005751  -0.0004672  -0.0000783
   27   0.0000634   0.0000902  -0.0004216   0.0006328  -0.0005811  -0.0008933
   28  -0.0000007  -0.0003110   0.0000172   0.0002178  -0.0002646  -0.0002955
   29   0.0000748   0.0004482  -0.0002997  -0.0000259   0.0002420   0.0000812
   30  -0.0006039  -0.0014239   0.0004404   0.0001713  -0.0007890  -0.0008275
   31  -0.0004243  -0.0012205   0.0001907   0.0004260  -0.0010508  -0.0011522
   32  -0.0002745  -0.0004248  -0.0000251   0.0001316  -0.0004223  -0.0005808
   33  -0.0002186  -0.0005480   0.0001398   0.0001384  -0.0004096  -0.0004204
   34  -0.0003762   0.0000848  -0.0006953   0.0001145  -0.0002000  -0.0002655
   35  -0.0005172   0.0012530  -0.0011250  -0.0005050   0.0003529  -0.0001579
   36  -0.0002429  -0.0001732   0.0002999  -0.0004183   0.0000306   0.0000684
   37  -0.0004299  -0.0004904  -0.0001487   0.0000085  -0.0004461  -0.0005373
   38  -0.0000730   0.0003333  -0.0002159  -0.0001088   0.0002018   0.0000959
   39  -0.0002101  -0.0001118  -0.0000569  -0.0001329  -0.0000615  -0.0000862
   40   0.0000169  -0.0000689  -0.0000570   0.0001230  -0.0002671  -0.0003570
   41  -0.0000141   0.0002102  -0.0001618  -0.0001475  -0.0000232  -0.0001277
   42   0.0000876  -0.0001323   0.0002973  -0.0003379   0.0001822   0.0005105
           19          20          21          22          23          24
    1  -0.0003542  -0.0003195  -0.0001919  -0.0195153   0.0190360  -0.0233156
    2   0.0008835   0.0000407   0.0006857   0.0238820  -0.0112752   0.0204293
    3  -0.0016012  -0.0000570  -0.0015737  -0.0425940   0.0057076  -0.0489041
    4  -0.2308520   0.0379161  -0.1109345  -0.0005400  -0.0010375  -0.0032807
    5   0.0489458  -0.0313494   0.0255177  -0.0075007   0.0021667  -0.0081465
    6  -0.1080823   0.0195531  -0.0770704  -0.0040114  -0.0012462  -0.0043976
    7   0.0001379  -0.0008098  -0.0001452  -0.2013005  -0.0068992  -0.1246788
    8  -0.0037038  -0.0004337  -0.0021455  -0.0130564  -0.0479801  -0.0045878
    9  -0.0015291  -0.0007595  -0.0007020  -0.1381974   0.0042523  -0.1413021
   10  -0.0003177  -0.0002839  -0.0001621  -0.0063105  -0.0043531  -0.0036383
   11  -0.0009257  -0.0003169  -0.0001720  -0.0048639   0.0028963  -0.0005195
   12   0.0009768  -0.0002923   0.0011655   0.0278882   0.0054916   0.0125567
   13   0.0117308   0.0366751  -0.0270998   0.0010484  -0.0001318   0.0014382
   14   0.0330066  -0.0165658   0.0352092   0.0029387  -0.0011467   0.0033156
   15  -0.0258264   0.0393879  -0.0334545  -0.0002057   0.0008520  -0.0001163
   16  -0.0620146   0.0377868   0.0224718  -0.0010972   0.0001840  -0.0004298
   17   0.0333835  -0.0028051   0.0013900   0.0024011  -0.0004523   0.0022915
   18   0.0198619   0.0018776   0.0271943   0.0023735  -0.0002345   0.0021948
   19   0.2815524  -0.1117028   0.1158671   0.0010970   0.0007215   0.0018462
   20  -0.1117028   0.0514778  -0.0604085   0.0013189  -0.0002579   0.0013364
   21   0.1158671  -0.0604085   0.0840804   0.0010324   0.0003107   0.0012910
   22   0.0010970   0.0013189   0.0010324   0.4922028   0.2210261  -0.0045268
   23   0.0007215  -0.0002579   0.0003107   0.2210261   0.7034623  -0.1858375
   24   0.0018462   0.0013364   0.0012910  -0.0045268  -0.1858375   0.6860945
   25   0.0016864   0.0002472   0.0011568  -0.1111454   0.0850070   0.0549560
   26   0.0015638  -0.0004478   0.0009320   0.0856666  -0.1029419  -0.0521258
   27   0.0006054  -0.0001415   0.0001779   0.0522568  -0.0500188  -0.0545214
   28  -0.0000062  -0.0000961  -0.0000811  -0.0332075  -0.0470066   0.1175134
   29  -0.0000217   0.0002098   0.0000123  -0.0502125  -0.1128952   0.2149252
   30  -0.0009372  -0.0003329  -0.0005794   0.1296418   0.2168490  -0.4428579
   31  -0.0007056  -0.0004786  -0.0005805  -0.1259849  -0.2367686   0.0005786
   32  -0.0007368  -0.0000975  -0.0005022  -0.2295898  -0.4286124  -0.0080257
   33  -0.0003163  -0.0002301  -0.0002132  -0.0032072  -0.0143932   0.0088396
   34  -0.0009889  -0.0000063  -0.0006403   0.0056990   0.0045018  -0.0002948
   35  -0.0009683   0.0003286  -0.0005846  -0.0343552  -0.0119839   0.0104031
   36  -0.0005905   0.0000430  -0.0002671  -0.0090352  -0.0041058   0.0022261
   37  -0.0007181  -0.0002112  -0.0004843  -0.0075561  -0.0156322  -0.0274910
   38  -0.0001525   0.0001218  -0.0000791   0.0042150   0.0039665   0.0115359
   39  -0.0003774  -0.0000196  -0.0002066   0.0016274  -0.0038958  -0.0059259
   40  -0.0002470  -0.0000359  -0.0002083   0.0066100  -0.0186475   0.0113233
   41  -0.0002933   0.0000954  -0.0001657  -0.0018699   0.0050538  -0.0049941
   42   0.0001032   0.0000436   0.0001579  -0.0130422   0.0262686  -0.0151776
           25          26          27          28          29          30
    1  -0.0015374   0.0012939  -0.0054421   0.0021730  -0.0021490  -0.0015869
    2   0.0060140  -0.0035664  -0.0026461  -0.0046300   0.0073561  -0.0057390
    3  -0.0049947   0.0069587   0.0127192   0.0022774  -0.0029481   0.0083952
    4  -0.0027081  -0.0033220  -0.0011003  -0.0004275   0.0002361   0.0017926
    5  -0.0014085   0.0020557   0.0006250   0.0010602  -0.0009629   0.0031901
    6  -0.0027351  -0.0026271   0.0006250   0.0008475   0.0007988   0.0015489
    7   0.0181654  -0.0207791  -0.0215885  -0.0036815  -0.0037966  -0.0022909
    8  -0.0042684   0.0148802   0.0130721   0.0098027  -0.0066994   0.0161846
    9   0.0082019  -0.0129716  -0.0064398  -0.0224152   0.0023499  -0.0273612
   10  -0.0014562   0.0001968   0.0048095   0.0013784   0.0000951   0.0025981
   11  -0.0007330   0.0004498  -0.0025463   0.0007224  -0.0007940  -0.0002480
   12   0.0027296  -0.0036536  -0.0028709  -0.0053012   0.0029315  -0.0084848
   13   0.0004644   0.0006324   0.0000634  -0.0000007   0.0000748  -0.0006039
   14   0.0004879  -0.0011914   0.0000902  -0.0003110   0.0004482  -0.0014239
   15   0.0006248   0.0013363  -0.0004216   0.0000172  -0.0002997   0.0004404
   16   0.0001801   0.0005751   0.0006328   0.0002178  -0.0000259   0.0001713
   17   0.0005579  -0.0004672  -0.0005811  -0.0002646   0.0002420  -0.0007890
   18   0.0007980  -0.0000783  -0.0008933  -0.0002955   0.0000812  -0.0008275
   19   0.0016864   0.0015638   0.0006054  -0.0000062  -0.0000217  -0.0009372
   20   0.0002472  -0.0004478  -0.0001415  -0.0000961   0.0002098  -0.0003329
   21   0.0011568   0.0009320   0.0001779  -0.0000811   0.0000123  -0.0005794
   22  -0.1111454   0.0856666   0.0522568  -0.0332075  -0.0502125   0.1296418
   23   0.0850070  -0.1029419  -0.0500188  -0.0470066  -0.1128952   0.2168490
   24   0.0549560  -0.0521258  -0.0545214   0.1175134   0.2149252  -0.4428579
   25   0.3854107  -0.0061735  -0.0103664   0.0079358   0.0018162  -0.0202894
   26  -0.0061735   0.3937648   0.0025104  -0.0171833  -0.0022994   0.0284771
   27  -0.0103664   0.0025104   0.3934587   0.0042565  -0.0045595  -0.0067919
   28   0.0079358  -0.0171833   0.0042565   0.0402851   0.0568153  -0.1192730
   29   0.0018162  -0.0022994  -0.0045595   0.0568153   0.1248542  -0.2339519
   30  -0.0202894   0.0284771  -0.0067919  -0.1192730  -0.2339519   0.4882165
   31  -0.0066759   0.0031863   0.0002921  -0.0059134  -0.0078250  -0.0081904
   32  -0.0370833   0.0001818   0.0142266  -0.0105598  -0.0134889  -0.0055665
   33  -0.0088027   0.0012877  -0.0045884   0.0119664   0.0264343  -0.0063845
   34  -0.0451946  -0.0602740  -0.0034167  -0.0004929   0.0013919   0.0002198
   35  -0.0595037  -0.2421532  -0.0251253   0.0070949   0.0038762  -0.0077182
   36  -0.0030339  -0.0242012  -0.0235679   0.0005975  -0.0008098   0.0018122
   37  -0.1961081   0.0258806  -0.0987077  -0.0014670   0.0010607   0.0081776
   38   0.0266121  -0.0257746   0.0106566   0.0017977   0.0000561  -0.0046461
   39  -0.0975484   0.0099853  -0.0791721  -0.0002522  -0.0011123   0.0055822
   40  -0.0490171  -0.0112635   0.0777052  -0.0067933   0.0025406   0.0105706
   41  -0.0115719  -0.0324905   0.0444377   0.0027583   0.0000973  -0.0042854
   42   0.0793036   0.0441702  -0.2277134   0.0101423  -0.0038519  -0.0127082
           31          32          33          34          35          36
    1   0.0022617   0.0023675   0.0036853   0.0001558  -0.0008976   0.0002919
    2  -0.0083736  -0.0072506  -0.0035018  -0.0011007   0.0024477   0.0003326
    3   0.0149589   0.0084028   0.0043099   0.0013772  -0.0030911  -0.0014464
    4   0.0006240   0.0007382   0.0002912   0.0015817   0.0023792   0.0013758
    5   0.0026943   0.0008249   0.0012549  -0.0003926  -0.0014903  -0.0003184
    6   0.0013911   0.0009247   0.0006803   0.0016423   0.0021452   0.0005527
    7  -0.0284386  -0.0015227  -0.0151582  -0.0002010   0.0080697   0.0039938
    8  -0.0127407  -0.0038671  -0.0082281   0.0014124  -0.0003666  -0.0001302
    9  -0.0106253   0.0031112  -0.0150887   0.0004051   0.0032355   0.0015428
   10   0.0017623   0.0014238   0.0014217   0.0005180  -0.0000792  -0.0003972
   11   0.0006231  -0.0001127   0.0005465  -0.0001805  -0.0001494   0.0000104
   12  -0.0049781  -0.0042374  -0.0002374  -0.0002086   0.0016177   0.0006597
   13  -0.0004243  -0.0002745  -0.0002186  -0.0003762  -0.0005172  -0.0002429
   14  -0.0012205  -0.0004248  -0.0005480   0.0000848   0.0012530  -0.0001732
   15   0.0001907  -0.0000251   0.0001398  -0.0006953  -0.0011250   0.0002999
   16   0.0004260   0.0001316   0.0001384   0.0001145  -0.0005050  -0.0004183
   17  -0.0010508  -0.0004223  -0.0004096  -0.0002000   0.0003529   0.0000306
   18  -0.0011522  -0.0005808  -0.0004204  -0.0002655  -0.0001579   0.0000684
   19  -0.0007056  -0.0007368  -0.0003163  -0.0009889  -0.0009683  -0.0005905
   20  -0.0004786  -0.0000975  -0.0002301  -0.0000063   0.0003286   0.0000430
   21  -0.0005805  -0.0005022  -0.0002132  -0.0006403  -0.0005846  -0.0002671
   22  -0.1259849  -0.2295898  -0.0032072   0.0056990  -0.0343552  -0.0090352
   23  -0.2367686  -0.4286124  -0.0143932   0.0045018  -0.0119839  -0.0041058
   24   0.0005786  -0.0080257   0.0088396  -0.0002948   0.0104031   0.0022261
   25  -0.0066759  -0.0370833  -0.0088027  -0.0451946  -0.0595037  -0.0030339
   26   0.0031863   0.0001818   0.0012877  -0.0602740  -0.2421532  -0.0242012
   27   0.0002921   0.0142266  -0.0045884  -0.0034167  -0.0251253  -0.0235679
   28  -0.0059134  -0.0105598   0.0119664  -0.0004929   0.0070949   0.0005975
   29  -0.0078250  -0.0134889   0.0264343   0.0013919   0.0038762  -0.0008098
   30  -0.0081904  -0.0055665  -0.0063845   0.0002198  -0.0077182   0.0018122
   31   0.1592554   0.2548229   0.0052098   0.0004957   0.0040809   0.0010099
   32   0.2548229   0.4693014   0.0047399   0.0040588  -0.0183391  -0.0057177
   33   0.0052098   0.0047399   0.0099646   0.0009718  -0.0057035  -0.0008529
   34   0.0004957   0.0040588   0.0009718   0.0837646   0.1312753   0.0093672
   35   0.0040809  -0.0183391  -0.0057035   0.1312753   0.3138776   0.0121436
   36   0.0010099  -0.0057177  -0.0008529   0.0093672   0.0121436   0.0315093
   37   0.0028098   0.0086859   0.0043211  -0.0388394  -0.0324965  -0.0232422
   38   0.0012791   0.0004305  -0.0011527  -0.0492936  -0.0100431  -0.0261430
   39   0.0019366   0.0010856   0.0011486  -0.0255097  -0.0189249  -0.0040640
   40   0.0005078   0.0075381  -0.0003025  -0.0062364  -0.0235773   0.0203242
   41   0.0017711   0.0018768  -0.0000963  -0.0312771  -0.0376105   0.0490391
   42  -0.0000410  -0.0078355   0.0027025   0.0170476   0.0328853  -0.0084728
           37          38          39          40          41          42
    1  -0.0007488   0.0005569   0.0004538  -0.0000235  -0.0008751   0.0026679
    2  -0.0043463   0.0016988  -0.0003946  -0.0012213   0.0002124   0.0006485
    3   0.0071814  -0.0032504   0.0001220   0.0010204   0.0001368  -0.0047450
    4   0.0012622   0.0003275   0.0007333   0.0004530   0.0005472   0.0001224
    5   0.0012358  -0.0008505   0.0001067   0.0005249  -0.0003443  -0.0001153
    6   0.0013935   0.0001712   0.0003501   0.0006456   0.0004128  -0.0010164
    7  -0.0153835   0.0070070  -0.0017969  -0.0022905   0.0017376   0.0068394
    8   0.0106081  -0.0042775   0.0012048   0.0031482  -0.0005101  -0.0053787
    9  -0.0069215   0.0037782   0.0002793  -0.0018071   0.0002766   0.0085765
   10   0.0012479  -0.0006714  -0.0006555   0.0015530   0.0004587  -0.0025474
   11   0.0002135   0.0000713   0.0004742  -0.0000125   0.0005633   0.0011098
   12  -0.0030953   0.0012296  -0.0004404  -0.0006898  -0.0001214   0.0028836
   13  -0.0004299  -0.0000730  -0.0002101   0.0000169  -0.0000141   0.0000876
   14  -0.0004904   0.0003333  -0.0001118  -0.0000689   0.0002102  -0.0001323
   15  -0.0001487  -0.0002159  -0.0000569  -0.0000570  -0.0001618   0.0002973
   16   0.0000085  -0.0001088  -0.0001329   0.0001230  -0.0001475  -0.0003379
   17  -0.0004461   0.0002018  -0.0000615  -0.0002671  -0.0000232   0.0001822
   18  -0.0005373   0.0000959  -0.0000862  -0.0003570  -0.0001277   0.0005105
   19  -0.0007181  -0.0001525  -0.0003774  -0.0002470  -0.0002933   0.0001032
   20  -0.0002112   0.0001218  -0.0000196  -0.0000359   0.0000954   0.0000436
   21  -0.0004843  -0.0000791  -0.0002066  -0.0002083  -0.0001657   0.0001579
   22  -0.0075561   0.0042150   0.0016274   0.0066100  -0.0018699  -0.0130422
   23  -0.0156322   0.0039665  -0.0038958  -0.0186475   0.0050538   0.0262686
   24  -0.0274910   0.0115359  -0.0059259   0.0113233  -0.0049941  -0.0151776
   25  -0.1961081   0.0266121  -0.0975484  -0.0490171  -0.0115719   0.0793036
   26   0.0258806  -0.0257746   0.0099853  -0.0112635  -0.0324905   0.0441702
   27  -0.0987077   0.0106566  -0.0791721   0.0777052   0.0444377  -0.2277134
   28  -0.0014670   0.0017977  -0.0002522  -0.0067933   0.0027583   0.0101423
   29   0.0010607   0.0000561  -0.0011123   0.0025406   0.0000973  -0.0038519
   30   0.0081776  -0.0046461   0.0055822   0.0105706  -0.0042854  -0.0127082
   31   0.0028098   0.0012791   0.0019366   0.0005078   0.0017711  -0.0000410
   32   0.0086859   0.0004305   0.0010856   0.0075381   0.0018768  -0.0078355
   33   0.0043211  -0.0011527   0.0011486  -0.0003025  -0.0000963   0.0027025
   34  -0.0388394  -0.0492936  -0.0255097  -0.0062364  -0.0312771   0.0170476
   35  -0.0324965  -0.0100431  -0.0189249  -0.0235773  -0.0376105   0.0328853
   36  -0.0232422  -0.0261430  -0.0040640   0.0203242   0.0490391  -0.0084728
   37   0.2470228  -0.0000600   0.1623710   0.0088997   0.0059980  -0.0228165
   38  -0.0000600   0.0290218  -0.0063715   0.0085641   0.0050438   0.0143913
   39   0.1623710  -0.0063715   0.1481572  -0.0406389   0.0180354  -0.0656872
   40   0.0088997   0.0085641  -0.0406389   0.0464443   0.0327781  -0.0775288
   41   0.0059980   0.0050438   0.0180354   0.0327781   0.0578256  -0.1023860
   42  -0.0228165   0.0143913  -0.0656872  -0.0775288  -0.1023860   0.3203922
 Gradient time:  CPU 9884.37 s  wall 3355.86 s
 **********************************************************************
 **                                                                  **
 **                       VIBRATIONAL ANALYSIS                       **
 **                       --------------------                       **
 **                                                                  **
 **        VIBRATIONAL FREQUENCIES (CM**-1) AND NORMAL MODES         **
 **     FORCE CONSTANTS (mDYN/ANGSTROM) AND REDUCED MASSES (AMU)     **
 **                  INFRARED INTENSITIES (KM/MOL)                   **
 **                                                                  **
 **********************************************************************
 

 Mode:                 1                      2                      3
 Frequency:       -59.63                 -39.52                 -26.10
 Force Cnst:      0.0374                 0.0168                 0.0072
 Red. Mass:      17.8650                18.2055                17.9495
 IR Active:          YES                    YES                    YES
 IR Intens:        2.633                  0.411                  7.554
 Raman Active:       YES                    YES                    YES
               X      Y      Z        X      Y      Z        X      Y      Z
 S          0.035  0.123 -0.048   -0.076  0.003 -0.023    0.134  0.021 -0.049
 C          0.334 -0.011  0.226   -0.018  0.153  0.244   -0.038  0.237 -0.045
 N         -0.088  0.032 -0.099   -0.059 -0.012 -0.041    0.030 -0.077 -0.110
 O         -0.088  0.016 -0.091    0.130  0.188  0.048   -0.271 -0.273 -0.205
 F          0.181 -0.070  0.134   -0.036  0.069  0.160    0.191  0.539  0.305
 F          0.049 -0.151  0.034    0.427  0.424  0.510   -0.082  0.010  0.026
 F          0.380  0.414  0.449    0.028 -0.205 -0.123   -0.160 -0.122 -0.066
 S         -0.109 -0.066 -0.065   -0.031 -0.062 -0.076   -0.054 -0.116  0.001
 C         -0.100 -0.041 -0.090   -0.069 -0.078 -0.109    0.071  0.011  0.008
 O         -0.162 -0.139 -0.115   -0.017 -0.078 -0.081   -0.143 -0.243 -0.083
 O         -0.083 -0.084  0.024   -0.002 -0.080 -0.084   -0.109 -0.090  0.176
 F         -0.102 -0.037 -0.159   -0.097 -0.067 -0.110    0.164 -0.017 -0.109
 F         -0.120 -0.080 -0.064   -0.063 -0.107 -0.120    0.029  0.035  0.070
 F         -0.066  0.012 -0.063   -0.074 -0.078 -0.108    0.120  0.125  0.054
 TransDip   0.039  0.025  0.023   -0.012  0.003  0.016    0.049  0.070  0.020

 Mode:                 4                      5                      6
 Frequency:       -14.02                   8.04                  27.40
 Force Cnst:      0.0022                 0.0007                 0.0082
 Red. Mass:      18.7020                17.0910                18.5839
 IR Active:          YES                    YES                    YES
 IR Intens:        1.762                  3.112                  2.213
 Raman Active:       YES                    YES                    YES
               X      Y      Z        X      Y      Z        X      Y      Z
 S         -0.221 -0.186  0.039   -0.033 -0.082 -0.109    0.033 -0.120 -0.106
 C          0.178  0.197 -0.154   -0.126 -0.055  0.081   -0.073  0.162  0.113
 N         -0.077 -0.126  0.061    0.013 -0.105 -0.147    0.033 -0.149 -0.125
 O          0.188  0.172  0.181    0.590  0.444  0.112   -0.061 -0.174 -0.145
 F          0.302  0.458  0.124   -0.002 -0.032  0.130    0.049 -0.182 -0.186
 F         -0.022 -0.092 -0.192   -0.241 -0.072 -0.017   -0.045  0.559 -0.064
 F          0.100  0.122 -0.049   -0.197 -0.069  0.214   -0.136  0.215  0.279
 S         -0.014 -0.019 -0.025   -0.057 -0.060 -0.058   -0.032 -0.060 -0.044
 C         -0.061 -0.098  0.021    0.076  0.055 -0.023    0.073 -0.036  0.094
 O          0.085  0.126  0.070   -0.102 -0.149 -0.113   -0.086 -0.016 -0.036
 O         -0.022 -0.013 -0.229   -0.152 -0.008  0.054   -0.091 -0.027 -0.065
 F         -0.034 -0.124  0.261    0.153  0.030 -0.131    0.218 -0.108  0.316
 F          0.014  0.050 -0.076    0.007  0.080  0.079    0.110  0.220  0.059
 F         -0.191 -0.279 -0.072    0.171  0.136  0.034   -0.023 -0.188  0.017
 TransDip  -0.028 -0.030 -0.012   -0.043 -0.036 -0.001    0.019  0.032  0.030

 Mode:                 7                      8                      9
 Frequency:        29.01                  46.20                  67.04
 Force Cnst:      0.0093                 0.0253                 0.0472
 Red. Mass:      18.7588                20.1114                17.8220
 IR Active:          YES                    YES                    YES
 IR Intens:        0.369                  0.349                  4.805
 Raman Active:       YES                    YES                    YES
               X      Y      Z        X      Y      Z        X      Y      Z
 S          0.044  0.062 -0.034    0.185  0.355  0.054   -0.180  0.124  0.103
 C          0.036 -0.007 -0.041   -0.008 -0.144 -0.048    0.006 -0.025  0.005
 N         -0.029  0.149  0.061    0.060  0.126 -0.127    0.137 -0.146 -0.231
 O          0.058 -0.062  0.006   -0.048  0.337 -0.075   -0.444  0.454 -0.136
 F          0.539 -0.091 -0.001    0.136 -0.096  0.034   -0.004 -0.020  0.009
 F         -0.047  0.265 -0.254   -0.004 -0.129 -0.053    0.004 -0.042  0.008
 F         -0.221 -0.335  0.245   -0.076 -0.304 -0.022    0.009 -0.025 -0.003
 S          0.011  0.081  0.012   -0.035 -0.028  0.009    0.054 -0.019 -0.131
 C         -0.114 -0.048  0.010   -0.046 -0.039  0.009    0.109 -0.106  0.107
 O         -0.002  0.154  0.045   -0.188 -0.120 -0.073   -0.013  0.115 -0.080
 O          0.122  0.019 -0.055    0.040 -0.072  0.194    0.040 -0.010 -0.228
 F         -0.298  0.036 -0.132    0.065 -0.105  0.341    0.065 -0.081  0.040
 F         -0.180 -0.281  0.088    0.105  0.219 -0.191   -0.029 -0.150  0.306
 F          0.038 -0.003  0.069   -0.323 -0.235 -0.136    0.345 -0.140  0.161
 TransDip  -0.009 -0.015 -0.009    0.016 -0.005  0.008    0.015 -0.021  0.065

 Mode:                10                     11                     12
 Frequency:       161.58                 182.86                 204.73
 Force Cnst:      0.2975                 0.3477                 0.4286
 Red. Mass:      19.3430                17.6481                17.3552
 IR Active:          YES                    YES                    YES
 IR Intens:        1.139                 15.887                  5.700
 Raman Active:       YES                    YES                    YES
               X      Y      Z        X      Y      Z        X      Y      Z
 S         -0.222 -0.238 -0.221   -0.283  0.073 -0.131   -0.088 -0.017 -0.077
 C          0.021  0.017  0.015   -0.001 -0.011 -0.015   -0.002 -0.007 -0.001
 N          0.376  0.032 -0.156   -0.205  0.512  0.241   -0.011  0.139  0.045
 O         -0.109  0.207 -0.274    0.026 -0.148  0.106   -0.001  0.046 -0.041
 F          0.012  0.018  0.011    0.005  0.002 -0.004   -0.004 -0.005  0.000
 F          0.009  0.012  0.008   -0.004 -0.008 -0.012   -0.001 -0.003  0.001
 F          0.025  0.044  0.025    0.005  0.004 -0.004    0.003  0.003  0.001
 S          0.144  0.084  0.129    0.030  0.042 -0.060   -0.017 -0.061  0.057
 C          0.035  0.030  0.063    0.031 -0.004 -0.072   -0.056 -0.101  0.067
 O         -0.140 -0.057 -0.004    0.040 -0.289 -0.215   -0.306  0.290  0.159
 O          0.171  0.061  0.516    0.281 -0.103  0.216    0.475 -0.331 -0.140
 F         -0.203  0.124  0.099    0.094 -0.038  0.053    0.347 -0.246 -0.176
 F          0.161 -0.206 -0.140   -0.106  0.181  0.151   -0.017  0.054  0.023
 F         -0.119  0.037  0.017    0.272 -0.246 -0.074   -0.249  0.289  0.129
 TransDip  -0.001 -0.030  0.017   -0.067  0.010 -0.108   -0.044 -0.062  0.001

 Mode:                13                     14                     15
 Frequency:       287.88                 318.07                 325.24
 Force Cnst:      0.8712                 1.0468                 1.1162
 Red. Mass:      17.8411                17.5624                17.9084
 IR Active:          YES                    YES                    YES
 IR Intens:        0.874                  3.703                  0.938
 Raman Active:       YES                    YES                    YES
               X      Y      Z        X      Y      Z        X      Y      Z
 S         -0.094  0.108 -0.003   -0.015  0.071 -0.224   -0.064  0.086 -0.071
 C         -0.002 -0.001 -0.002   -0.001 -0.003  0.001   -0.003 -0.004 -0.005
 N         -0.167  0.167  0.072   -0.091  0.205  0.109   -0.148  0.123  0.057
 O          0.051 -0.132  0.148   -0.025  0.154 -0.252    0.030 -0.035  0.018
 F         -0.000 -0.001 -0.000    0.000 -0.002  0.001    0.001 -0.002 -0.004
 F         -0.000  0.000 -0.000    0.000  0.001  0.000   -0.005 -0.007 -0.006
 F         -0.001 -0.003 -0.002    0.002  0.000  0.001   -0.002 -0.003 -0.003
 S         -0.117  0.096  0.021   -0.017  0.024  0.087    0.013 -0.096 -0.104
 C          0.225 -0.113  0.011   -0.051 -0.149  0.063    0.072  0.070  0.210
 O         -0.365  0.222  0.020    0.554 -0.085  0.181    0.111 -0.355 -0.205
 O         -0.259  0.176  0.047   -0.324  0.200  0.061    0.062 -0.119 -0.359
 F          0.206 -0.117 -0.008    0.266 -0.297 -0.066   -0.137  0.162  0.368
 F          0.422 -0.400 -0.255   -0.074 -0.171  0.100    0.259 -0.221 -0.045
 F          0.193 -0.098 -0.004   -0.213  0.026  0.082   -0.136  0.385  0.272
 TransDip   0.017  0.014 -0.021   -0.026 -0.013 -0.054   -0.008  0.025 -0.017

 Mode:                16                     17                     18
 Frequency:       384.86                 469.55                 509.34
 Force Cnst:      1.5922                 2.3854                 2.7920
 Red. Mass:      18.2456                18.3630                18.2660
 IR Active:          YES                    YES                    YES
 IR Intens:        6.605                105.796                  3.324
 Raman Active:       YES                    YES                    YES
               X      Y      Z        X      Y      Z        X      Y      Z
 S          0.082 -0.038 -0.145    0.194 -0.271  0.117   -0.008  0.008 -0.004
 C         -0.003 -0.005  0.001   -0.007 -0.010 -0.008    0.078 -0.179  0.256
 N         -0.330  0.035  0.257   -0.123  0.199  0.436    0.031  0.013 -0.010
 O         -0.078  0.264 -0.324   -0.105  0.253 -0.228    0.002 -0.010  0.007
 F         -0.002 -0.002  0.001    0.002  0.002  0.000   -0.170 -0.099  0.444
 F         -0.000 -0.001  0.000    0.001 -0.001 -0.000   -0.331  0.363 -0.350
 F          0.001  0.001 -0.000    0.001  0.003 -0.001    0.450 -0.149 -0.257
 S         -0.156 -0.166  0.181    0.114  0.144  0.099    0.006 -0.006  0.014
 C          0.063  0.069 -0.038    0.034  0.018  0.006    0.005 -0.002  0.014
 O          0.070  0.081  0.378   -0.358 -0.270 -0.234   -0.009 -0.016  0.009
 O          0.032 -0.282 -0.101   -0.020  0.235 -0.298   -0.012  0.005 -0.026
 F         -0.194  0.183  0.015    0.097  0.018 -0.083   -0.013  0.004 -0.025
 F          0.167  0.139 -0.175   -0.028 -0.054  0.113    0.018  0.019  0.005
 F          0.337 -0.095 -0.030   -0.111 -0.089 -0.073   -0.008 -0.018  0.012
 TransDip  -0.001 -0.082 -0.007    0.226 -0.120  0.207    0.014 -0.024  0.052

 Mode:                19                     20                     21
 Frequency:       511.33                 513.32                 553.60
 Force Cnst:      2.8156                 2.7987                 3.2381
 Red. Mass:      18.2775                18.0268                17.9334
 IR Active:          YES                    YES                    YES
 IR Intens:        2.667                 21.985                 15.683
 Raman Active:       YES                    YES                    YES
               X      Y      Z        X      Y      Z        X      Y      Z
 S         -0.008  0.009 -0.005    0.124 -0.124  0.073   -0.028  0.069 -0.051
 C         -0.276  0.080  0.141   -0.016 -0.014  0.024    0.005  0.005  0.003
 N          0.025  0.012 -0.008   -0.409 -0.200  0.127   -0.178 -0.155 -0.019
 O          0.002 -0.009  0.006   -0.047  0.121 -0.098    0.017 -0.021  0.009
 F          0.522 -0.290  0.034    0.021 -0.023  0.037   -0.005  0.001 -0.002
 F         -0.336 -0.059  0.341   -0.040  0.026 -0.004    0.000 -0.000 -0.001
 F         -0.008  0.300 -0.461    0.031  0.013 -0.045   -0.000 -0.003  0.003
 S          0.006 -0.008  0.012   -0.071  0.083 -0.210   -0.061 -0.044 -0.033
 C          0.004 -0.004  0.009   -0.045  0.057 -0.176    0.256  0.229  0.075
 O         -0.008 -0.010  0.010    0.105  0.210 -0.145    0.051  0.059  0.053
 O         -0.012  0.003 -0.022    0.164 -0.059  0.360    0.087 -0.127  0.061
 F         -0.010  0.007 -0.023    0.170 -0.052  0.361    0.177  0.455 -0.138
 F          0.013  0.013  0.007   -0.226 -0.249 -0.059    0.158 -0.231  0.425
 F         -0.009 -0.016  0.006    0.109  0.246 -0.156   -0.346 -0.224 -0.285
 TransDip  -0.039  0.013  0.032    0.000 -0.018 -0.149   -0.027  0.074 -0.099

 Mode:                22                     23                     24
 Frequency:       572.79                 588.38                 690.45
 Force Cnst:      3.5272                 4.1072                 4.5400
 Red. Mass:      18.2469                20.1362                16.1638
 IR Active:          YES                    YES                    YES
 IR Intens:       42.796                249.861                 66.819
 Raman Active:       YES                    YES                    YES
               X      Y      Z        X      Y      Z        X      Y      Z
 S          0.063 -0.064  0.042    0.015  0.019 -0.008    0.017 -0.035  0.028
 C         -0.004 -0.004 -0.002    0.006  0.006  0.007   -0.274 -0.504 -0.276
 N         -0.335 -0.056  0.145   -0.139 -0.400 -0.194    0.076  0.088 -0.025
 O         -0.025  0.064 -0.050    0.002 -0.006  0.009   -0.012  0.006  0.010
 F          0.002  0.001  0.002    0.003  0.000 -0.003    0.042 -0.086  0.427
 F          0.003  0.002  0.001   -0.005  0.001  0.004    0.387  0.061 -0.183
 F         -0.001  0.004 -0.000   -0.002  0.000 -0.003   -0.252  0.347 -0.065
 S          0.068 -0.009 -0.274   -0.311  0.399  0.152   -0.063  0.000 -0.027
 C          0.067 -0.188  0.232   -0.175  0.090  0.165   -0.023  0.026  0.020
 O          0.089  0.200 -0.217    0.161 -0.323 -0.064    0.035  0.010 -0.005
 O         -0.001  0.017  0.300    0.414  0.056 -0.073   -0.014 -0.041 -0.001
 F         -0.233 -0.092 -0.295    0.085 -0.059 -0.139    0.020  0.027 -0.008
 F          0.326  0.243  0.038    0.099 -0.019 -0.144    0.008 -0.014 -0.011
 F         -0.164 -0.109  0.363    0.042 -0.161  0.184   -0.003 -0.021  0.016
 TransDip   0.106 -0.106 -0.146   -0.326  0.383  0.058   -0.161 -0.185 -0.091

 Mode:                25                     26                     27
 Frequency:       725.17                 770.74                 991.74
 Force Cnst:      5.7149                 6.6775                 8.8282
 Red. Mass:      18.4451                19.0786                15.2346
 IR Active:          YES                    YES                    YES
 IR Intens:       93.807                 24.427                757.671
 Raman Active:       YES                    YES                    YES
               X      Y      Z        X      Y      Z        X      Y      Z
 S          0.102 -0.222  0.152   -0.045  0.096 -0.066   -0.009  0.117 -0.174
 C          0.044  0.075  0.036   -0.005 -0.004 -0.002   -0.003 -0.036 -0.001
 N          0.372  0.539 -0.092   -0.121 -0.184  0.120    0.463 -0.324  0.670
 O         -0.066  0.063  0.046    0.028 -0.023 -0.031   -0.043  0.025  0.075
 F         -0.005  0.025 -0.090   -0.001 -0.006  0.015    0.004  0.016 -0.014
 F         -0.084 -0.005  0.048    0.014 -0.002 -0.011   -0.009  0.007  0.010
 F          0.060 -0.068  0.019   -0.010  0.009 -0.004    0.006 -0.001  0.003
 S         -0.303 -0.006 -0.155    0.253 -0.123 -0.012   -0.103  0.039 -0.069
 C         -0.139  0.181  0.129   -0.229  0.203  0.133   -0.150  0.164  0.131
 O          0.190  0.097 -0.073   -0.090  0.037 -0.016   -0.008  0.079 -0.192
 O         -0.092 -0.251  0.022   -0.048  0.055  0.018   -0.087 -0.149  0.007
 F          0.153  0.180 -0.037    0.318  0.346 -0.041   -0.025 -0.095 -0.013
 F         -0.014 -0.088 -0.123   -0.330 -0.085 -0.378    0.049 -0.009  0.023
 F         -0.012 -0.144  0.156   -0.009 -0.264  0.402    0.034  0.015 -0.084
 TransDip  -0.295 -0.078  0.057    0.156  0.015 -0.021   -0.474  0.445 -0.595

 Mode:                28                     29                     30
 Frequency:      1062.17                1063.00                1120.79
 Force Cnst:     12.1151                10.0019                12.8840
 Red. Mass:      18.2258                15.0233                17.4081
 IR Active:          YES                    YES                    YES
 IR Intens:      173.988                269.788                270.790
 Raman Active:       YES                    YES                    YES
               X      Y      Z        X      Y      Z        X      Y      Z
 S          0.199 -0.108 -0.314   -0.058  0.025  0.095   -0.061  0.043  0.092
 C          0.126  0.235  0.156    0.315  0.583  0.341    0.054  0.069  0.046
 N         -0.050  0.040 -0.041    0.021  0.007  0.021    0.218 -0.044  0.229
 O         -0.383  0.182  0.651    0.114 -0.050 -0.193    0.124 -0.051 -0.222
 F         -0.031 -0.101  0.071   -0.079 -0.256  0.183   -0.010 -0.029  0.019
 F          0.072 -0.068 -0.105    0.169 -0.161 -0.247    0.015 -0.018 -0.026
 F         -0.121  0.019 -0.065   -0.290  0.044 -0.157   -0.038  0.005 -0.021
 S         -0.013 -0.047 -0.066    0.011  0.034  0.051   -0.209 -0.096 -0.282
 C          0.100 -0.058  0.022   -0.043  0.056  0.005    0.411 -0.183  0.043
 O         -0.039 -0.070  0.143    0.031  0.054 -0.113   -0.083 -0.186  0.386
 O          0.089  0.170  0.004   -0.064 -0.126 -0.002    0.251  0.414  0.021
 F          0.000  0.023  0.001   -0.003 -0.025 -0.002   -0.013  0.062  0.004
 F         -0.050  0.008 -0.028    0.022 -0.006  0.011   -0.156  0.023 -0.086
 F         -0.008  0.000  0.011    0.005 -0.001 -0.010   -0.045  0.002  0.050
 TransDip   0.164  0.008 -0.389    0.109  0.338  0.389   -0.123 -0.156 -0.488

 Mode:                31                     32                     33
 Frequency:      1170.33                1182.62                1204.67
 Force Cnst:     10.7804                10.9295                11.4044
 Red. Mass:      13.3590                13.2636                13.3379
 IR Active:          YES                    YES                    YES
 IR Intens:      652.790                209.690                421.224
 Raman Active:       YES                    YES                    YES
               X      Y      Z        X      Y      Z        X      Y      Z
 S          0.001 -0.007  0.004    0.003  0.000 -0.005    0.001 -0.002  0.002
 C          0.067 -0.091  0.019    0.054 -0.091  0.099    0.794 -0.229 -0.333
 N         -0.071  0.029 -0.073    0.016 -0.001  0.012   -0.012  0.007 -0.009
 O         -0.004 -0.001  0.012   -0.007  0.004  0.003   -0.000  0.001 -0.000
 F          0.004  0.028 -0.020    0.007  0.039 -0.035   -0.059 -0.048  0.071
 F         -0.020  0.017  0.020   -0.003  0.005 -0.004   -0.204  0.131  0.221
 F         -0.028  0.012 -0.013   -0.039  0.014 -0.023   -0.237  0.061 -0.082
 S          0.027  0.016  0.066   -0.024 -0.061  0.002    0.010 -0.016 -0.017
 C          0.604  0.379  0.524    0.155  0.626 -0.622   -0.121 -0.005  0.024
 O          0.031  0.045 -0.101   -0.017  0.010  0.023   -0.009 -0.011  0.029
 O         -0.045 -0.109 -0.011    0.049  0.071 -0.004    0.011  0.032  0.003
 F         -0.100 -0.217 -0.049   -0.070 -0.221  0.019    0.011  0.007  0.000
 F         -0.248  0.001 -0.159    0.063 -0.045  0.079    0.037 -0.003  0.016
 F         -0.012 -0.005 -0.102   -0.087 -0.097  0.273    0.016  0.006 -0.026
 TransDip   0.565  0.192  0.560    0.101  0.278 -0.357    0.548 -0.223 -0.286

 Mode:                34                     35                     36
 Frequency:      1209.04                1218.22                1289.24
 Force Cnst:     11.4840                12.4819                20.0146
 Red. Mass:      13.3340                14.2752                20.4376
 IR Active:          YES                    YES                    YES
 IR Intens:      565.922                191.542                566.287
 Raman Active:       YES                    YES                    YES
               X      Y      Z        X      Y      Z        X      Y      Z
 S         -0.002 -0.001  0.008    0.005  0.016 -0.040    0.007 -0.004  0.003
 C          0.144 -0.493  0.721    0.089 -0.054 -0.037   -0.003  0.014 -0.017
 N         -0.006  0.008 -0.010    0.085 -0.068  0.078   -0.018 -0.015  0.006
 O          0.005 -0.004 -0.010   -0.022  0.008  0.039   -0.004  0.002  0.007
 F          0.055  0.247 -0.232   -0.004  0.005  0.001   -0.002 -0.007  0.006
 F          0.038 -0.008 -0.095   -0.027  0.019  0.030   -0.001 -0.000  0.002
 F         -0.184  0.070 -0.128   -0.025  0.008 -0.009    0.004 -0.002  0.003
 S          0.010  0.012 -0.010   -0.058  0.147  0.129    0.212  0.388 -0.291
 C         -0.088 -0.125  0.056    0.530 -0.484 -0.403    0.018  0.098 -0.045
 O         -0.003 -0.010  0.018    0.059  0.069 -0.202   -0.145 -0.277  0.556
 O         -0.009 -0.008  0.001   -0.104 -0.245 -0.019   -0.264 -0.476  0.002
 F          0.021  0.052  0.001    0.013  0.187  0.041   -0.009 -0.048 -0.003
 F          0.015  0.006  0.003   -0.164  0.048 -0.050    0.006 -0.007  0.006
 F          0.016  0.016 -0.036   -0.100 -0.011  0.210   -0.014 -0.009  0.032
 TransDip   0.072 -0.456  0.606    0.402 -0.158 -0.099    0.288  0.564 -0.424

 STANDARD THERMODYNAMIC QUANTITIES AT   298.15 K  AND     1.00 ATM

   This Molecule has  4 Imaginary Frequencies
   Zero point vibrational energy:       27.819 kcal/mol

   Atom    1 Element S  Has Mass   31.97207
   Atom    2 Element C  Has Mass   12.00000
   Atom    3 Element N  Has Mass   14.00307
   Atom    4 Element O  Has Mass   15.99491
   Atom    5 Element F  Has Mass   18.99840
   Atom    6 Element F  Has Mass   18.99840
   Atom    7 Element F  Has Mass   18.99840
   Atom    8 Element S  Has Mass   31.97207
   Atom    9 Element C  Has Mass   12.00000
   Atom   10 Element O  Has Mass   15.99491
   Atom   11 Element O  Has Mass   15.99491
   Atom   12 Element F  Has Mass   18.99840
   Atom   13 Element F  Has Mass   18.99840
   Atom   14 Element F  Has Mass   18.99840
   Molecular Mass:   263.922340 amu
   Principal axes and moments of inertia in amu*Bohr^2:
                             1           2           3
    Eigenvalues --     2611.62312  4199.62858  5151.39139
          X               0.64265    -0.40350    -0.65130
          Y               0.41973     0.89658    -0.14131
          Z               0.64096    -0.18256     0.74555
   Rotational Symmetry Number is   1
   The Molecule is an Asymmetric Top
   Translational Enthalpy:        0.889 kcal/mol
   Rotational Enthalpy:           0.889 kcal/mol
   Vibrational Enthalpy:         33.837 kcal/mol
   gas constant (RT):             0.592 kcal/mol
   Translational Entropy:        42.611  cal/mol.K
   Rotational Entropy:           32.402  cal/mol.K
   Vibrational Entropy:          47.094  cal/mol.K

   Total Enthalpy:               36.207 kcal/mol
   Total Entropy:               122.107  cal/mol.K
Archival summary:
1\1\nid02700\FREQ\ProcedureUnspecified\BasisUnspecified\26312(1-,3)\sblau\WedNov1405:15:202018WedNov1405:15:202018\0\\#,FREQ,ProcedureUnspecified,BasisUnspecified,\\-1,3\S\O,1,1.45664\O,1,1.46144,2,117.812\N,1,1.58147,2,110.094,3,135.857,0\S,4,1.65349,1,122.648,2,-152.241,0\O,5,1.50811,4,111.837,1,-84.5841,0\C,1,1.87178,2,102.483,3,-112.498,0\F,7,1.33008,1,111.096,2,-177.209,0\F,7,1.33243,1,110.959,2,-56.4966,0\F,7,1.33522,1,109.82,2,63.0342,0\C,4,3.02855,1,122.547,2,85.6282,0\F,11,1.31941,4,99.9374,1,-64.9136,0\F,11,1.32097,4,99.8579,1,-178.119,0\F,11,1.32113,4,123.927,1,58.5369,0\\\@

 Total job time:  3459.75s(wall), 11492.45s(cpu) 
 Wed Nov 14 05:15:20 2018

        *************************************************************
        *                                                           *
        *  Thank you very much for using Q-Chem.  Have a nice day.  *
        *                                                           *
        *************************************************************


