
Running Job 1 of 1 mol.qin
qchem mol.qin_20085.0 /tmp/qchem20085/ 1
/global/common/edison/software/qchem/5.1/exe/qcprog.exe mol.qin_20085.0 /tmp/qchem20085/
Check license passed

                  Welcome to Q-Chem
     A Quantum Leap Into The Future Of Chemistry


 Q-Chem 5.1, Q-Chem, Inc., Pleasanton, CA (2018)

 Yihan Shao,  Zhengting Gan,  E. Epifanovsky,  A. T. B. Gilbert,  M. Wormit,  
 J. Kussmann,  A. W. Lange,  A. Behn,  Jia Deng,  Xintian Feng,  D. Ghosh,  
 M. Goldey,  P. R. Horn,  L. D. Jacobson,  I. Kaliman,  T. Kus,  A. Landau,  
 Jie Liu,  E. I. Proynov,  R. M. Richard,  R. P. Steele,  E. J. Sundstrom,  
 H. L. Woodcock III,  P. M. Zimmerman,  D. Zuev,  B. Albrecht,  E. Alguire,  
 S. A. Baeppler,  D. Barton,  Z. Benda,  Y. A. Bernard,  E. J. Berquist,  
 K. B. Bravaya,  H. Burton,  D. Casanova,  Chun-Min Chang,  Yunqing Chen,  
 A. Chien,  K. D. Closser,  M. P. Coons,  S. Coriani,  S. Dasgupta,  
 A. L. Dempwolff,  M. Diedenhofen,  Hainam Do,  R. G. Edgar,  Po-Tung Fang,  
 S. Faraji,  S. Fatehi,  Qingguo Feng,  K. D. Fenk,  J. Fosso-Tande,  
 Qinghui Ge,  A. Ghysels,  G. Gidofalvi,  J. Gomes,  J. Gonthier,  A. Gunina,  
 D. Hait,  M. W. D. Hanson-Heine,  P. H. P. Harbach,  A. W. Hauser,  
 J. E. Herr,  E. G. Hohenstein,  Z. C. Holden,  Kerwin Hui,  B. C. Huynh,  
 T.-C. Jagau,  Hyunjun Ji,  B. Kaduk,  K. Khistyaev,  Jaehoon Kim,  
 P. Klunzinger,  K. Koh,  D. Kosenkov,  L. Koulias,  T. Kowalczyk,  
 C. M. Krauter,  A. Kunitsa,  Ka Un Lao,  A. Laurent,  K. V. Lawler,  
 Joonho Lee,  D. Lefrancois,  S. Lehtola,  D. S. Levine,  Yi-Pei Li,  
 You-Sheng Lin,  Fenglai Liu,  E. Livshits,  A. Luenser,  P. Manohar,  
 E. Mansoor,  S. F. Manzer,  Shan-Ping Mao,  Yuezhi Mao,  N. Mardirossian,  
 A. V. Marenich,  T. Markovich,  L. A. Martinez-Martinez,  S. A. Maurer,  
 N. J. Mayhall,  S. C. McKenzie,  J.-M. Mewes,  A. F. Morrison,  
 J. W. Mullinax,  K. Nanda,  T. S. Nguyen-Beck,  R. Olivares-Amaya,  
 J. A. Parkhill,  T. M. Perrine,  F. Plasser,  P. Pokhilko,  S. Prager,  
 A. Prociuk,  E. Ramos,  D. R. Rehn,  F. Rob,  M. Schneider,  N. Sergueev,  
 S. M. Sharada,  S. Sharma,  D. W. Small,  T. Stauch,  T. Stein,  
 Yu-Chuan Su,  A. J. W. Thom,  A. Tkatchenko,  T. Tsuchimochi,  N. M. Tubman,  
 L. Vogt,  M. L. Vidal,  O. Vydrov,  M. A. Watson,  J. Wenzel,  
 M. de Wergifosse,  T. A. Wesolowski,  A. White,  J. Witte,  A. Yamada,  
 Jun Yang,  K. Yao,  S. Yeganeh,  S. R. Yost,  Zhi-Qiang You,  A. Zech,  
 Igor Ying Zhang,  Xing Zhang,  Yan Zhao,  Ying Zhu,  B. R. Brooks,  
 G. K. L. Chan,  C. J. Cramer,  M. S. Gordon,  W. J. Hehre,  A. Klamt,  
 M. W. Schmidt,  C. D. Sherrill,  D. G. Truhlar,  A. Aspuru-Guzik,  R. Baer,  
 A. T. Bell,  N. A. Besley,  Jeng-Da Chai,  R. A. DiStasio Jr.,  A. Dreuw,  
 B. D. Dunietz,  T. R. Furlani,  Chao-Ping Hsu,  Yousung Jung,  Jing Kong,  
 D. S. Lambrecht,  WanZhen Liang,  C. Ochsenfeld,  V. A. Rassolov,  
 L. V. Slipchenko,  J. E. Subotnik,  T. Van Voorhis,  J. M. Herbert,  
 A. I. Krylov,  P. M. W. Gill,  M. Head-Gordon

 Contributors to earlier versions of Q-Chem not listed above: 
 R. D. Adamson,  B. Austin,  J. Baker,  G. J. O. Beran,  K. Brandhorst,  
 S. T. Brown,  E. F. C. Byrd,  A. K. Chakraborty,  C.-L. Cheng,  
 Siu Hung Chien,  D. M. Chipman,  D. L. Crittenden,  H. Dachsel,  
 R. J. Doerksen,  A. D. Dutoi,  L. Fusti-Molnar,  W. A. Goddard III,  
 A. Golubeva-Zadorozhnaya,  S. R. Gwaltney,  G. Hawkins,  A. Heyden,  
 S. Hirata,  G. Kedziora,  F. J. Keil,  C. Kelley,  Jihan Kim,  R. A. King,  
 R. Z. Khaliullin,  P. P. Korambath,  W. Kurlancheek,  A. M. Lee,  M. S. Lee,  
 S. V. Levchenko,  Ching Yeh Lin,  D. Liotard,  R. C. Lochan,  I. Lotan,  
 P. E. Maslen,  N. Nair,  D. P. O'Neill,  D. Neuhauser,  E. Neuscamman,  
 C. M. Oana,  R. Olson,  B. Peters,  R. Peverati,  P. A. Pieniazek,  
 Y. M. Rhee,  J. Ritchie,  M. A. Rohrdanz,  E. Rosta,  N. J. Russ,  
 H. F. Schaefer III,  N. E. Schultz,  N. Shenvi,  A. C. Simmonett,  A. Sodt,  
 D. Stuck,  K. S. Thanthiriwatte,  V. Vanovschi,  Tao Wang,  A. Warshel,  
 C. F. Williams,  Q. Wu,  X. Xu,  W. Zhang

 Please cite Q-Chem as follows:
 Y. Shao et al., Mol. Phys. 113, 184-215 (2015)
 DOI: 10.1080/00268976.2014.952696

 Q-Chem 5.1.0 for Intel X86 EM64T Linux

 Parts of Q-Chem use Armadillo 8.300.2 (Tropical Shenanigans).
 http://arma.sourceforge.net/

 Q-Chem begins on Wed Nov 14 02:58:39 2018  

Host: edison03
0

     Scratch files written to /tmp/qchem20085//
 Jun2518 |scratch|qcdevops|jenkins|workspace|build_RNUM -1
Processing $rem in /global/common/edison/software/qchem/5.1/config/preferences.
 MEM_TOTAL  48000 
Symmetry turned off for PCM/SM12/SMD calculation

Checking the input file for inconsistencies... 	...done.

--------------------------------------------------------------
User input:
--------------------------------------------------------------
$molecule
-1 3
S      0.5670248082     -1.2948610250      0.1211237592
C      0.9636854592      2.0831990202      0.7361229839
N      0.2070747303     -0.2108615468     -1.0708231633
O     -0.3328856576     -1.1531954440      1.3232157136
F      1.1691954383      2.9551125737     -0.2310364416
F     -0.0356585537      2.4654051530      1.5088935520
F      2.0643451931      1.9070134683      1.4480488548
S     -1.0604538682     -0.3364809037     -2.0085108071
C     -2.3087132385      0.8574946127     -1.2888203822
O     -0.7827800101      0.2488489050     -3.3133860274
O     -1.7548661415     -1.6216265791     -1.9718652748
F     -1.8149126720      2.0941771981     -1.2493976565
F     -3.4079776600      0.8714441722     -2.0471743261
F     -2.6567471810      0.5037809051     -0.0556700873
$end

$rem
job_type = freq
basis = 6-311++g*
max_scf_cycles = 200
gen_scfman = true
scf_algorithm = gdm
method = wb97xd
geom_opt_max_cycles = 200
solvent_method = pcm
$end

$pcm
heavypoints 194
hpoints 194
radii uff
theory cpcm
vdwscale 1.1
$end

$solvent
dielectric 7.0
$end
--------------------------------------------------------------
 ----------------------------------------------------------------
             Standard Nuclear Orientation (Angstroms)
    I     Atom           X                Y                Z
 ----------------------------------------------------------------
    1      S       0.5670248082    -1.2948610250     0.1211237592
    2      C       0.9636854592     2.0831990202     0.7361229839
    3      N       0.2070747303    -0.2108615468    -1.0708231633
    4      O      -0.3328856576    -1.1531954440     1.3232157136
    5      F       1.1691954383     2.9551125737    -0.2310364416
    6      F      -0.0356585537     2.4654051530     1.5088935520
    7      F       2.0643451931     1.9070134683     1.4480488548
    8      S      -1.0604538682    -0.3364809037    -2.0085108071
    9      C      -2.3087132385     0.8574946127    -1.2888203822
   10      O      -0.7827800101     0.2488489050    -3.3133860274
   11      O      -1.7548661415    -1.6216265791    -1.9718652748
   12      F      -1.8149126720     2.0941771981    -1.2493976565
   13      F      -3.4079776600     0.8714441722    -2.0471743261
   14      F      -2.6567471810     0.5037809051    -0.0556700873
 ----------------------------------------------------------------
 Nuclear Repulsion Energy =  1359.7751021335 hartrees
 There are       66 alpha and       64 beta electrons
 Requested basis set is 6-311++G(d)
 There are 98 shells and 324 basis functions

 Total QAlloc Memory Limit  48000 MB
 Mega-Array Size       188 MB
 MEM_STATIC part       192 MB
 Discretize the solute cavity surface with Lebedev spheres
	Using 194 Lebedev grid points for each H atom
	Using 194 Lebedev grid points for other atoms
	Atomic van der Waals radii will be scaled by 1.10
 Remove points where switching function is < 1.0e-08
 Keep 1353 surface tesserae and discard 1363 interior tesserae
 Molecular Surface Area = 238.124 Angst**2

                       Distance Matrix (Angstroms)
             S (  1)   C (  2)   N (  3)   O (  4)   F (  5)   F (  6)
   C (  2)  3.456422
   N (  3)  1.650865  3.016658
   O (  4)  1.508288  3.535537  2.628873
   F (  5)  4.306844  1.318281  3.413841  4.642213
   F (  6)  4.053237  1.319827  3.725085  3.635532  2.172290
   F (  7)  3.775540  1.322623  3.778831  3.889367  2.172356  2.173826
   S (  8)  2.846493  4.181508  1.581666  3.506676  4.354921  4.612256
   C (  9)  3.858814  4.038730  2.741915  3.843111  4.196994  3.947069
   O ( 10)  4.000109  4.776349  2.494040  4.864793  4.542571  5.359635
   O ( 11)  3.143017  5.333803  2.579021  3.619256  5.703259  5.636948
   F ( 12)  4.363202  3.415116  3.071404  4.400020  3.268512  3.303290
   F ( 13)  5.019466  5.322268  3.897852  4.991481  5.347013  5.153530
   F ( 14)  3.695819  4.028527  3.121334  3.169736  4.547265  3.628489
             F (  7)   S (  8)   C (  9)   O ( 10)   O ( 11)   F ( 12)
   S (  8)  5.171599
   C (  9)  5.264559  1.871279
   O ( 10)  5.790241  1.456850  2.607257
   O ( 11)  6.223623  1.461215  2.630464  2.498661
   F ( 12)  4.728624  2.655854  1.332208  2.954756  3.785864
   F ( 13)  6.575356  2.640350  1.335544  2.980366  2.992299  2.160875
   F ( 14)  5.149655  2.658530  1.329248  3.766889  3.000425  2.159405
             F ( 13)
   F ( 14)  2.160003
 
 A cutoff of  1.0D-12 yielded   3672 shell pairs
 There are     42648 function pairs (     46057 Cartesian)
 
 -------------------------------------------------------
 OpenMP Integral Computing Module                       
 Release: version 1.0, May 2013, Q-Chem Inc. Pittsburgh 
 -------------------------------------------------------
 Integral Job Info:
 Integral job number is                      11
 Integral operator is                         1
 short-range coefficients              22203600
 long-range coefficients              100000000
 Omega coefficients                         200
 if combine SR and LR in K                    1
 Integral screening is                        0
 Integral computing path is                   2
 max size of driver memory is            800000
 size of driver memory is                593474
 size of scratch memory is              4293864
 max col of scratch BK array               1296
 max len of scratch array in speh3          155
 max len of scratch index in speh4           18
 max int batch size is                      520
 min int batch size is                       52
 fixed nKL is                                52
 max L of basis functions is                  2
 order of int derivative is                   0
 number of shells is                         98
 number of basis is                         338
 number of cartesian basis is               338
 number of contracted shell pairs          3672
 number of primitive shell pairs           9754
 maxK2 (contraction) of shell pair           36
 max number of K2 of shell pair               1
 max number of CS2 of shell pair            744
 max number of PS2 of shell pair           2490
 mem total for path MDJ                  604364
 -------------------------------------------------------
 Smallest overlap matrix eigenvalue = 5.60E-05
 Guess from superposition of atomic densities
 Warning:  Energy on first SCF cycle will be non-variational
 SAD guess density has 129.000000 electrons

 -----------------------------------------------------------------------
  General SCF calculation program by
  Eric Jon Sundstrom, Paul Horn, Yuezhi Mao, Dmitri Zuev, Alec White,
  David Stuck, Shaama M.S., Shane Yost, Joonho Lee, David Small,
  Daniel Levine, Susi Lehtola, Hugh Burton, Evgeny Epifanovsky
 -----------------------------------------------------------------------
 Exchange:     0.2220 Hartree-Fock + 1.0000 wB97X-D + LR-HF
 Correlation:  1.0000 wB97X-D
 Using SG-2 standard quadrature grid
 Dispersion:   Grimme D
 using 24 threads for integral computing
 -------------------------------------------------------
 OpenMP Integral computing Module                
 Release: version 1.0, May 2013, Q-Chem Inc. Pittsburgh 
 -------------------------------------------------------
 using 24 threads for integral computing
 -------------------------------------------------------
 OpenMP Integral computing Module                
 Release: version 1.0, May 2013, Q-Chem Inc. Pittsburgh 
 -------------------------------------------------------
 -------------------------------------------------------
 OpenMP BLAS3 based DFT computing Module                
 Release: version 1.0, May 2013, Q-Chem Inc. Pittsburgh 
 -------------------------------------------------------
 A unrestricted SCF calculation will be
 performed using Roothaan-Hall, GDM
 SCF converges when RMS gradient is below 1.0e-08
 ---------------------------------------
  Cycle       Energy         DIIS error
 ---------------------------------------
    1   -1754.6468857110      1.77e-02  Roothaan Step
 ---------------------------------------
  Cycle       Energy        RMS Gradient
 ---------------------------------------
    1   -1751.4740087384      2.40e-01   Descent step
    2   -1751.8643259191      6.18e-02   Descent step
    3   -1752.0008707337      2.18e-02   Normal BFGS step
    4   -1752.0144133579      1.83e-02   Normal BFGS step
    5   -1752.0157850188      8.21e-03   Normal BFGS step
    6   -1752.0170285859      3.84e-03   Normal BFGS step
    7   -1752.0171279985      2.22e-03   Normal BFGS step
    8   -1752.0171662447      1.31e-03   Normal BFGS step
    9   -1752.0171777829      5.72e-04   Normal BFGS step
   10   -1752.0171808268      2.18e-04   Normal BFGS step
   11   -1752.0171812876      1.18e-04   Normal BFGS step
   12   -1752.0171815239      4.54e-05   Normal BFGS step
   13   -1752.0171815431      2.63e-05   Normal BFGS step
   14   -1752.0171815478      1.54e-05   Normal BFGS step
   15   -1752.0171815493      8.07e-06   Normal BFGS step
   16   -1752.0171815499      5.88e-06   Normal BFGS step
   17   -1752.0171815501      2.54e-06   Normal BFGS step
   18   -1752.0171815501      6.01e-07   Normal BFGS step
   19   -1752.0171815501      3.31e-07   Normal BFGS step
   20   -1752.0171815501      1.03e-07   Normal BFGS step
   21   -1752.0171815501      8.77e-08   Normal BFGS step
   22   -1752.0171815501      2.84e-08   Normal BFGS step
   23   -1752.0171815501      1.88e-08   Normal BFGS step
   24   -1752.0171815501      9.50e-09  Convergence criterion met
 ---------------------------------------
 SCF time:   CPU 1612.32s  wall 105.00s 
<S^2> =          2.006825547

************** Final PCM Free Energy Summary **************
 G_electrostatic  =      -0.06678949 hartree =     -41.91103635 kcal/mol
 G_cavitation     =       0.00000000 hartree =       0.00000000 kcal/mol
 G_dispersion     =       0.00000000 hartree =       0.00000000 kcal/mol
 G_repulsion      =       0.00000000 hartree =       0.00000000 kcal/mol
 --------------------------------------------------
 Non-electrostatic Free Energy =       0.00000000 hartree =       0.00000000 kcal/mol
 Total                         =      -0.06678949 hartree =     -41.91103635 kcal/mol
 --------------------------------------------------
 SCF Energy (H0 + V/2)                       =   -1752.01718155 
 Solute Internal Energy (H0)                 =   -1751.95039206 
 Total Free Energy (H0 + V/2 + non-elec)     =   -1752.01718155 hartree
                                             = -1099407.37477740 kcal/mol
***********************************************************

 SCF   energy in the final basis set =    -1752.0171815501
 Total energy in the final basis set =    -1752.0171815501
 
 --------------------------------------------------------------
 
                    Orbital Energies (a.u.)
 --------------------------------------------------------------
 
 Alpha MOs
 -- Occupied --
-89.220 -89.096 -24.855 -24.855 -24.854 -24.846 -24.846 -24.846
-19.237 -19.231 -19.229 -14.417 -10.543 -10.531  -8.240  -8.132
 -6.189  -6.188  -6.188  -6.082  -6.079  -6.076  -1.441  -1.436
 -1.353  -1.353  -1.344  -1.343  -1.218  -1.133  -1.101  -0.993
 -0.839  -0.807  -0.786  -0.720  -0.702  -0.702  -0.696  -0.695
 -0.667  -0.623  -0.579  -0.576  -0.576  -0.572  -0.565  -0.549
 -0.545  -0.541  -0.540  -0.530  -0.529  -0.515  -0.508  -0.503
 -0.493  -0.454  -0.420  -0.401  -0.389  -0.378  -0.360  -0.343
 -0.332  -0.273
 -- Virtual --
  0.083   0.092   0.095   0.098   0.111   0.120   0.127   0.129
  0.131   0.137   0.148   0.155   0.160   0.162   0.168   0.180
  0.184   0.193   0.204   0.211   0.224   0.228   0.254   0.254
  0.265   0.271   0.281   0.293   0.301   0.303   0.306   0.314
  0.318   0.325   0.329   0.332   0.340   0.350   0.356   0.360
  0.373   0.376   0.379   0.387   0.391   0.396   0.400   0.405
  0.411   0.419   0.424   0.429   0.434   0.438   0.443   0.444
  0.456   0.465   0.474   0.476   0.484   0.487   0.494   0.497
  0.518   0.525   0.537   0.551   0.560   0.578   0.592   0.614
  0.617   0.655   0.662   0.680   0.757   0.766   0.787   0.798
  0.821   0.829   0.863   0.876   0.908   0.915   0.926   0.993
  1.039   1.068   1.090   1.107   1.126   1.141   1.158   1.181
  1.194   1.215   1.217   1.230   1.235   1.239   1.257   1.265
  1.277   1.280   1.301   1.310   1.325   1.348   1.395   1.416
  1.436   1.450   1.486   1.487   1.500   1.510   1.516   1.521
  1.531   1.542   1.554   1.568   1.575   1.589   1.604   1.612
  1.626   1.657   1.704   1.750   1.756   1.785   1.811   1.835
  1.903   1.907   1.931   1.936   1.956   1.965   1.991   1.999
  2.047   2.056   2.073   2.128   2.190   2.224   2.272   2.294
  2.315   2.636   2.737   2.850   2.867   2.917   2.921   2.926
  2.936   2.952   2.964   3.013   3.021   3.036   3.039   3.054
  3.061   3.071   3.136   3.209   3.255   3.542   3.579   3.706
  3.788   3.797   3.823   3.824   3.824   3.834   3.838   3.841
  3.845   3.846   3.849   3.864   3.868   3.894   3.949   3.961
  3.963   3.967   4.077   4.116   4.183   4.217   4.278   4.286
  4.292   4.307   4.311   4.433   4.473   4.997   5.008   5.025
  5.029   5.099   5.152   5.165   5.176   5.201   5.215   5.232
  5.276   5.436   6.376   6.394   6.400   6.415   6.427   6.438
  6.445   6.450   6.465   6.498   6.501   6.503   6.531   6.549
  6.872   6.877   6.888   6.896   8.134   8.283  17.410  17.501
 17.520  17.539  17.594  17.655  23.614  23.619  35.567  50.023
 50.025  50.062  66.871  66.880  66.908  66.912  66.933  66.958
189.382 189.501
 
 Beta MOs
 -- Occupied --
-89.220 -89.093 -24.852 -24.852 -24.851 -24.846 -24.846 -24.846
-19.231 -19.229 -19.227 -14.415 -10.543 -10.516  -8.240  -8.129
 -6.189  -6.188  -6.187  -6.079  -6.074  -6.067  -1.436  -1.431
 -1.345  -1.344  -1.344  -1.343  -1.216  -1.113  -1.100  -0.986
 -0.837  -0.790  -0.774  -0.714  -0.697  -0.695  -0.692  -0.692
 -0.630  -0.616  -0.574  -0.572  -0.566  -0.566  -0.560  -0.546
 -0.544  -0.534  -0.532  -0.529  -0.528  -0.512  -0.508  -0.483
 -0.470  -0.436  -0.409  -0.396  -0.386  -0.361  -0.341  -0.335
 -- Virtual --
 -0.017  -0.006   0.086   0.094   0.096   0.103   0.115   0.123
  0.129   0.133   0.134   0.140   0.151   0.157   0.162   0.163
  0.171   0.181   0.186   0.198   0.207   0.215   0.227   0.234
  0.260   0.268   0.269   0.283   0.289   0.301   0.304   0.305
  0.310   0.317   0.321   0.328   0.332   0.336   0.343   0.351
  0.359   0.363   0.375   0.377   0.381   0.389   0.393   0.398
  0.403   0.406   0.413   0.421   0.427   0.432   0.436   0.439
  0.445   0.447   0.457   0.465   0.476   0.478   0.487   0.490
  0.497   0.499   0.519   0.526   0.539   0.552   0.561   0.579
  0.595   0.616   0.619   0.656   0.665   0.682   0.763   0.781
  0.793   0.816   0.829   0.840   0.874   0.890   0.913   0.918
  0.938   0.998   1.045   1.073   1.095   1.110   1.131   1.150
  1.160   1.185   1.204   1.225   1.227   1.235   1.245   1.247
  1.264   1.271   1.281   1.283   1.306   1.314   1.326   1.352
  1.399   1.422   1.440   1.455   1.487   1.488   1.503   1.516
  1.521   1.523   1.534   1.547   1.555   1.570   1.585   1.594
  1.612   1.618   1.658   1.673   1.708   1.757   1.760   1.807
  1.815   1.840   1.908   1.923   1.932   1.942   1.974   1.981
  1.994   2.004   2.049   2.059   2.075   2.129   2.197   2.229
  2.273   2.298   2.319   2.641   2.739   2.868   2.907   2.918
  2.931   2.948   2.954   2.960   2.971   3.021   3.041   3.047
  3.054   3.058   3.072   3.079   3.137   3.209   3.255   3.555
  3.583   3.707   3.791   3.797   3.829   3.829   3.830   3.834
  3.838   3.841   3.852   3.853   3.855   3.864   3.869   3.894
  3.950   3.967   3.973   3.974   4.079   4.124   4.193   4.217
  4.279   4.286   4.292   4.314   4.318   4.444   4.473   5.005
  5.016   5.025   5.029   5.129   5.153   5.178   5.181   5.206
  5.217   5.240   5.277   5.436   6.382   6.398   6.402   6.416
  6.435   6.444   6.448   6.453   6.468   6.498   6.502   6.504
  6.531   6.550   6.875   6.877   6.894   6.900   8.137   8.283
 17.422  17.503  17.521  17.541  17.595  17.655  23.619  23.640
 35.570  50.024  50.033  50.062  66.873  66.881  66.908  66.913
 66.934  66.958 189.385 189.501
 --------------------------------------------------------------
 
          Ground-State Mulliken Net Atomic Charges

     Atom                 Charge (a.u.)    Spin (a.u.)
  --------------------------------------------------------
      1 S                     0.360039       0.594065
      2 C                     0.175440       0.862862
      3 N                    -0.433679       0.110651
      4 O                    -0.442321       0.329324
      5 F                    -0.071804       0.038488
      6 F                    -0.060728       0.037501
      7 F                    -0.072326       0.037345
      8 S                     0.300005      -0.030308
      9 C                    -0.051006       0.007159
     10 O                    -0.245355      -0.000322
     11 O                    -0.269649       0.014101
     12 F                    -0.059071      -0.000744
     13 F                    -0.078113      -0.000113
     14 F                    -0.051433      -0.000008
  --------------------------------------------------------
  Sum of atomic charges =    -1.000000
  Sum of spin   charges =     2.000000

 -----------------------------------------------------------------
                    Cartesian Multipole Moments
 -----------------------------------------------------------------
    Charge (ESU x 10^10)
                -4.8032
    Dipole Moment (Debye)
         X       4.3120      Y       1.6084      Z       5.5790
       Tot       7.2323
    Quadrupole Moments (Debye-Ang)
        XX    -101.2545     XY      -5.9992     YY    -100.4183
        XZ      -7.0111     YZ       0.5753     ZZ    -121.3093
    Octopole Moments (Debye-Ang^2)
       XXX     179.3633    XXY     -29.0696    XYY      66.3967
       YYY     -99.2469    XXZ      76.0558    XYZ       5.9051
       YYZ      70.4477    XZZ      79.8615    YZZ     -30.0673
       ZZZ     255.2822
    Hexadecapole Moments (Debye-Ang^3)
      XXXX   -1442.8835   XXXY     -42.5266   XXYY    -462.1764
      XYYY     -45.0328   YYYY   -1282.5362   XXXZ    -471.8966
      XXYZ     -36.7562   XYYZ    -160.1513   YYYZ     -73.2465
      XXZZ    -511.2594   XYZZ     -25.1838   YYZZ    -475.4107
      XZZZ    -498.4406   YZZZ     -54.4093   ZZZZ   -1690.7596
 -----------------------------------------------------------------
 Calculating MO derivatives via CPSCF
 Computing fast CPCM-SWIG hessian.
 D1JvT checksum  = 1990128 86999.4473340884
 D1KAT checksum  = 4983552 4995.8092542071
 D1JvT checksum  = 1990128 60651.7224111373
 D1KAT checksum  = 4983552 2265.1685965095
   1         3          42      0.142084    0.023312
   2         3          42      0.039507    0.007123
   3         3          42      0.009011    0.002622
   4         3          42      0.002420    0.000910
   5         4          41      0.000487    0.000173
   6        31          14      0.000082    0.000035
   7        42           3      0.000012    0.000008
   8        44           1      0.000001    0.000001
   9        45           0      0.000000    0.000000    Roots Converged
 Time for AOints: 422.4 s (CPU) 45.8 s (wall)
 ------------------------------------------------------------------------------
                     AOints        : Timing summary (seconds)
 ------------------------------------------------------------------------------
     job step          cpu (% of tot)      sys (% of tot)     wall (% of tot)
 ------------------------------------------------------------------------------
  cpscf_lag         0.2746E+04 (34.9)   0.1458E-01 (56.3)   0.7700E+03 (33.1)
  iterzp            0.4704E+04 (59.7)   0.9964E-02 (38.5)   0.1506E+04 (64.8)
  make_fx           0.0000E+00 ( 0.0)   0.0000E+00 ( 0.0)   0.0000E+00 ( 0.0)
  AOints            0.4224E+03 ( 5.4)   0.1324E-02 ( 5.1)   0.4577E+02 ( 2.0)
 ------------------------------------------------------------------------------
   Grand Totals     0.7873E+04          0.2589E-01          0.2323E+04
 ------------------------------------------------------------------------------
 Calculating analytic Hessian of the SCF energy
 Polarizability Matrix (a.u.)
            1           2           3
    1-105.6814560   3.4261238  -6.4092257
    2   3.4261238-101.3386431  11.0238795
    3  -6.4092257  11.0238795-129.3861050
atom: 0 element: 16
atom: 1 element: 6
atom: 2 element: 7
atom: 3 element: 8
atom: 4 element: 9
atom: 5 element: 9
atom: 6 element: 9
atom: 7 element: 16
atom: 8 element: 6
atom: 9 element: 8
atom: 10 element: 8
atom: 11 element: 9
atom: 12 element: 9
atom: 13 element: 9
 
 Direct stationary perturbation theory relativistic correction:
 
 rels  =       1.625102766710
 relv  =      -6.691971751652
 rel2e =       0.000000000000
 E_rel =      -5.066868984942
 
 Computing fast CPCM-SWIG hessian
 Hessian of the SCF Energy
            1           2           3           4           5           6
    1   0.2034795  -0.1207916  -0.1573178   0.0010389   0.0002920   0.0001364
    2  -0.1207916   0.1001309  -0.0786968  -0.0022713  -0.0047877  -0.0035382
    3  -0.1573178  -0.0786968   0.3666665   0.0012225   0.0018145   0.0049964
    4   0.0010389  -0.0022713   0.0012225   0.3883120  -0.0402402  -0.0240865
    5   0.0002920  -0.0047877   0.0018145  -0.0402402   0.2648909  -0.0712421
    6   0.0001364  -0.0035382   0.0049964  -0.0240865  -0.0712421   0.3696184
    7  -0.0298382   0.0591506  -0.0383879  -0.0010285   0.0039898   0.0014420
    8   0.0446286  -0.1051545   0.1048632   0.0031778   0.0028651   0.0057917
    9  -0.0306718   0.1045913  -0.0907437   0.0013040   0.0058807   0.0001462
   10  -0.1537742   0.0524619   0.2164919   0.0002315   0.0012249   0.0011383
   11   0.0561616   0.0137980  -0.0357795   0.0015292   0.0017489  -0.0003356
   12   0.2128284  -0.0336040  -0.2475344  -0.0005070  -0.0013127  -0.0023203
   13  -0.0001705   0.0004651  -0.0003230  -0.0293653  -0.0378712   0.0333464
   14  -0.0002614   0.0014011  -0.0005916  -0.0372837  -0.1768794   0.1396661
   15   0.0000136  -0.0000366  -0.0010514   0.0305025   0.1287089  -0.1380401
   16  -0.0003357  -0.0002985   0.0008559  -0.1525352   0.0694716   0.1135917
   17   0.0002550   0.0010362  -0.0009883   0.0787323  -0.0646804  -0.0687189
   18   0.0002447   0.0010565  -0.0015880   0.1193589  -0.0648130  -0.1230684
   19  -0.0005629   0.0018879  -0.0013011  -0.2065382   0.0061466  -0.1248889
   20  -0.0001160   0.0006355  -0.0003900  -0.0037007  -0.0249245  -0.0027428
   21  -0.0002039   0.0016765  -0.0015255  -0.1278391   0.0034268  -0.1094694
   22  -0.0225181   0.0235802  -0.0427891  -0.0006921  -0.0076602  -0.0042823
   23   0.0200499  -0.0064654   0.0021764  -0.0008841   0.0021604  -0.0005438
   24  -0.0252439   0.0206744  -0.0464432  -0.0029943  -0.0074409  -0.0043687
   25  -0.0019561   0.0058139  -0.0047292  -0.0024106  -0.0011571  -0.0020328
   26   0.0008524  -0.0038927   0.0068426  -0.0028235   0.0018795  -0.0016127
   27  -0.0056070  -0.0037270   0.0125199  -0.0012271   0.0007859   0.0008922
   28   0.0025164  -0.0048473   0.0021510  -0.0003471   0.0011335   0.0009139
   29  -0.0020997   0.0063451  -0.0022720   0.0002041  -0.0009368   0.0006075
   30  -0.0020464  -0.0064030   0.0076249   0.0016592   0.0030956   0.0014458
   31   0.0028069  -0.0079640   0.0145668   0.0005277   0.0029594   0.0016724
   32   0.0020483  -0.0075713   0.0089648   0.0007494   0.0010331   0.0010459
   33   0.0044003  -0.0031077   0.0031453   0.0003301   0.0012830   0.0007034
   34   0.0002232  -0.0012464   0.0014480   0.0011954  -0.0000006   0.0013019
   35  -0.0010153   0.0026206  -0.0030494   0.0019883  -0.0012915   0.0013375
   36   0.0003604   0.0003366  -0.0014452   0.0011561  -0.0001319   0.0002309
   37  -0.0007756  -0.0047189   0.0072132   0.0012174   0.0012097   0.0012370
   38   0.0006196   0.0018667  -0.0031611   0.0003081  -0.0007541   0.0000580
   39   0.0004139  -0.0003568   0.0001485   0.0007450   0.0001336   0.0002233
   40  -0.0001337  -0.0012218   0.0008986   0.0003941   0.0005018   0.0005106
   41  -0.0006234   0.0000374   0.0002670   0.0005142  -0.0003236   0.0002275
   42   0.0026932   0.0011347  -0.0047700   0.0003759  -0.0001883  -0.0009896
            7           8           9          10          11          12
    1  -0.0298382   0.0446286  -0.0306718  -0.1537742   0.0561616   0.2128284
    2   0.0591506  -0.1051545   0.1045913   0.0524619   0.0137980  -0.0336040
    3  -0.0383879   0.1048632  -0.0907437   0.2164919  -0.0357795  -0.2475344
    4  -0.0010285   0.0031778   0.0013040   0.0002315   0.0015292  -0.0005070
    5   0.0039898   0.0028651   0.0058807   0.0012249   0.0017489  -0.0013127
    6   0.0014420   0.0057917   0.0001462   0.0011383  -0.0003356  -0.0023203
    7   0.2473631  -0.0188935   0.1974830   0.0180085  -0.0149880  -0.0080238
    8  -0.0188935   0.1522131  -0.1144821  -0.0126743   0.0064422   0.0062069
    9   0.1974830  -0.1144821   0.2995456   0.0023174   0.0135749  -0.0336001
   10   0.0180085  -0.0126743   0.0023174   0.1359047  -0.0358472  -0.2206378
   11  -0.0149880   0.0064422   0.0135749  -0.0358472  -0.0227690   0.0249971
   12  -0.0080238   0.0062069  -0.0336001  -0.2206378   0.0249971   0.2766887
   13  -0.0001137  -0.0008503  -0.0007144  -0.0000538  -0.0003413   0.0001238
   14  -0.0016776  -0.0014093  -0.0027595  -0.0004030  -0.0010911   0.0003408
   15  -0.0000300  -0.0011621   0.0015961  -0.0000186   0.0006765   0.0003216
   16   0.0008772   0.0010008   0.0006927   0.0006800  -0.0001541  -0.0006179
   17  -0.0016291  -0.0017323  -0.0015533  -0.0003405  -0.0003174   0.0002038
   18  -0.0012189  -0.0017617  -0.0012322  -0.0006610  -0.0001034   0.0010062
   19  -0.0004307  -0.0035733  -0.0020210  -0.0003081  -0.0007444   0.0007815
   20  -0.0009653  -0.0013738  -0.0014294  -0.0000430  -0.0000262   0.0001279
   21  -0.0005348  -0.0028563  -0.0015245  -0.0004468  -0.0005890   0.0008758
   22  -0.1995164  -0.0190199  -0.1349876  -0.0073552  -0.0072097   0.0267977
   23  -0.0137200  -0.0518222  -0.0012520  -0.0066139   0.0015552   0.0064009
   24  -0.1193570  -0.0110102  -0.1362031  -0.0043902  -0.0033097   0.0122455
   25   0.0185823  -0.0034880   0.0078968  -0.0017118  -0.0008097   0.0026006
   26  -0.0219517   0.0156766  -0.0131918   0.0007165   0.0010492  -0.0035549
   27  -0.0220744   0.0125049  -0.0059150   0.0055424  -0.0019412  -0.0022948
   28  -0.0052585   0.0082124  -0.0225419   0.0018567   0.0011160  -0.0052727
   29  -0.0045048  -0.0057180   0.0002011   0.0001448  -0.0005708   0.0024959
   30  -0.0035143   0.0145052  -0.0269176   0.0033638   0.0008667  -0.0085965
   31  -0.0288791  -0.0134691  -0.0095605   0.0021389   0.0012137  -0.0047384
   32  -0.0024586  -0.0046275   0.0030126   0.0024532   0.0003043  -0.0044671
   33  -0.0148113  -0.0084536  -0.0152723   0.0010179   0.0009758   0.0002533
   34  -0.0007478   0.0014127   0.0002017   0.0005911  -0.0001624  -0.0002491
   35   0.0084816  -0.0006068   0.0030788  -0.0001603  -0.0004348   0.0015719
   36   0.0037348  -0.0002652   0.0011557  -0.0004954  -0.0000444   0.0005447
   37  -0.0164275   0.0103151  -0.0075393   0.0015578   0.0006588  -0.0028797
   38   0.0071359  -0.0041651   0.0038858  -0.0008219  -0.0001200   0.0010769
   39  -0.0019788   0.0012082   0.0000798  -0.0006668   0.0005459  -0.0004586
   40  -0.0025906   0.0032210  -0.0018590   0.0022339  -0.0004224  -0.0002053
   41   0.0020306  -0.0005874   0.0004428  -0.0000972   0.0004315  -0.0004833
   42   0.0072714  -0.0050888   0.0088852  -0.0025549   0.0004660   0.0028690
           13          14          15          16          17          18
    1  -0.0001705  -0.0002614   0.0000136  -0.0003357   0.0002550   0.0002447
    2   0.0004651   0.0014011  -0.0000366  -0.0002985   0.0010362   0.0010565
    3  -0.0003230  -0.0005916  -0.0010514   0.0008559  -0.0009883  -0.0015880
    4  -0.0293653  -0.0372837   0.0305025  -0.1525352   0.0787323   0.1193589
    5  -0.0378712  -0.1768794   0.1287089   0.0694716  -0.0646804  -0.0648130
    6   0.0333464   0.1396661  -0.1380401   0.1135917  -0.0687189  -0.1230684
    7  -0.0001137  -0.0016776  -0.0000300   0.0008772  -0.0016291  -0.0012189
    8  -0.0008503  -0.0014093  -0.0011621   0.0010008  -0.0017323  -0.0017617
    9  -0.0007144  -0.0027595   0.0015961   0.0006927  -0.0015533  -0.0012322
   10  -0.0000538  -0.0004030  -0.0000186   0.0006800  -0.0003405  -0.0006610
   11  -0.0003413  -0.0010911   0.0006765  -0.0001541  -0.0003174  -0.0001034
   12   0.0001238   0.0003408   0.0003216  -0.0006179   0.0002038   0.0010062
   13   0.0396649   0.0264953  -0.0426746  -0.0167112  -0.0202925   0.0395584
   14   0.0264953   0.1509400  -0.1854961  -0.0176735   0.0280007   0.0155364
   15  -0.0426746  -0.1854961   0.2320106   0.0410502   0.0199477  -0.0496121
   16  -0.0167112  -0.0176735   0.0410502   0.2436306  -0.0790530  -0.1619972
   17  -0.0202925   0.0280007   0.0199477  -0.0790530   0.0301609   0.0412027
   18   0.0395584   0.0155364  -0.0496121  -0.1619972   0.0412027   0.1440196
   19   0.0077783   0.0296499  -0.0283366  -0.0754386   0.0218730   0.0045851
   20   0.0325646  -0.0005014   0.0369600   0.0263916   0.0080448   0.0097745
   21  -0.0291156   0.0323224  -0.0457554   0.0069293   0.0093166   0.0300374
   22   0.0007996   0.0030861   0.0001345  -0.0015696   0.0022446   0.0018641
   23   0.0000766  -0.0009207   0.0007984   0.0005511  -0.0005306  -0.0000577
   24   0.0011993   0.0032815   0.0000363  -0.0003351   0.0022536   0.0019211
   25   0.0004449   0.0003615   0.0005123   0.0005498   0.0002183   0.0004613
   26   0.0006518  -0.0010588   0.0010411   0.0009701  -0.0005989  -0.0001740
   27   0.0000573  -0.0000165  -0.0004599   0.0009583  -0.0006806  -0.0009070
   28   0.0000109  -0.0003076   0.0000075   0.0003153  -0.0002803  -0.0002666
   29   0.0000466   0.0004271  -0.0002061  -0.0000584   0.0002188   0.0000205
   30  -0.0005156  -0.0013613   0.0004128   0.0001707  -0.0007303  -0.0007078
   31  -0.0003149  -0.0012501   0.0000748   0.0006033  -0.0009610  -0.0009062
   32  -0.0002522  -0.0004650  -0.0000622   0.0001286  -0.0003399  -0.0004505
   33  -0.0001585  -0.0005488   0.0000935   0.0001916  -0.0003561  -0.0003038
   34  -0.0016053  -0.0001504  -0.0010792   0.0000441  -0.0000555  -0.0002366
   35  -0.0005506   0.0011089  -0.0009053  -0.0007464   0.0005652  -0.0001302
   36  -0.0006784  -0.0001787   0.0001694  -0.0006232   0.0000761   0.0000322
   37  -0.0003784  -0.0004904  -0.0001265  -0.0000953  -0.0003509  -0.0004278
   38  -0.0000949   0.0002848  -0.0001638  -0.0001822   0.0002083   0.0000512
   39  -0.0001952  -0.0001189  -0.0000209  -0.0002540  -0.0000409  -0.0000733
   40   0.0000147  -0.0000951  -0.0000299  -0.0000146  -0.0003603  -0.0003583
   41  -0.0000471   0.0001629  -0.0001005  -0.0003477  -0.0000355  -0.0001511
   42   0.0000902  -0.0000758   0.0002995  -0.0006130   0.0000681   0.0004763
           19          20          21          22          23          24
    1  -0.0005629  -0.0001160  -0.0002039  -0.0225181   0.0200499  -0.0252439
    2   0.0018879   0.0006355   0.0016765   0.0235802  -0.0064654   0.0206744
    3  -0.0013011  -0.0003900  -0.0015255  -0.0427891   0.0021764  -0.0464432
    4  -0.2065382  -0.0037007  -0.1278391  -0.0006921  -0.0008841  -0.0029943
    5   0.0061466  -0.0249245   0.0034268  -0.0076602   0.0021604  -0.0074409
    6  -0.1248889  -0.0027428  -0.1094694  -0.0042823  -0.0005438  -0.0043687
    7  -0.0004307  -0.0009653  -0.0005348  -0.1995164  -0.0137200  -0.1193570
    8  -0.0035733  -0.0013738  -0.0028563  -0.0190199  -0.0518222  -0.0110102
    9  -0.0020210  -0.0014294  -0.0015245  -0.1349876  -0.0012520  -0.1362031
   10  -0.0003081  -0.0000430  -0.0004468  -0.0073552  -0.0066139  -0.0043902
   11  -0.0007444  -0.0000262  -0.0005890  -0.0072097   0.0015552  -0.0033097
   12   0.0007815   0.0001279   0.0008758   0.0267977   0.0064009   0.0122455
   13   0.0077783   0.0325646  -0.0291156   0.0007996   0.0000766   0.0011993
   14   0.0296499  -0.0005014   0.0323224   0.0030861  -0.0009207   0.0032815
   15  -0.0283366   0.0369600  -0.0457554   0.0001345   0.0007984   0.0000363
   16  -0.0754386   0.0263916   0.0069293  -0.0015696   0.0005511  -0.0003351
   17   0.0218730   0.0080448   0.0093166   0.0022446  -0.0005306   0.0022536
   18   0.0045851   0.0097745   0.0300374   0.0018641  -0.0000577   0.0019211
   19   0.2752985  -0.0548522   0.1508932   0.0015138   0.0003243   0.0018997
   20  -0.0548522   0.0183224  -0.0429161   0.0014979  -0.0002116   0.0013459
   21   0.1508932  -0.0429161   0.1268944   0.0015842   0.0001500   0.0016074
   22   0.0015138   0.0014979   0.0015842   0.4785627   0.2130993  -0.0085478
   23   0.0003243  -0.0002116   0.0001500   0.2130993   0.7031765  -0.1913967
   24   0.0018997   0.0013459   0.0016074  -0.0085478  -0.1913967   0.6972137
   25   0.0012640   0.0003438   0.0010293  -0.1130169   0.0863917   0.0537261
   26   0.0009532  -0.0002589   0.0006543   0.0876257  -0.1060712  -0.0514321
   27   0.0003483  -0.0001379   0.0000476   0.0518064  -0.0494719  -0.0535741
   28  -0.0001110  -0.0001269  -0.0001532  -0.0274863  -0.0377927   0.1080004
   29   0.0000741   0.0002078   0.0000976  -0.0410008  -0.0992145   0.2070763
   30  -0.0008993  -0.0004087  -0.0006763   0.1211575   0.2088035  -0.4637313
   31  -0.0009131  -0.0006192  -0.0008570  -0.1151026  -0.2311207   0.0116663
   32  -0.0007513  -0.0002132  -0.0006081  -0.2236971  -0.4393441   0.0130169
   33  -0.0003688  -0.0002193  -0.0002796   0.0070426   0.0066777   0.0108126
   34  -0.0006843  -0.0000547  -0.0005436   0.0065010   0.0046610  -0.0004678
   35  -0.0007119   0.0001443  -0.0005130  -0.0340636  -0.0122853   0.0111804
   36  -0.0004139   0.0000221  -0.0001926  -0.0078877  -0.0040843   0.0024952
   37  -0.0006371  -0.0002595  -0.0005246  -0.0072260  -0.0169170  -0.0270544
   38  -0.0000667   0.0000985  -0.0000261   0.0039001   0.0042910   0.0110473
   39  -0.0003038  -0.0000479  -0.0001894   0.0015990  -0.0039561  -0.0062082
   40  -0.0002306  -0.0000603  -0.0002173   0.0071060  -0.0181055   0.0118987
   41  -0.0002092   0.0000561  -0.0001354  -0.0023826   0.0056824  -0.0052865
   42   0.0000256   0.0000618   0.0001502  -0.0134915   0.0257555  -0.0158034
           25          26          27          28          29          30
    1  -0.0019561   0.0008524  -0.0056070   0.0025164  -0.0020997  -0.0020464
    2   0.0058139  -0.0038927  -0.0037270  -0.0048473   0.0063451  -0.0064030
    3  -0.0047292   0.0068426   0.0125199   0.0021510  -0.0022720   0.0076249
    4  -0.0024106  -0.0028235  -0.0012271  -0.0003471   0.0002041   0.0016592
    5  -0.0011571   0.0018795   0.0007859   0.0011335  -0.0009368   0.0030956
    6  -0.0020328  -0.0016127   0.0008922   0.0009139   0.0006075   0.0014458
    7   0.0185823  -0.0219517  -0.0220744  -0.0052585  -0.0045048  -0.0035143
    8  -0.0034880   0.0156766   0.0125049   0.0082124  -0.0057180   0.0145052
    9   0.0078968  -0.0131918  -0.0059150  -0.0225419   0.0002011  -0.0269176
   10  -0.0017118   0.0007165   0.0055424   0.0018567   0.0001448   0.0033638
   11  -0.0008097   0.0010492  -0.0019412   0.0011160  -0.0005708   0.0008667
   12   0.0026006  -0.0035549  -0.0022948  -0.0052727   0.0024959  -0.0085965
   13   0.0004449   0.0006518   0.0000573   0.0000109   0.0000466  -0.0005156
   14   0.0003615  -0.0010588  -0.0000165  -0.0003076   0.0004271  -0.0013613
   15   0.0005123   0.0010411  -0.0004599   0.0000075  -0.0002061   0.0004128
   16   0.0005498   0.0009701   0.0009583   0.0003153  -0.0000584   0.0001707
   17   0.0002183  -0.0005989  -0.0006806  -0.0002803   0.0002188  -0.0007303
   18   0.0004613  -0.0001740  -0.0009070  -0.0002666   0.0000205  -0.0007078
   19   0.0012640   0.0009532   0.0003483  -0.0001110   0.0000741  -0.0008993
   20   0.0003438  -0.0002589  -0.0001379  -0.0001269   0.0002078  -0.0004087
   21   0.0010293   0.0006543   0.0000476  -0.0001532   0.0000976  -0.0006763
   22  -0.1130169   0.0876257   0.0518064  -0.0274863  -0.0410008   0.1211575
   23   0.0863917  -0.1060712  -0.0494719  -0.0377927  -0.0992145   0.2088035
   24   0.0537261  -0.0514321  -0.0535741   0.1080004   0.2070763  -0.4637313
   25   0.3856146  -0.0061574  -0.0110143   0.0077345   0.0013963  -0.0207364
   26  -0.0061574   0.3943106   0.0025338  -0.0164267  -0.0018361   0.0283784
   27  -0.0110143   0.0025338   0.3954628   0.0045422  -0.0047682  -0.0076706
   28   0.0077345  -0.0164267   0.0045422   0.0349847   0.0477169  -0.1097121
   29   0.0013963  -0.0018361  -0.0047682   0.0477169   0.1109373  -0.2242668
   30  -0.0207364   0.0283784  -0.0076706  -0.1097121  -0.2242668   0.5107111
   31  -0.0064334   0.0027426  -0.0001315  -0.0054575  -0.0074831  -0.0079786
   32  -0.0373277   0.0004646   0.0150728  -0.0101504  -0.0132305  -0.0053371
   33  -0.0073614   0.0012735  -0.0057784   0.0120050   0.0270789  -0.0072421
   34  -0.0439584  -0.0594164  -0.0011886  -0.0006405   0.0013395   0.0003278
   35  -0.0583282  -0.2448763  -0.0183256   0.0070026   0.0036220  -0.0080448
   36  -0.0011059  -0.0179698  -0.0218087   0.0004460  -0.0008240   0.0020589
   37  -0.1973377   0.0213451  -0.0981814  -0.0014545   0.0014172   0.0082663
   38   0.0221672  -0.0245797   0.0078739   0.0018245  -0.0000756  -0.0044668
   39  -0.0973359   0.0073376  -0.0779151  -0.0000505  -0.0010653   0.0058956
   40  -0.0473652  -0.0090819   0.0761695  -0.0066630   0.0028072   0.0104574
   41  -0.0094246  -0.0302078   0.0402975   0.0029260  -0.0001758  -0.0046308
   42   0.0780896   0.0398740  -0.2325990   0.0099311  -0.0041754  -0.0126070
           31          32          33          34          35          36
    1   0.0028069   0.0020483   0.0044003   0.0002232  -0.0010153   0.0003604
    2  -0.0079640  -0.0075713  -0.0031077  -0.0012464   0.0026206   0.0003366
    3   0.0145668   0.0089648   0.0031453   0.0014480  -0.0030494  -0.0014452
    4   0.0005277   0.0007494   0.0003301   0.0011954   0.0019883   0.0011561
    5   0.0029594   0.0010331   0.0012830  -0.0000006  -0.0012915  -0.0001319
    6   0.0016724   0.0010459   0.0007034   0.0013019   0.0013375   0.0002309
    7  -0.0288791  -0.0024586  -0.0148113  -0.0007478   0.0084816   0.0037348
    8  -0.0134691  -0.0046275  -0.0084536   0.0014127  -0.0006068  -0.0002652
    9  -0.0095605   0.0030126  -0.0152723   0.0002017   0.0030788   0.0011557
   10   0.0021389   0.0024532   0.0010179   0.0005911  -0.0001603  -0.0004954
   11   0.0012137   0.0003043   0.0009758  -0.0001624  -0.0004348  -0.0000444
   12  -0.0047384  -0.0044671   0.0002533  -0.0002491   0.0015719   0.0005447
   13  -0.0003149  -0.0002522  -0.0001585  -0.0016053  -0.0005506  -0.0006784
   14  -0.0012501  -0.0004650  -0.0005488  -0.0001504   0.0011089  -0.0001787
   15   0.0000748  -0.0000622   0.0000935  -0.0010792  -0.0009053   0.0001694
   16   0.0006033   0.0001286   0.0001916   0.0000441  -0.0007464  -0.0006232
   17  -0.0009610  -0.0003399  -0.0003561  -0.0000555   0.0005652   0.0000761
   18  -0.0009062  -0.0004505  -0.0003038  -0.0002366  -0.0001302   0.0000322
   19  -0.0009131  -0.0007513  -0.0003688  -0.0006843  -0.0007119  -0.0004139
   20  -0.0006192  -0.0002132  -0.0002193  -0.0000547   0.0001443   0.0000221
   21  -0.0008570  -0.0006081  -0.0002796  -0.0005436  -0.0005130  -0.0001926
   22  -0.1151026  -0.2236971   0.0070426   0.0065010  -0.0340636  -0.0078877
   23  -0.2311207  -0.4393441   0.0066777   0.0046610  -0.0122853  -0.0040843
   24   0.0116663   0.0130169   0.0108126  -0.0004678   0.0111804   0.0024952
   25  -0.0064334  -0.0373277  -0.0073614  -0.0439584  -0.0583282  -0.0011059
   26   0.0027426   0.0004646   0.0012735  -0.0594164  -0.2448763  -0.0179698
   27  -0.0001315   0.0150728  -0.0057784  -0.0011886  -0.0183256  -0.0218087
   28  -0.0054575  -0.0101504   0.0120050  -0.0006405   0.0070026   0.0004460
   29  -0.0074831  -0.0132305   0.0270789   0.0013395   0.0036220  -0.0008240
   30  -0.0079786  -0.0053371  -0.0072421   0.0003278  -0.0080448   0.0020589
   31   0.1478108   0.2485080  -0.0065976   0.0003167   0.0043210   0.0009341
   32   0.2485080   0.4803032  -0.0180772   0.0042154  -0.0185861  -0.0052177
   33  -0.0065976  -0.0180772   0.0102692   0.0008356  -0.0051165  -0.0005057
   34   0.0003167   0.0042154   0.0008356   0.0825937   0.1298486   0.0056781
   35   0.0043210  -0.0185861  -0.0051165   0.1298486   0.3179581   0.0035791
   36   0.0009341  -0.0052177  -0.0005057   0.0056781   0.0035791   0.0310639
   37   0.0025615   0.0091278   0.0039918  -0.0383733  -0.0335750  -0.0216794
   38   0.0013096   0.0004767  -0.0011322  -0.0503814  -0.0121624  -0.0256230
   39   0.0017923   0.0010604   0.0011541  -0.0235559  -0.0186814  -0.0024022
   40   0.0003348   0.0074066  -0.0005171  -0.0054554  -0.0224910   0.0205745
   41   0.0018130   0.0017958  -0.0002775  -0.0300095  -0.0357759   0.0503252
   42   0.0000631  -0.0079535   0.0029507   0.0175278   0.0340185  -0.0113964
           37          38          39          40          41          42
    1  -0.0007756   0.0006196   0.0004139  -0.0001337  -0.0006234   0.0026932
    2  -0.0047189   0.0018667  -0.0003568  -0.0012218   0.0000374   0.0011347
    3   0.0072132  -0.0031611   0.0001485   0.0008986   0.0002670  -0.0047700
    4   0.0012174   0.0003081   0.0007450   0.0003941   0.0005142   0.0003759
    5   0.0012097  -0.0007541   0.0001336   0.0005018  -0.0003236  -0.0001883
    6   0.0012370   0.0000580   0.0002233   0.0005106   0.0002275  -0.0009896
    7  -0.0164275   0.0071359  -0.0019788  -0.0025906   0.0020306   0.0072714
    8   0.0103151  -0.0041651   0.0012082   0.0032210  -0.0005874  -0.0050888
    9  -0.0075393   0.0038858   0.0000798  -0.0018590   0.0004428   0.0088852
   10   0.0015578  -0.0008219  -0.0006668   0.0022339  -0.0000972  -0.0025549
   11   0.0006588  -0.0001200   0.0005459  -0.0004224   0.0004315   0.0004660
   12  -0.0028797   0.0010769  -0.0004586  -0.0002053  -0.0004833   0.0028690
   13  -0.0003784  -0.0000949  -0.0001952   0.0000147  -0.0000471   0.0000902
   14  -0.0004904   0.0002848  -0.0001189  -0.0000951   0.0001629  -0.0000758
   15  -0.0001265  -0.0001638  -0.0000209  -0.0000299  -0.0001005   0.0002995
   16  -0.0000953  -0.0001822  -0.0002540  -0.0000146  -0.0003477  -0.0006130
   17  -0.0003509   0.0002083  -0.0000409  -0.0003603  -0.0000355   0.0000681
   18  -0.0004278   0.0000512  -0.0000733  -0.0003583  -0.0001511   0.0004763
   19  -0.0006371  -0.0000667  -0.0003038  -0.0002306  -0.0002092   0.0000256
   20  -0.0002595   0.0000985  -0.0000479  -0.0000603   0.0000561   0.0000618
   21  -0.0005246  -0.0000261  -0.0001894  -0.0002173  -0.0001354   0.0001502
   22  -0.0072260   0.0039001   0.0015990   0.0071060  -0.0023826  -0.0134915
   23  -0.0169170   0.0042910  -0.0039561  -0.0181055   0.0056824   0.0257555
   24  -0.0270544   0.0110473  -0.0062082   0.0118987  -0.0052865  -0.0158034
   25  -0.1973377   0.0221672  -0.0973359  -0.0473652  -0.0094246   0.0780896
   26   0.0213451  -0.0245797   0.0073376  -0.0090819  -0.0302078   0.0398740
   27  -0.0981814   0.0078739  -0.0779151   0.0761695   0.0402975  -0.2325990
   28  -0.0014545   0.0018245  -0.0000505  -0.0066630   0.0029260   0.0099311
   29   0.0014172  -0.0000756  -0.0010653   0.0028072  -0.0001758  -0.0041754
   30   0.0082663  -0.0044668   0.0058956   0.0104574  -0.0046308  -0.0126070
   31   0.0025615   0.0013096   0.0017923   0.0003348   0.0018130   0.0000631
   32   0.0091278   0.0004767   0.0010604   0.0074066   0.0017958  -0.0079535
   33   0.0039918  -0.0011322   0.0011541  -0.0005171  -0.0002775   0.0029507
   34  -0.0383733  -0.0503814  -0.0235559  -0.0054554  -0.0300095   0.0175278
   35  -0.0335750  -0.0121624  -0.0186814  -0.0224910  -0.0357759   0.0340185
   36  -0.0216794  -0.0256230  -0.0024022   0.0205745   0.0503252  -0.0113964
   37   0.2491911   0.0067912   0.1612875   0.0081778   0.0054468  -0.0235828
   38   0.0067912   0.0286310  -0.0013705   0.0074911   0.0059999   0.0119505
   39   0.1612875  -0.0013705   0.1457982  -0.0414968   0.0153522  -0.0660317
   40   0.0081778   0.0074911  -0.0414968   0.0441919   0.0304105  -0.0758257
   41   0.0054468   0.0059999   0.0153522   0.0304105   0.0529399  -0.0958473
   42  -0.0235828   0.0119505  -0.0660317  -0.0758257  -0.0958473   0.3285661
 Gradient time:  CPU 9800.89 s  wall 3337.35 s
 **********************************************************************
 **                                                                  **
 **                       VIBRATIONAL ANALYSIS                       **
 **                       --------------------                       **
 **                                                                  **
 **        VIBRATIONAL FREQUENCIES (CM**-1) AND NORMAL MODES         **
 **     FORCE CONSTANTS (mDYN/ANGSTROM) AND REDUCED MASSES (AMU)     **
 **                  INFRARED INTENSITIES (KM/MOL)                   **
 **                                                                  **
 **********************************************************************
 

 Mode:                 1                      2                      3
 Frequency:       -47.63                 -44.12                 -21.07
 Force Cnst:      0.0235                 0.0211                 0.0048
 Red. Mass:      17.5810                18.4092                18.2546
 IR Active:          YES                    YES                    YES
 IR Intens:        2.750                  0.388                  0.248
 Raman Active:       YES                    YES                    YES
               X      Y      Z        X      Y      Z        X      Y      Z
 S         -0.023  0.048 -0.089   -0.019  0.003 -0.012   -0.143 -0.047  0.135
 C          0.288  0.099  0.311   -0.192  0.122  0.135    0.164  0.007 -0.033
 N         -0.093 -0.032 -0.137    0.020 -0.058 -0.081   -0.070  0.062  0.214
 O          0.023  0.098 -0.059    0.010  0.137 -0.006   -0.242 -0.182  0.077
 F          0.147  0.007  0.201   -0.182  0.099  0.118   -0.142 -0.090 -0.183
 F          0.188 -0.002  0.226    0.243  0.486  0.526    0.284 -0.009  0.135
 F          0.298  0.390  0.366   -0.014 -0.385 -0.277    0.337  0.225 -0.242
 S         -0.120 -0.104 -0.094    0.004 -0.063 -0.056    0.067  0.088  0.026
 C         -0.086 -0.058 -0.111    0.022 -0.040 -0.054   -0.102 -0.061 -0.021
 O         -0.169 -0.188 -0.144   -0.010 -0.091 -0.072    0.217  0.249  0.130
 O         -0.119 -0.105 -0.006   -0.009 -0.056 -0.027    0.139  0.042 -0.214
 F         -0.059 -0.067 -0.157    0.028 -0.041 -0.080   -0.201 -0.028  0.131
 F         -0.103 -0.058 -0.087    0.009 -0.045 -0.035   -0.018 -0.085 -0.145
 F         -0.067 -0.013 -0.092    0.042 -0.016 -0.041   -0.217 -0.183 -0.087
 TransDip   0.031  0.029  0.031   -0.007  0.008  0.017   -0.003 -0.011 -0.011

 Mode:                 4                      5                      6
 Frequency:        16.75                  26.45                  36.97
 Force Cnst:      0.0030                 0.0077                 0.0139
 Red. Mass:      18.0083                18.5699                17.2724
 IR Active:          YES                    YES                    YES
 IR Intens:        1.973                  0.288                  5.675
 Raman Active:       YES                    YES                    YES
               X      Y      Z        X      Y      Z        X      Y      Z
 S         -0.034 -0.045  0.047   -0.055 -0.079 -0.037   -0.028  0.113  0.047
 C          0.107  0.243 -0.181    0.036  0.173 -0.011    0.052 -0.137 -0.070
 N         -0.034 -0.060  0.035   -0.016 -0.073 -0.041   -0.015  0.040 -0.025
 O         -0.215 -0.244 -0.065    0.012  0.034  0.000    0.331  0.618  0.255
 F          0.147  0.742  0.268    0.443  0.020 -0.064    0.025  0.054  0.092
 F          0.025 -0.192 -0.077   -0.003  0.518 -0.233    0.026 -0.323 -0.015
 F          0.057 -0.061 -0.183   -0.143 -0.051  0.207    0.054 -0.212 -0.090
 S         -0.025 -0.071  0.022   -0.018 -0.013 -0.044   -0.019  0.002 -0.012
 C          0.005 -0.029 -0.002   -0.046 -0.119  0.083   -0.075 -0.035 -0.044
 O         -0.006 -0.100  0.013   -0.029  0.136  0.021   -0.025 -0.001 -0.014
 O         -0.046 -0.061  0.038    0.013 -0.036 -0.191    0.018 -0.017 -0.001
 F          0.075 -0.057  0.044   -0.014 -0.139  0.348   -0.036 -0.059  0.183
 F          0.036  0.048 -0.044    0.007  0.049  0.010    0.034  0.099 -0.202
 F         -0.062 -0.035 -0.024   -0.144 -0.337 -0.006   -0.272 -0.178 -0.138
 TransDip   0.023  0.039 -0.003   -0.002 -0.006  0.016   -0.035 -0.065 -0.020

 Mode:                 7                      8                      9
 Frequency:        46.43                  56.55                  65.79
 Force Cnst:      0.0242                 0.0353                 0.0478
 Red. Mass:      19.0336                18.7530                18.7456
 IR Active:          YES                    YES                    YES
 IR Intens:        0.275                  3.941                  5.897
 Raman Active:       YES                    YES                    YES
               X      Y      Z        X      Y      Z        X      Y      Z
 S         -0.081 -0.248 -0.050   -0.267 -0.098  0.067   -0.044 -0.369 -0.107
 C         -0.104  0.105  0.029    0.046  0.019 -0.026   -0.009  0.094 -0.002
 N          0.059 -0.268 -0.108    0.071 -0.171 -0.111   -0.156 -0.039  0.228
 O          0.090  0.105  0.037   -0.171  0.461  0.070    0.598 -0.126  0.346
 F         -0.373  0.028 -0.094    0.035  0.119  0.059    0.043  0.144  0.049
 F         -0.098 -0.007  0.090   -0.019 -0.118 -0.047   -0.022  0.089 -0.015
 F          0.005  0.402 -0.069    0.021  0.028  0.011   -0.037  0.031  0.023
 S         -0.010 -0.080 -0.039    0.058  0.015 -0.116   -0.025  0.039  0.045
 C          0.160  0.036  0.066    0.072 -0.080  0.067   -0.075  0.064 -0.087
 O          0.003 -0.065 -0.029    0.093  0.203 -0.023    0.162  0.086  0.104
 O         -0.171  0.004 -0.062    0.021  0.027 -0.321   -0.082  0.064 -0.107
 F          0.370 -0.056  0.281   -0.058 -0.019 -0.142   -0.142  0.094 -0.241
 F          0.203  0.346  0.012   -0.103 -0.266  0.318   -0.087 -0.083 -0.075
 F          0.032 -0.090 -0.004    0.397 -0.022  0.172   -0.042  0.190 -0.037
 TransDip  -0.001  0.001  0.017   -0.013 -0.050  0.037   -0.049 -0.030 -0.053

 Mode:                10                     11                     12
 Frequency:       156.39                 189.44                 205.15
 Force Cnst:      0.2817                 0.3757                 0.4296
 Red. Mass:      19.5503                17.7676                17.3252
 IR Active:          YES                    YES                    YES
 IR Intens:        1.908                 16.419                  6.074
 Raman Active:       YES                    YES                    YES
               X      Y      Z        X      Y      Z        X      Y      Z
 S         -0.162 -0.289 -0.223   -0.286  0.003 -0.156   -0.098 -0.022 -0.089
 C          0.017  0.023  0.009   -0.004 -0.010 -0.009   -0.007 -0.008 -0.001
 N          0.367  0.025 -0.142   -0.215  0.490  0.251   -0.052  0.179  0.078
 O         -0.136  0.235 -0.269    0.053 -0.066  0.107   -0.003  0.046 -0.022
 F          0.018  0.030  0.012   -0.002 -0.003 -0.004   -0.011 -0.008 -0.002
 F          0.011  0.022  0.003    0.001  0.002 -0.003   -0.001 -0.001  0.005
 F          0.014  0.030  0.015    0.001  0.002 -0.004    0.001  0.005 -0.003
 S          0.139  0.088  0.144    0.039  0.055 -0.054   -0.016 -0.060  0.051
 C          0.015  0.030  0.062    0.028  0.012 -0.081   -0.056 -0.095  0.059
 O         -0.131 -0.028  0.039    0.100 -0.321 -0.205   -0.282  0.256  0.137
 O          0.180  0.076  0.488    0.258 -0.053  0.241    0.506 -0.342 -0.136
 F         -0.210  0.119  0.076    0.035  0.004  0.066    0.355 -0.247 -0.172
 F          0.151 -0.217 -0.149   -0.110  0.173  0.136   -0.041  0.089  0.045
 F         -0.162  0.066  0.019    0.289 -0.267 -0.085   -0.219  0.267  0.113
 TransDip   0.005 -0.039  0.020   -0.069  0.002 -0.110   -0.050 -0.060 -0.008

 Mode:                13                     14                     15
 Frequency:       289.18                 314.21                 325.84
 Force Cnst:      0.8801                 1.0174                 1.1191
 Red. Mass:      17.8630                17.4893                17.8900
 IR Active:          YES                    YES                    YES
 IR Intens:        0.900                  2.184                  0.758
 Raman Active:       YES                    YES                    YES
               X      Y      Z        X      Y      Z        X      Y      Z
 S         -0.119  0.092 -0.019   -0.004  0.072 -0.226   -0.070  0.069 -0.063
 C         -0.003 -0.003 -0.000   -0.003 -0.003  0.001   -0.003 -0.003 -0.005
 N         -0.177  0.177  0.084   -0.120  0.211  0.126   -0.151  0.102  0.057
 O          0.063 -0.115  0.147   -0.036  0.173 -0.262    0.031 -0.028  0.029
 F         -0.003 -0.004 -0.001   -0.002 -0.004  0.000   -0.000 -0.002 -0.004
 F         -0.000  0.000  0.003   -0.000  0.002  0.002   -0.004 -0.007 -0.006
 F          0.000 -0.000 -0.002    0.001  0.000 -0.002   -0.004 -0.003 -0.002
 S         -0.114  0.100  0.022   -0.025  0.006  0.088    0.013 -0.100 -0.102
 C          0.229 -0.107  0.009   -0.035 -0.142  0.081    0.082  0.091  0.200
 O         -0.381  0.222  0.018    0.553 -0.091  0.176    0.070 -0.350 -0.201
 O         -0.224  0.160  0.061   -0.343  0.174  0.004    0.090 -0.150 -0.357
 F          0.211 -0.111 -0.006    0.256 -0.277 -0.034   -0.159  0.200  0.369
 F          0.426 -0.394 -0.249   -0.038 -0.181  0.092    0.273 -0.208 -0.053
 F          0.203 -0.099 -0.007   -0.203  0.050  0.100   -0.109  0.384  0.253
 TransDip   0.012  0.011 -0.026   -0.017 -0.017 -0.041   -0.005  0.025 -0.012

 Mode:                16                     17                     18
 Frequency:       384.32                 466.38                 509.37
 Force Cnst:      1.6089                 2.3399                 2.7912
 Red. Mass:      18.4878                18.2579                18.2592
 IR Active:          YES                    YES                    YES
 IR Intens:        6.877                114.857                  2.622
 Raman Active:       YES                    YES                    YES
               X      Y      Z        X      Y      Z        X      Y      Z
 S          0.109 -0.029 -0.119    0.214 -0.232  0.131   -0.004  0.005 -0.002
 C         -0.001 -0.002  0.000   -0.004 -0.011 -0.007   -0.020 -0.129  0.297
 N         -0.289  0.010  0.247   -0.060  0.216  0.418    0.010  0.001 -0.007
 O         -0.090  0.250 -0.310   -0.114  0.215 -0.205    0.001 -0.006  0.005
 F         -0.002  0.001  0.002   -0.005  0.002  0.003   -0.040 -0.150  0.445
 F          0.001 -0.000 -0.001    0.000  0.004 -0.006   -0.427  0.243 -0.311
 F          0.001 -0.002  0.001    0.003 -0.003 -0.001    0.479 -0.010 -0.321
 S         -0.150 -0.177  0.197    0.119  0.132  0.104    0.001 -0.003  0.003
 C          0.057  0.072 -0.049    0.031  0.013  0.008    0.002  0.001  0.005
 O          0.035  0.098  0.379   -0.384 -0.295 -0.209   -0.000 -0.003  0.003
 O          0.011 -0.291 -0.125   -0.066  0.222 -0.350   -0.003 -0.001 -0.006
 F         -0.217  0.195 -0.009    0.082  0.014 -0.104   -0.004  0.003 -0.007
 F          0.156  0.164 -0.185   -0.026 -0.028  0.112    0.006  0.005  0.002
 F          0.345 -0.109 -0.042   -0.111 -0.102 -0.065   -0.003 -0.005  0.003
 TransDip   0.016 -0.080  0.021    0.238 -0.105  0.224   -0.005 -0.013  0.050

 Mode:                19                     20                     21
 Frequency:       511.29                 520.43                 554.13
 Force Cnst:      2.8160                 2.8870                 3.2379
 Red. Mass:      18.2830                18.0914                17.8974
 IR Active:          YES                    YES                    YES
 IR Intens:        1.885                 17.090                 12.328
 Raman Active:       YES                    YES                    YES
               X      Y      Z        X      Y      Z        X      Y      Z
 S          0.007 -0.007  0.003    0.160 -0.125  0.083   -0.026  0.059 -0.050
 C         -0.310  0.077  0.016    0.006 -0.014  0.002    0.005  0.005  0.003
 N         -0.016 -0.005  0.009   -0.391 -0.187  0.186   -0.183 -0.159 -0.000
 O         -0.002  0.008 -0.007   -0.068  0.139 -0.136    0.013 -0.006 -0.005
 F          0.591 -0.160 -0.005   -0.023  0.005  0.015   -0.006  0.001 -0.003
 F         -0.252 -0.168  0.406    0.005  0.016 -0.022    0.002  0.000 -0.001
 F         -0.139  0.279 -0.409    0.015 -0.005  0.009   -0.000 -0.003  0.004
 S         -0.001  0.001 -0.005   -0.064  0.060 -0.186   -0.055 -0.048 -0.028
 C         -0.002  0.003 -0.010   -0.051  0.056 -0.200    0.255  0.237  0.054
 O         -0.001  0.006 -0.004    0.060  0.188 -0.141    0.045  0.063  0.051
 O          0.004 -0.002  0.009    0.138 -0.035  0.310    0.087 -0.120  0.063
 F          0.006  0.006  0.013    0.179 -0.039  0.378    0.178  0.454 -0.138
 F         -0.013 -0.014  0.001   -0.253 -0.253 -0.057    0.150 -0.225  0.432
 F          0.003  0.007 -0.013    0.123  0.250 -0.190   -0.340 -0.228 -0.291
 TransDip  -0.044  0.001  0.002    0.038 -0.041 -0.120   -0.015  0.063 -0.092

 Mode:                22                     23                     24
 Frequency:       575.17                 590.30                 690.67
 Force Cnst:      3.5800                 4.0905                 4.5432
 Red. Mass:      18.3670                19.9244                16.1651
 IR Active:          YES                    YES                    YES
 IR Intens:       66.298                218.790                 65.932
 Raman Active:       YES                    YES                    YES
               X      Y      Z        X      Y      Z        X      Y      Z
 S         -0.081  0.064 -0.046    0.041 -0.002  0.006   -0.020  0.033 -0.029
 C          0.004  0.005  0.002    0.002 -0.002  0.002    0.153  0.558  0.263
 N          0.346  0.044 -0.201   -0.197 -0.416 -0.145   -0.079 -0.098  0.024
 O          0.034 -0.077  0.071   -0.009  0.018 -0.022    0.013 -0.004 -0.010
 F         -0.005 -0.001 -0.004    0.004  0.002  0.002    0.002  0.051 -0.434
 F         -0.001 -0.002 -0.001   -0.000  0.002  0.002   -0.393 -0.113  0.142
 F          0.000 -0.004  0.002   -0.003  0.004 -0.003    0.291 -0.294  0.120
 S         -0.096  0.056  0.293   -0.311  0.394  0.108    0.065  0.006  0.031
 C         -0.088  0.183 -0.210   -0.165  0.082  0.181    0.020 -0.028 -0.020
 O         -0.059 -0.231  0.226    0.175 -0.293 -0.082   -0.034 -0.015  0.008
 O          0.034 -0.022 -0.314    0.407  0.064 -0.041    0.018  0.045 -0.002
 F          0.232  0.090  0.261    0.070 -0.063 -0.158   -0.017 -0.027  0.009
 F         -0.302 -0.234 -0.047    0.123 -0.010 -0.135   -0.009  0.014  0.009
 F          0.163  0.077 -0.332    0.025 -0.162  0.213    0.004  0.020 -0.015
 TransDip  -0.154  0.150  0.147   -0.309  0.357  0.035    0.138  0.199  0.095

 Mode:                25                     26                     27
 Frequency:       723.31                 771.25                 997.91
 Force Cnst:      5.7264                 6.6851                 8.9510
 Red. Mass:      18.5772                19.0752                15.2559
 IR Active:          YES                    YES                    YES
 IR Intens:      100.990                 24.119                795.709
 Raman Active:       YES                    YES                    YES
               X      Y      Z        X      Y      Z        X      Y      Z
 S          0.123 -0.204  0.156   -0.054  0.083 -0.064   -0.019  0.129 -0.178
 C          0.024  0.092  0.036   -0.002 -0.006 -0.002   -0.000 -0.040 -0.004
 N          0.362  0.544 -0.088   -0.105 -0.168  0.111    0.483 -0.315  0.660
 O         -0.079  0.044  0.051    0.033 -0.015 -0.028   -0.050  0.008  0.072
 F          0.001  0.017 -0.097   -0.003 -0.005  0.014    0.004  0.018 -0.016
 F         -0.090 -0.017  0.039    0.015  0.000 -0.009   -0.014  0.007  0.011
 F          0.072 -0.060  0.034   -0.012  0.007 -0.006    0.008 -0.000  0.005
 S         -0.316 -0.018 -0.163    0.251 -0.119 -0.010   -0.096  0.033 -0.063
 C         -0.134  0.178  0.124   -0.231  0.209  0.132   -0.153  0.171  0.132
 O          0.186  0.105 -0.088   -0.086  0.035 -0.013   -0.014  0.068 -0.187
 O         -0.086 -0.255  0.039   -0.051  0.048  0.015   -0.079 -0.142  0.014
 F          0.143  0.174 -0.044    0.318  0.352 -0.054   -0.024 -0.097 -0.010
 F         -0.004 -0.090 -0.110   -0.334 -0.101 -0.376    0.046 -0.007  0.021
 F         -0.012 -0.134  0.151   -0.005 -0.255  0.412    0.034  0.013 -0.087
 TransDip  -0.315 -0.064  0.024    0.157  0.009 -0.003   -0.488  0.460 -0.605

 Mode:                28                     29                     30
 Frequency:      1056.62                1063.63                1119.36
 Force Cnst:     12.2852                 9.8333                12.8053
 Red. Mass:      18.6766                14.7526                17.3460
 IR Active:          YES                    YES                    YES
 IR Intens:      198.562                222.052                291.784
 Raman Active:       YES                    YES                    YES
               X      Y      Z        X      Y      Z        X      Y      Z
 S          0.260 -0.061 -0.312   -0.035  0.004  0.044   -0.071  0.028  0.075
 C          0.041  0.143  0.091    0.212  0.655  0.353    0.034  0.088  0.048
 N         -0.066  0.034 -0.049    0.018  0.008  0.019    0.219 -0.037  0.224
 O         -0.499  0.088  0.650    0.068 -0.010 -0.089    0.139 -0.018 -0.190
 F         -0.013 -0.054  0.041   -0.064 -0.256  0.195   -0.008 -0.032  0.021
 F          0.054 -0.035 -0.051    0.222 -0.148 -0.215    0.024 -0.019 -0.025
 F         -0.067 -0.002 -0.048   -0.294 -0.014 -0.209   -0.037 -0.003 -0.026
 S         -0.010 -0.053 -0.063    0.008  0.030  0.040   -0.208 -0.112 -0.274
 C          0.094 -0.064  0.022   -0.039  0.041  0.005    0.412 -0.184  0.047
 O         -0.038 -0.067  0.151    0.023  0.040 -0.094   -0.074 -0.177  0.398
 O          0.091  0.183 -0.004   -0.048 -0.102  0.004    0.246  0.427 -0.000
 F          0.001  0.027  0.001   -0.002 -0.019 -0.001   -0.012  0.065  0.002
 F         -0.050  0.007 -0.027    0.019 -0.004  0.009   -0.158  0.019 -0.086
 F         -0.008  0.001  0.011    0.005 -0.001 -0.009   -0.044  0.004  0.049
 TransDip   0.175 -0.007 -0.416    0.105  0.340  0.317   -0.144 -0.176 -0.498

 Mode:                31                     32                     33
 Frequency:      1170.77                1185.52                1204.49
 Force Cnst:     10.8013                10.9898                11.3893
 Red. Mass:      13.3745                13.2716                13.3242
 IR Active:          YES                    YES                    YES
 IR Intens:      700.972                222.940                441.413
 Raman Active:       YES                    YES                    YES
               X      Y      Z        X      Y      Z        X      Y      Z
 S          0.003 -0.007  0.005    0.003 -0.000 -0.004    0.001 -0.002  0.004
 C          0.099 -0.070  0.021    0.070 -0.070  0.093    0.788 -0.346  0.205
 N         -0.071  0.027 -0.072    0.014  0.001  0.009   -0.005  0.007 -0.004
 O         -0.005 -0.001  0.011   -0.008  0.003  0.002    0.002  0.001 -0.003
 F         -0.001  0.021 -0.016    0.004  0.032 -0.031   -0.025  0.091 -0.079
 F         -0.031  0.017  0.021   -0.010  0.006  0.001   -0.196  0.096  0.119
 F         -0.032  0.006 -0.019   -0.038  0.006 -0.028   -0.276  0.030 -0.169
 S          0.026  0.026  0.066   -0.022 -0.065  0.003    0.006  0.001 -0.014
 C          0.616  0.366  0.514    0.152  0.631 -0.619   -0.121 -0.116  0.021
 O          0.031  0.043 -0.108   -0.017  0.010  0.026   -0.005 -0.010  0.023
 O         -0.047 -0.119 -0.005    0.049  0.076 -0.007    0.001  0.012  0.002
 F         -0.097 -0.207 -0.042   -0.071 -0.232  0.023    0.023  0.053  0.003
 F         -0.255 -0.004 -0.160    0.060 -0.043  0.076    0.032  0.005  0.013
 F         -0.014 -0.005 -0.103   -0.082 -0.091  0.270    0.015  0.013 -0.027
 TransDip   0.599  0.215  0.560    0.113  0.295 -0.359    0.560 -0.334  0.166

 Mode:                34                     35                     36
 Frequency:      1212.35                1220.20                1291.11
 Force Cnst:     11.5619                12.5028                20.0806
 Red. Mass:      13.3514                14.2526                20.4457
 IR Active:          YES                    YES                    YES
 IR Intens:      513.643                173.364                565.871
 Raman Active:       YES                    YES                    YES
               X      Y      Z        X      Y      Z        X      Y      Z
 S         -0.002  0.002  0.002    0.006  0.020 -0.041    0.009 -0.004  0.002
 C         -0.339 -0.300  0.767    0.067  0.007 -0.100   -0.000  0.012 -0.015
 N          0.009 -0.002  0.003    0.096 -0.070  0.085   -0.017 -0.015  0.008
 O          0.003 -0.002 -0.004   -0.027  0.002  0.037   -0.007  0.002  0.008
 F          0.069  0.232 -0.244   -0.009 -0.021  0.025   -0.001 -0.007  0.006
 F          0.172 -0.062 -0.170   -0.033  0.015  0.030   -0.001 -0.001  0.001
 F         -0.027  0.018 -0.070   -0.001 -0.000  0.007    0.002 -0.001  0.002
 S         -0.003  0.028  0.011   -0.062  0.148  0.123    0.198  0.381 -0.310
 C          0.047 -0.114 -0.001    0.522 -0.474 -0.425    0.015  0.094 -0.049
 O          0.007  0.003 -0.019    0.054  0.062 -0.203   -0.131 -0.260  0.570
 O         -0.019 -0.042 -0.000   -0.095 -0.241 -0.008   -0.253 -0.479  0.025
 F          0.009  0.044  0.002    0.011  0.183  0.037   -0.009 -0.047 -0.002
 F         -0.022  0.009 -0.011   -0.157  0.044 -0.044    0.007 -0.007  0.007
 F         -0.005  0.006  0.005   -0.100 -0.009  0.222   -0.014 -0.008  0.032
 TransDip  -0.227 -0.263  0.637    0.368 -0.094 -0.183    0.270  0.551 -0.452

 STANDARD THERMODYNAMIC QUANTITIES AT   298.15 K  AND     1.00 ATM

   This Molecule has  3 Imaginary Frequencies
   Zero point vibrational energy:       27.945 kcal/mol

   Atom    1 Element S  Has Mass   31.97207
   Atom    2 Element C  Has Mass   12.00000
   Atom    3 Element N  Has Mass   14.00307
   Atom    4 Element O  Has Mass   15.99491
   Atom    5 Element F  Has Mass   18.99840
   Atom    6 Element F  Has Mass   18.99840
   Atom    7 Element F  Has Mass   18.99840
   Atom    8 Element S  Has Mass   31.97207
   Atom    9 Element C  Has Mass   12.00000
   Atom   10 Element O  Has Mass   15.99491
   Atom   11 Element O  Has Mass   15.99491
   Atom   12 Element F  Has Mass   18.99840
   Atom   13 Element F  Has Mass   18.99840
   Atom   14 Element F  Has Mass   18.99840
   Molecular Mass:   263.922340 amu
   Principal axes and moments of inertia in amu*Bohr^2:
                             1           2           3
    Eigenvalues --     2552.28759  4344.36448  5240.39937
          X               0.66822    -0.38548    -0.63631
          Y               0.39513     0.90858    -0.13547
          Z               0.63035    -0.16091     0.75945
   Rotational Symmetry Number is   1
   The Molecule is an Asymmetric Top
   Translational Enthalpy:        0.889 kcal/mol
   Rotational Enthalpy:           0.889 kcal/mol
   Vibrational Enthalpy:         34.455 kcal/mol
   gas constant (RT):             0.592 kcal/mol
   Translational Entropy:        42.611  cal/mol.K
   Rotational Entropy:           32.430  cal/mol.K
   Vibrational Entropy:          49.812  cal/mol.K

   Total Enthalpy:               36.824 kcal/mol
   Total Entropy:               124.852  cal/mol.K
Archival summary:
1\1\nid02700\FREQ\ProcedureUnspecified\BasisUnspecified\26312(1-,3)\sblau\WedNov1403:56:022018WedNov1403:56:022018\0\\#,FREQ,ProcedureUnspecified,BasisUnspecified,\\-1,3\S\O,1,1.45685\O,1,1.46122,2,117.801\N,1,1.58167,2,110.264,3,136.044,0\S,4,1.65087,1,123.41,2,-150.011,0\O,5,1.50829,4,112.561,1,-74.2341,0\C,1,1.87128,2,102.431,3,-112.812,0\F,7,1.32925,1,111.202,2,-177.993,0\F,7,1.33221,1,110.881,2,-57.2319,0\F,7,1.33554,1,109.714,2,62.2166,0\C,4,3.01666,1,128.061,2,87.644,0\F,11,1.31828,4,95.8902,1,-65.8239,0\F,11,1.31983,4,112.397,1,49.6231,0\F,11,1.32262,4,115.457,1,177.915,0\\\@

 Total job time:  3443.37s(wall), 11428.16s(cpu) 
 Wed Nov 14 03:56:02 2018

        *************************************************************
        *                                                           *
        *  Thank you very much for using Q-Chem.  Have a nice day.  *
        *                                                           *
        *************************************************************


