
Running Job 1 of 1 mol.qin
qchem mol.qin_14377.0 /tmp/qchem14377/ 1
/global/common/edison/software/qchem/5.1/exe/qcprog.exe mol.qin_14377.0 /tmp/qchem14377/
Check license passed

                  Welcome to Q-Chem
     A Quantum Leap Into The Future Of Chemistry


 Q-Chem 5.1, Q-Chem, Inc., Pleasanton, CA (2018)

 Yihan Shao,  Zhengting Gan,  E. Epifanovsky,  A. T. B. Gilbert,  M. Wormit,  
 J. Kussmann,  A. W. Lange,  A. Behn,  Jia Deng,  Xintian Feng,  D. Ghosh,  
 M. Goldey,  P. R. Horn,  L. D. Jacobson,  I. Kaliman,  T. Kus,  A. Landau,  
 Jie Liu,  E. I. Proynov,  R. M. Richard,  R. P. Steele,  E. J. Sundstrom,  
 H. L. Woodcock III,  P. M. Zimmerman,  D. Zuev,  B. Albrecht,  E. Alguire,  
 S. A. Baeppler,  D. Barton,  Z. Benda,  Y. A. Bernard,  E. J. Berquist,  
 K. B. Bravaya,  H. Burton,  D. Casanova,  Chun-Min Chang,  Yunqing Chen,  
 A. Chien,  K. D. Closser,  M. P. Coons,  S. Coriani,  S. Dasgupta,  
 A. L. Dempwolff,  M. Diedenhofen,  Hainam Do,  R. G. Edgar,  Po-Tung Fang,  
 S. Faraji,  S. Fatehi,  Qingguo Feng,  K. D. Fenk,  J. Fosso-Tande,  
 Qinghui Ge,  A. Ghysels,  G. Gidofalvi,  J. Gomes,  J. Gonthier,  A. Gunina,  
 D. Hait,  M. W. D. Hanson-Heine,  P. H. P. Harbach,  A. W. Hauser,  
 J. E. Herr,  E. G. Hohenstein,  Z. C. Holden,  Kerwin Hui,  B. C. Huynh,  
 T.-C. Jagau,  Hyunjun Ji,  B. Kaduk,  K. Khistyaev,  Jaehoon Kim,  
 P. Klunzinger,  K. Koh,  D. Kosenkov,  L. Koulias,  T. Kowalczyk,  
 C. M. Krauter,  A. Kunitsa,  Ka Un Lao,  A. Laurent,  K. V. Lawler,  
 Joonho Lee,  D. Lefrancois,  S. Lehtola,  D. S. Levine,  Yi-Pei Li,  
 You-Sheng Lin,  Fenglai Liu,  E. Livshits,  A. Luenser,  P. Manohar,  
 E. Mansoor,  S. F. Manzer,  Shan-Ping Mao,  Yuezhi Mao,  N. Mardirossian,  
 A. V. Marenich,  T. Markovich,  L. A. Martinez-Martinez,  S. A. Maurer,  
 N. J. Mayhall,  S. C. McKenzie,  J.-M. Mewes,  A. F. Morrison,  
 J. W. Mullinax,  K. Nanda,  T. S. Nguyen-Beck,  R. Olivares-Amaya,  
 J. A. Parkhill,  T. M. Perrine,  F. Plasser,  P. Pokhilko,  S. Prager,  
 A. Prociuk,  E. Ramos,  D. R. Rehn,  F. Rob,  M. Schneider,  N. Sergueev,  
 S. M. Sharada,  S. Sharma,  D. W. Small,  T. Stauch,  T. Stein,  
 Yu-Chuan Su,  A. J. W. Thom,  A. Tkatchenko,  T. Tsuchimochi,  N. M. Tubman,  
 L. Vogt,  M. L. Vidal,  O. Vydrov,  M. A. Watson,  J. Wenzel,  
 M. de Wergifosse,  T. A. Wesolowski,  A. White,  J. Witte,  A. Yamada,  
 Jun Yang,  K. Yao,  S. Yeganeh,  S. R. Yost,  Zhi-Qiang You,  A. Zech,  
 Igor Ying Zhang,  Xing Zhang,  Yan Zhao,  Ying Zhu,  B. R. Brooks,  
 G. K. L. Chan,  C. J. Cramer,  M. S. Gordon,  W. J. Hehre,  A. Klamt,  
 M. W. Schmidt,  C. D. Sherrill,  D. G. Truhlar,  A. Aspuru-Guzik,  R. Baer,  
 A. T. Bell,  N. A. Besley,  Jeng-Da Chai,  R. A. DiStasio Jr.,  A. Dreuw,  
 B. D. Dunietz,  T. R. Furlani,  Chao-Ping Hsu,  Yousung Jung,  Jing Kong,  
 D. S. Lambrecht,  WanZhen Liang,  C. Ochsenfeld,  V. A. Rassolov,  
 L. V. Slipchenko,  J. E. Subotnik,  T. Van Voorhis,  J. M. Herbert,  
 A. I. Krylov,  P. M. W. Gill,  M. Head-Gordon

 Contributors to earlier versions of Q-Chem not listed above: 
 R. D. Adamson,  B. Austin,  J. Baker,  G. J. O. Beran,  K. Brandhorst,  
 S. T. Brown,  E. F. C. Byrd,  A. K. Chakraborty,  C.-L. Cheng,  
 Siu Hung Chien,  D. M. Chipman,  D. L. Crittenden,  H. Dachsel,  
 R. J. Doerksen,  A. D. Dutoi,  L. Fusti-Molnar,  W. A. Goddard III,  
 A. Golubeva-Zadorozhnaya,  S. R. Gwaltney,  G. Hawkins,  A. Heyden,  
 S. Hirata,  G. Kedziora,  F. J. Keil,  C. Kelley,  Jihan Kim,  R. A. King,  
 R. Z. Khaliullin,  P. P. Korambath,  W. Kurlancheek,  A. M. Lee,  M. S. Lee,  
 S. V. Levchenko,  Ching Yeh Lin,  D. Liotard,  R. C. Lochan,  I. Lotan,  
 P. E. Maslen,  N. Nair,  D. P. O'Neill,  D. Neuhauser,  E. Neuscamman,  
 C. M. Oana,  R. Olson,  B. Peters,  R. Peverati,  P. A. Pieniazek,  
 Y. M. Rhee,  J. Ritchie,  M. A. Rohrdanz,  E. Rosta,  N. J. Russ,  
 H. F. Schaefer III,  N. E. Schultz,  N. Shenvi,  A. C. Simmonett,  A. Sodt,  
 D. Stuck,  K. S. Thanthiriwatte,  V. Vanovschi,  Tao Wang,  A. Warshel,  
 C. F. Williams,  Q. Wu,  X. Xu,  W. Zhang

 Please cite Q-Chem as follows:
 Y. Shao et al., Mol. Phys. 113, 184-215 (2015)
 DOI: 10.1080/00268976.2014.952696

 Q-Chem 5.1.0 for Intel X86 EM64T Linux

 Parts of Q-Chem use Armadillo 8.300.2 (Tropical Shenanigans).
 http://arma.sourceforge.net/

 Q-Chem begins on Tue Nov 13 23:57:15 2018  

Host: edison03
0

     Scratch files written to /tmp/qchem14377//
 Jun2518 |scratch|qcdevops|jenkins|workspace|build_RNUM -1
Processing $rem in /global/common/edison/software/qchem/5.1/config/preferences.
 MEM_TOTAL  48000 
Symmetry turned off for PCM/SM12/SMD calculation

Checking the input file for inconsistencies... 	...done.

--------------------------------------------------------------
User input:
--------------------------------------------------------------
$molecule
-1 3
S      1.1812589400      0.0284659655     -0.2257599167
C      0.8381439658      1.3650430389      1.0375211008
N      0.1158897263      0.2782044761     -1.3748246478
O      1.0289299672     -1.2154285945      0.5081315276
F      0.9027443368      2.5668017889      0.4723941338
F     -0.3663306259      1.2119451489      1.5759670235
F      1.7498406878      1.3008149178      2.0058779479
S     -1.3612425600     -0.3218530804     -1.4550439110
C     -2.2822043118      1.2452916869     -1.8851713164
O     -1.5214692537     -1.1642463147     -2.6265991458
O     -1.9477965631     -0.7732055980     -0.2047290408
F     -1.8301553066      1.7700227456     -3.0176576282
F     -3.5731510080      0.9559059551     -2.0344167265
F     -2.1575599035      2.1444049541     -0.9148298731
$end

$rem
job_type = opt
basis = 6-311++g*
max_scf_cycles = 200
gen_scfman = true
scf_algorithm = gdm
method = wb97xd
geom_opt_max_cycles = 200
solvent_method = pcm
$end

$pcm
heavypoints 194
hpoints 194
radii uff
theory cpcm
vdwscale 1.1
$end

$solvent
dielectric 7.0
$end
--------------------------------------------------------------
 ----------------------------------------------------------------
             Standard Nuclear Orientation (Angstroms)
    I     Atom           X                Y                Z
 ----------------------------------------------------------------
    1      S       1.1812589400     0.0284659655    -0.2257599167
    2      C       0.8381439658     1.3650430389     1.0375211008
    3      N       0.1158897263     0.2782044761    -1.3748246478
    4      O       1.0289299672    -1.2154285945     0.5081315276
    5      F       0.9027443368     2.5668017889     0.4723941338
    6      F      -0.3663306259     1.2119451489     1.5759670235
    7      F       1.7498406878     1.3008149178     2.0058779479
    8      S      -1.3612425600    -0.3218530804    -1.4550439110
    9      C      -2.2822043118     1.2452916869    -1.8851713164
   10      O      -1.5214692537    -1.1642463147    -2.6265991458
   11      O      -1.9477965631    -0.7732055980    -0.2047290408
   12      F      -1.8301553066     1.7700227456    -3.0176576282
   13      F      -3.5731510080     0.9559059551    -2.0344167265
   14      F      -2.1575599035     2.1444049541    -0.9148298731
 ----------------------------------------------------------------
 Nuclear Repulsion Energy =  1424.6972977732 hartrees
 There are       66 alpha and       64 beta electrons
 Requested basis set is 6-311++G(d)
 There are 98 shells and 324 basis functions

 Total QAlloc Memory Limit  48000 MB
 Mega-Array Size       188 MB
 MEM_STATIC part       192 MB
 Discretize the solute cavity surface with Lebedev spheres
	Using 194 Lebedev grid points for each H atom
	Using 194 Lebedev grid points for other atoms
	Atomic van der Waals radii will be scaled by 1.10
 Remove points where switching function is < 1.0e-08
 Keep 1244 surface tesserae and discard 1472 interior tesserae
 Molecular Surface Area = 219.180 Angst**2
 A cutoff of  1.0D-12 yielded   3767 shell pairs
 There are     43502 function pairs (     47027 Cartesian)
 
 -------------------------------------------------------
 OpenMP Integral Computing Module                       
 Release: version 1.0, May 2013, Q-Chem Inc. Pittsburgh 
 -------------------------------------------------------
 Integral Job Info:
 Integral job number is                      11
 Integral operator is                         1
 short-range coefficients              22203600
 long-range coefficients              100000000
 Omega coefficients                         200
 if combine SR and LR in K                    1
 Integral screening is                        0
 Integral computing path is                   2
 max size of driver memory is            800000
 size of driver memory is                593474
 size of scratch memory is              4293864
 max col of scratch BK array               1296
 max len of scratch array in speh3          155
 max len of scratch index in speh4           18
 max int batch size is                      520
 min int batch size is                       52
 fixed nKL is                                52
 max L of basis functions is                  2
 order of int derivative is                   0
 number of shells is                         98
 number of basis is                         338
 number of cartesian basis is               338
 number of contracted shell pairs          3767
 number of primitive shell pairs          10057
 maxK2 (contraction) of shell pair           36
 max number of K2 of shell pair               1
 max number of CS2 of shell pair            743
 max number of PS2 of shell pair           2520
 mem total for path MDJ                  604156
 -------------------------------------------------------
 Smallest overlap matrix eigenvalue = 5.70E-05

 Scale SEOQF with 1.000000e-01/1.000000e-01/1.000000e-01

 Standard Electronic Orientation quadrupole field applied
 Nucleus-field energy     =    -0.0000000058 hartrees
 Guess from superposition of atomic densities
 Warning:  Energy on first SCF cycle will be non-variational
 SAD guess density has 129.000000 electrons

 -----------------------------------------------------------------------
  General SCF calculation program by
  Eric Jon Sundstrom, Paul Horn, Yuezhi Mao, Dmitri Zuev, Alec White,
  David Stuck, Shaama M.S., Shane Yost, Joonho Lee, David Small,
  Daniel Levine, Susi Lehtola, Hugh Burton, Evgeny Epifanovsky
 -----------------------------------------------------------------------
 Exchange:     0.2220 Hartree-Fock + 1.0000 wB97X-D + LR-HF
 Correlation:  1.0000 wB97X-D
 Using SG-2 standard quadrature grid
 Dispersion:   Grimme D
 using 24 threads for integral computing
 -------------------------------------------------------
 OpenMP Integral computing Module                
 Release: version 1.0, May 2013, Q-Chem Inc. Pittsburgh 
 -------------------------------------------------------
 using 24 threads for integral computing
 -------------------------------------------------------
 OpenMP Integral computing Module                
 Release: version 1.0, May 2013, Q-Chem Inc. Pittsburgh 
 -------------------------------------------------------
 -------------------------------------------------------
 OpenMP BLAS3 based DFT computing Module                
 Release: version 1.0, May 2013, Q-Chem Inc. Pittsburgh 
 -------------------------------------------------------
 A unrestricted SCF calculation will be
 performed using Roothaan-Hall, GDM
 SCF converges when RMS gradient is below 1.0e-08
 ---------------------------------------
  Cycle       Energy         DIIS error
 ---------------------------------------
    1   -1755.2743320650      1.87e-02  Roothaan Step
 ---------------------------------------
  Cycle       Energy        RMS Gradient
 ---------------------------------------
    1   -1751.2480391862      3.29e-01   Descent step
    2   -1751.6928443258      8.05e-02   Descent step
    3   -1751.8551152345      2.89e-02   Normal BFGS step
    4   -1751.8771029977      3.31e-02   Normal BFGS step
    5   -1751.8803678624      1.60e-02   Normal BFGS step
    6   -1751.8837835183      1.50e-02   Normal BFGS step
    7   -1751.8853461384      1.13e-02   Normal BFGS step
    8   -1751.8861774797      7.58e-03   Normal BFGS step
    9   -1751.8866170640      6.25e-03   Normal BFGS step
   10   -1751.8869660766      6.36e-03   Normal BFGS step
   11   -1751.8871477241      4.94e-03   Normal BFGS step
   12   -1751.8872589836      2.00e-03   Normal BFGS step
   13   -1751.8873091074      1.22e-03   Normal BFGS step
   14   -1751.8873244907      7.45e-04   Normal BFGS step
   15   -1751.8873291567      3.99e-04   Normal BFGS step
   16   -1751.8873307756      1.49e-04   Normal BFGS step
   17   -1751.8873311248      7.77e-05   Normal BFGS step
   18   -1751.8873312296      5.24e-05   Normal BFGS step
   19   -1751.8873312661      4.73e-05   Normal BFGS step
   20   -1751.8873312752      3.08e-05   Normal BFGS step
   21   -1751.8873312811      1.75e-05   Normal BFGS step
   22   -1751.8873312829      6.86e-06   Normal BFGS step
   23   -1751.8873312833      3.42e-06   Normal BFGS step
   24   -1751.8873312834      1.63e-06   Normal BFGS step
   25   -1751.8873312835      1.25e-06   Normal BFGS step
   26   -1751.8873312835      7.44e-07   Normal BFGS step
   27   -1751.8873312835      3.52e-07   Normal BFGS step
   28   -1751.8873312835      2.03e-07   Normal BFGS step
   29   -1751.8873312835      1.19e-07   Normal BFGS step
   30   -1751.8873312835      6.66e-08   Normal BFGS step
   31   -1751.8873312835      4.19e-08   Normal BFGS step
   32   -1751.8873312835      2.53e-08   Normal BFGS step
   33   -1751.8873312835      1.62e-08   Normal BFGS step
   34   -1751.8873312835      6.08e-09  Convergence criterion met
 ---------------------------------------
 SCF time:   CPU 2299.53s  wall 148.00s 
<S^2> =          2.009042926

************** Final PCM Free Energy Summary **************
 G_electrostatic  =      -0.06668988 hartree =     -41.84852861 kcal/mol
 G_cavitation     =       0.00000000 hartree =       0.00000000 kcal/mol
 G_dispersion     =       0.00000000 hartree =       0.00000000 kcal/mol
 G_repulsion      =       0.00000000 hartree =       0.00000000 kcal/mol
 --------------------------------------------------
 Non-electrostatic Free Energy =       0.00000000 hartree =       0.00000000 kcal/mol
 Total                         =      -0.06668988 hartree =     -41.84852861 kcal/mol
 --------------------------------------------------
 SCF Energy (H0 + V/2)                       =   -1751.88733128 
 Solute Internal Energy (H0)                 =   -1751.82064141 
 Total Free Energy (H0 + V/2 + non-elec)     =   -1751.88733128 hartree
                                             = -1099325.89250530 kcal/mol
***********************************************************

 SCF   energy in the final basis set =    -1751.8873312835
 Total energy in the final basis set =    -1751.8873312835
 
 --------------------------------------------------------------
 
                    Orbital Energies (a.u.)
 --------------------------------------------------------------
 
 Alpha MOs
 -- Occupied --
-89.229 -89.145 -24.852 -24.852 -24.852 -24.851 -24.848 -24.839
-19.260 -19.241 -19.233 -14.436 -10.551 -10.541  -8.249  -8.177
 -6.197  -6.197  -6.196  -6.126  -6.124  -6.123  -1.443  -1.437
 -1.350  -1.350  -1.347  -1.343  -1.229  -1.190  -1.110  -1.022
 -0.875  -0.836  -0.792  -0.741  -0.707  -0.703  -0.701  -0.699
 -0.690  -0.629  -0.593  -0.580  -0.575  -0.574  -0.569  -0.561
 -0.554  -0.542  -0.538  -0.535  -0.533  -0.529  -0.517  -0.514
 -0.508  -0.473  -0.432  -0.421  -0.409  -0.395  -0.382  -0.375
 -0.335  -0.115
 -- Virtual --
  0.082   0.092   0.095   0.100   0.106   0.118   0.127   0.130
  0.134   0.137   0.146   0.150   0.159   0.161   0.165   0.173
  0.180   0.187   0.193   0.207   0.215   0.219   0.254   0.264
  0.268   0.279   0.293   0.299   0.304   0.309   0.311   0.316
  0.320   0.328   0.333   0.337   0.339   0.345   0.350   0.367
  0.376   0.383   0.390   0.392   0.397   0.399   0.404   0.407
  0.413   0.421   0.422   0.426   0.436   0.439   0.448   0.454
  0.456   0.462   0.470   0.475   0.487   0.496   0.503   0.524
  0.531   0.541   0.549   0.556   0.562   0.585   0.586   0.596
  0.623   0.650   0.658   0.683   0.703   0.721   0.789   0.798
  0.821   0.901   0.905   0.918   0.926   0.942   0.962   0.996
  1.064   1.077   1.088   1.102   1.128   1.150   1.164   1.178
  1.187   1.211   1.235   1.242   1.248   1.257   1.259   1.270
  1.278   1.290   1.303   1.324   1.330   1.365   1.391   1.447
  1.470   1.475   1.484   1.494   1.507   1.515   1.520   1.539
  1.546   1.555   1.560   1.568   1.576   1.594   1.602   1.608
  1.656   1.693   1.748   1.753   1.759   1.812   1.864   1.896
  1.914   1.921   1.939   1.968   1.976   2.012   2.029   2.039
  2.051   2.067   2.092   2.129   2.212   2.258   2.277   2.296
  2.341   2.683   2.736   2.868   2.882   2.897   2.918   2.925
  2.944   2.959   2.963   2.998   3.013   3.025   3.042   3.067
  3.085   3.129   3.147   3.180   3.257   3.572   3.617   3.715
  3.790   3.797   3.827   3.829   3.831   3.832   3.834   3.840
  3.856   3.858   3.859   3.867   3.884   3.893   3.947   3.955
  3.963   3.968   4.080   4.121   4.211   4.215   4.283   4.288
  4.290   4.297   4.322   4.462   4.470   5.017   5.020   5.023
  5.032   5.102   5.142   5.149   5.179   5.203   5.226   5.286
  5.302   5.443   6.390   6.392   6.419   6.436   6.459   6.463
  6.467   6.475   6.489   6.491   6.501   6.514   6.526   6.580
  6.870   6.874   6.876   6.886   8.189   8.298  17.471  17.516
 17.547  17.553  17.638  17.657  23.612  23.619  35.575  50.011
 50.024  50.063  66.890  66.895  66.902  66.916  66.947  66.958
189.433 189.520
 
 Beta MOs
 -- Occupied --
-89.228 -89.140 -24.852 -24.852 -24.852 -24.851 -24.848 -24.837
-19.248 -19.240 -19.233 -14.433 -10.551 -10.533  -8.248  -8.172
 -6.197  -6.196  -6.195  -6.123  -6.117  -6.114  -1.442  -1.433
 -1.350  -1.349  -1.345  -1.338  -1.226  -1.165  -1.108  -1.009
 -0.858  -0.825  -0.783  -0.733  -0.704  -0.703  -0.697  -0.693
 -0.679  -0.618  -0.582  -0.578  -0.572  -0.569  -0.565  -0.554
 -0.549  -0.538  -0.534  -0.533  -0.530  -0.513  -0.508  -0.507
 -0.490  -0.459  -0.418  -0.409  -0.401  -0.384  -0.369  -0.346
 -- Virtual --
 -0.085   0.086   0.094   0.099   0.108   0.111   0.113   0.125
  0.135   0.139   0.142   0.147   0.157   0.158   0.163   0.170
  0.174   0.179   0.192   0.194   0.204   0.216   0.219   0.227
  0.266   0.268   0.280   0.283   0.297   0.301   0.308   0.313
  0.315   0.318   0.324   0.331   0.335   0.340   0.342   0.347
  0.352   0.369   0.378   0.385   0.392   0.394   0.398   0.402
  0.406   0.411   0.415   0.423   0.424   0.427   0.439   0.444
  0.449   0.456   0.459   0.464   0.472   0.478   0.488   0.500
  0.505   0.526   0.534   0.544   0.550   0.557   0.563   0.587
  0.588   0.599   0.624   0.653   0.667   0.686   0.709   0.733
  0.799   0.803   0.836   0.904   0.914   0.927   0.937   0.957
  0.970   1.001   1.069   1.085   1.100   1.108   1.132   1.155
  1.170   1.186   1.196   1.219   1.238   1.249   1.254   1.263
  1.266   1.277   1.282   1.302   1.309   1.326   1.335   1.370
  1.395   1.449   1.471   1.476   1.486   1.495   1.508   1.516
  1.521   1.541   1.549   1.556   1.560   1.570   1.579   1.597
  1.605   1.610   1.659   1.700   1.755   1.764   1.770   1.819
  1.869   1.903   1.918   1.932   1.945   1.974   1.985   2.014
  2.036   2.044   2.058   2.069   2.100   2.133   2.221   2.263
  2.281   2.303   2.351   2.688   2.745   2.872   2.903   2.921
  2.925   2.931   2.946   2.962   2.990   3.007   3.017   3.030
  3.047   3.077   3.101   3.131   3.162   3.182   3.258   3.574
  3.636   3.716   3.790   3.798   3.827   3.830   3.832   3.833
  3.835   3.841   3.857   3.859   3.860   3.870   3.886   3.894
  3.950   3.957   3.966   3.968   4.086   4.128   4.212   4.218
  4.286   4.289   4.292   4.299   4.327   4.466   4.471   5.019
  5.022   5.024   5.035   5.125   5.152   5.165   5.186   5.206
  5.228   5.287   5.316   5.444   6.391   6.393   6.421   6.436
  6.460   6.464   6.468   6.476   6.490   6.492   6.502   6.516
  6.528   6.583   6.870   6.875   6.876   6.889   8.195   8.299
 17.477  17.518  17.552  17.558  17.641  17.658  23.613  23.629
 35.578  50.020  50.027  50.064  66.890  66.895  66.903  66.916
 66.947  66.959 189.436 189.521
 --------------------------------------------------------------
 
          Ground-State Mulliken Net Atomic Charges

     Atom                 Charge (a.u.)    Spin (a.u.)
  --------------------------------------------------------
      1 S                     0.269251       1.169687
      2 C                    -0.273291       0.502347
      3 N                    -0.500484       0.007816
      4 O                    -0.089861       0.145742
      5 F                    -0.055856      -0.004461
      6 F                    -0.018751      -0.011703
      7 F                    -0.085208       0.008320
      8 S                     0.301180       0.141470
      9 C                    -0.000703       0.033929
     10 O                    -0.158393      -0.001655
     11 O                    -0.190686       0.016085
     12 F                    -0.054926      -0.000818
     13 F                    -0.080266       0.000692
     14 F                    -0.062006      -0.007452
  --------------------------------------------------------
  Sum of atomic charges =    -1.000000
  Sum of spin   charges =     2.000000

 -----------------------------------------------------------------
                    Cartesian Multipole Moments
 -----------------------------------------------------------------
    Charge (ESU x 10^10)
                -4.8032
    Dipole Moment (Debye)
         X       2.3812      Y       3.7257      Z       4.0573
       Tot       6.0011
    Quadrupole Moments (Debye-Ang)
        XX    -105.5986     XY      -1.1465     YY    -102.8182
        XZ      -5.3661     YZ      -3.7160     ZZ    -111.1073
    Octopole Moments (Debye-Ang^2)
       XXX     167.2551    XXY     -31.7579    XYY      50.6499
       YYY    -130.5338    XXZ      71.5122    XYZ       5.8208
       YYZ      66.6423    XZZ      63.6095    YZZ     -32.1298
       ZZZ     217.5238
    Hexadecapole Moments (Debye-Ang^3)
      XXXX   -1635.1874   XXXY      86.3877   XXYY    -431.8707
      XYYY      81.9050   YYYY    -918.4104   XXXZ    -535.7355
      XXYZ     -12.6374   XYYZ    -183.7337   YYYZ       6.1572
      XXZZ    -535.3931   XYZZ      10.0949   YYZZ    -407.8810
      XZZZ    -571.0018   YZZZ     -24.7863   ZZZZ   -1509.4976
 -----------------------------------------------------------------
 Calculating analytic gradient of the SCF energy
 Gradient of SCF Energy
            1           2           3           4           5           6
    1  -0.0282611   0.0085030  -0.0024426  -0.0033882  -0.0072053   0.0307210
    2  -0.0138697  -0.0147034  -0.0394783   0.0568181  -0.0110963  -0.0045081
    3   0.0937836  -0.0221490   0.0125304  -0.0641784   0.0134622  -0.0208646
            7           8           9          10          11          12
    1  -0.0162974  -0.0008080  -0.0139163   0.0074652   0.0127374  -0.0073133
    2  -0.0019717   0.0071222   0.0063976   0.0208391   0.0082595  -0.0066898
    3  -0.0093166  -0.0109698  -0.0022007   0.0391497  -0.0330954   0.0168363
           13          14
    1   0.0199109   0.0002946
    2   0.0048774  -0.0119964
    3   0.0021708  -0.0151583
 Max gradient component =       9.378E-02
 RMS gradient           =       2.521E-02
 Computing fast CPCM-SWIG gradient
 Updating gradient with PCM contributions...
 -- total gradient after adding PCM contribution --
---------------------------------------------------
  Atom         X              Y              Z     
---------------------------------------------------
   1      -0.057871       0.000997       0.123137
   2       0.020571      -0.003878      -0.039890
   3       0.020177      -0.025106      -0.005728
   4       0.010876       0.035690      -0.071729
   5      -0.001017       0.005773       0.002612
   6       0.020061      -0.013102      -0.016099
   7      -0.006259      -0.003469      -0.000900
   8      -0.019023       0.001706       0.005553
   9      -0.000221       0.002400      -0.000900
  10       0.007157       0.002573       0.006726
  11       0.001706      -0.001318      -0.003956
  12      -0.000076      -0.000552       0.000499
  13       0.002999      -0.001195       0.000607
  14       0.000921      -0.000520       0.000068
---------------------------------------------------
 Number of fixed atoms: 0
 Gradient time:  CPU 132.29 s  wall 13.90 s
 Geometry Optimization Parameters
   NAtoms,    NIC,     NZ,  NCons,   NDum,   NFix, NCnnct, MaxDiis
       14      83       0       0       0       0       0       0


** GEOMETRY OPTIMIZATION IN DELOCALIZED INTERNAL COORDINATES **
   Searching for a Minimum

   Optimization Cycle:   1

                       Coordinates (Angstroms)
     ATOM                X               Y               Z
      1  S         1.1812589400    0.0284659655   -0.2257599167
      2  C         0.8381439658    1.3650430389    1.0375211008
      3  N         0.1158897263    0.2782044761   -1.3748246478
      4  O         1.0289299672   -1.2154285945    0.5081315276
      5  F         0.9027443368    2.5668017889    0.4723941338
      6  F        -0.3663306259    1.2119451489    1.5759670235
      7  F         1.7498406878    1.3008149178    2.0058779479
      8  S        -1.3612425600   -0.3218530804   -1.4550439110
      9  C        -2.2822043118    1.2452916869   -1.8851713164
     10  O        -1.5214692537   -1.1642463147   -2.6265991458
     11  O        -1.9477965631   -0.7732055980   -0.2047290408
     12  F        -1.8301553066    1.7700227456   -3.0176576282
     13  F        -3.5731510080    0.9559059551   -2.0344167265
     14  F        -2.1575599035    2.1444049541   -0.9148298731
   Point Group: c1    Number of degrees of freedom:    36


   Energy is  -1751.887331283


 Attempting to Generate Delocalized Internal Coordinates

 36 Hessian modes will be used to form the next step
  Hessian Eigenvalues:
     0.002000    0.002000    0.019274    0.020550    0.063039    0.084106
     0.088163    0.099699    0.105606    0.108257    0.111141    0.139311
     0.186965    0.196684    0.212458    0.214216    0.250000    0.250000
     0.250000    0.250000    0.250000    0.250000    0.250000    0.250000
     0.250000    0.519244    0.538706    0.591406    0.591819    0.596065
     0.598084    0.599322    0.601036    0.946360    0.949350    0.951223

 Minimum Search - Taking Simple RFO Step
 Searching for Lamda that Minimizes Along All modes
 Value Taken    Lamda =  -0.06012962
 Calculated Step too Large.  Step scaled by  0.599419
 Step Taken.  Stepsize is  0.300000

                             Maximum     Tolerance    Cnvgd?
         Gradient           0.046463      0.000300      NO
         Displacement       0.118785      0.001200      NO
         Energy change     *********      0.000001      NO


 New Cartesian Coordinates Obtained by Inverse Iteration

 Displacement from previous Coordinates is:  0.539963
 ----------------------------------------------------------------
             Standard Nuclear Orientation (Angstroms)
    I     Atom           X                Y                Z
 ----------------------------------------------------------------
    1      S       1.2440615104    -0.0207586223    -0.2893856195
    2      C       0.7806168215     1.3336540324     1.0092292307
    3      N       0.1451725873     0.2476564850    -1.4131802664
    4      O       1.0554870214    -1.1580516734     0.6285304990
    5      F       0.8243886454     2.5166271462     0.4082241615
    6      F      -0.4325343695     1.2004603875     1.5609689935
    7      F       1.6941714519     1.3349109213     1.9811570361
    8      S      -1.3395896859    -0.3291185738    -1.4717908644
    9      C      -2.2524751904     1.2577369134    -1.8529087477
   10      O      -1.5697556092    -1.1431800553    -2.6546655479
   11      O      -1.9048752629    -0.7783824845    -0.2096314514
   12      F      -1.8253853753     1.7932000127    -2.9904287566
   13      F      -3.5537147051     0.9948440032    -1.9701159085
   14      F      -2.0886697484     2.1425685979    -0.8751432310
 ----------------------------------------------------------------
 Nuclear Repulsion Energy =  1426.0448504160 hartrees
 There are       66 alpha and       64 beta electrons
 Discretize the solute cavity surface with Lebedev spheres
	Using 194 Lebedev grid points for each H atom
	Using 194 Lebedev grid points for other atoms
	Atomic van der Waals radii will be scaled by 1.10
 Remove points where switching function is < 1.0e-08
 Keep 1229 surface tesserae and discard 1487 interior tesserae
 Molecular Surface Area = 217.482 Angst**2
 Applying Cartesian multipole field
    Component          Value
    ---------          -----
     (2,0,0)        1.00000E-11
     (0,2,0)        2.00000E-11
     (0,0,2)       -3.00000E-11
 Nucleus-field energy     =    -0.0000000059 hartrees
 Requested basis set is 6-311++G(d)
 There are 98 shells and 324 basis functions
 A cutoff of  1.0D-12 yielded   3779 shell pairs
 There are     43720 function pairs (     47295 Cartesian)
 Smallest overlap matrix eigenvalue = 5.74E-05
 Guess MOs from SCF MO coefficient file
 Reading MOs from coefficient file
 Reading MOs from coefficient file

 -----------------------------------------------------------------------
  General SCF calculation program by
  Eric Jon Sundstrom, Paul Horn, Yuezhi Mao, Dmitri Zuev, Alec White,
  David Stuck, Shaama M.S., Shane Yost, Joonho Lee, David Small,
  Daniel Levine, Susi Lehtola, Hugh Burton, Evgeny Epifanovsky
 -----------------------------------------------------------------------
 Exchange:     0.2220 Hartree-Fock + 1.0000 wB97X-D + LR-HF
 Correlation:  1.0000 wB97X-D
 Using SG-2 standard quadrature grid
 Dispersion:   Grimme D
 using 24 threads for integral computing
 -------------------------------------------------------
 OpenMP Integral computing Module                
 Release: version 1.0, May 2013, Q-Chem Inc. Pittsburgh 
 -------------------------------------------------------
 using 24 threads for integral computing
 -------------------------------------------------------
 OpenMP Integral computing Module                
 Release: version 1.0, May 2013, Q-Chem Inc. Pittsburgh 
 -------------------------------------------------------
 -------------------------------------------------------
 OpenMP BLAS3 based DFT computing Module                
 Release: version 1.0, May 2013, Q-Chem Inc. Pittsburgh 
 -------------------------------------------------------
 A unrestricted SCF calculation will be
 performed using Roothaan-Hall, GDM
 SCF converges when RMS gradient is below 1.0e-08
 ---------------------------------------
  Cycle       Energy         DIIS error
 ---------------------------------------
    1   -1736.7256522862      6.16e-04  Roothaan Step
 ---------------------------------------
  Cycle       Energy        RMS Gradient
 ---------------------------------------
    1   -1751.9117264168      2.01e-02   Normal BFGS step
    2   -1751.9133912129      2.93e-02   Normal BFGS step
    3   -1751.9184900806      7.23e-03   Normal BFGS step
    4   -1751.9189319970      5.15e-03   Normal BFGS step
    5   -1751.9192743621      2.71e-03   Normal BFGS step
    6   -1751.9193981545      1.66e-03   Normal BFGS step
    7   -1751.9194265847      9.79e-04   Normal BFGS step
    8   -1751.9194405324      6.29e-04   Normal BFGS step
    9   -1751.9194440395      3.84e-04   Normal BFGS step
   10   -1751.9194454698      1.97e-04   Normal BFGS step
   11   -1751.9194458072      1.51e-04   Normal BFGS step
   12   -1751.9194459210      5.68e-05   Normal BFGS step
   13   -1751.9194459638      4.25e-05   Normal BFGS step
   14   -1751.9194459707      1.74e-05   Normal BFGS step
   15   -1751.9194459743      1.33e-05   Normal BFGS step
   16   -1751.9194459752      6.05e-06   Normal BFGS step
   17   -1751.9194459755      2.45e-06   Normal BFGS step
   18   -1751.9194459756      1.13e-06   Normal BFGS step
   19   -1751.9194459756      4.54e-07   Normal BFGS step
   20   -1751.9194459756      3.31e-07   Normal BFGS step
   21   -1751.9194459756      2.28e-07   Normal BFGS step
   22   -1751.9194459756      1.16e-07   Normal BFGS step
   23   -1751.9194459756      2.43e-08   Normal BFGS step
   24   -1751.9194459756      2.77e-08   Normal BFGS step
   25   -1751.9194459756      1.48e-08   Normal BFGS step
   26   -1751.9194459756      4.30e-09  Convergence criterion met
 ---------------------------------------
 SCF time:   CPU 1802.07s  wall 118.00s 
<S^2> =          2.010098423

************** Final PCM Free Energy Summary **************
 G_electrostatic  =      -0.06567393 hartree =     -41.21101427 kcal/mol
 G_cavitation     =       0.00000000 hartree =       0.00000000 kcal/mol
 G_dispersion     =       0.00000000 hartree =       0.00000000 kcal/mol
 G_repulsion      =       0.00000000 hartree =       0.00000000 kcal/mol
 --------------------------------------------------
 Non-electrostatic Free Energy =       0.00000000 hartree =       0.00000000 kcal/mol
 Total                         =      -0.06567393 hartree =     -41.21101427 kcal/mol
 --------------------------------------------------
 SCF Energy (H0 + V/2)                       =   -1751.91944598 
 Solute Internal Energy (H0)                 =   -1751.85377204 
 Total Free Energy (H0 + V/2 + non-elec)     =   -1751.91944598 hartree
                                             = -1099346.04477876 kcal/mol
***********************************************************

 SCF   energy in the final basis set =    -1751.9194459756
 Total energy in the final basis set =    -1751.9194459756
 
 --------------------------------------------------------------
 
                    Orbital Energies (a.u.)
 --------------------------------------------------------------
 
 Alpha MOs
 -- Occupied --
-89.230 -89.125 -24.851 -24.850 -24.850 -24.841 -24.841 -24.829
-19.256 -19.240 -19.235 -14.434 -10.549 -10.525  -8.250  -8.159
 -6.199  -6.198  -6.197  -6.108  -6.106  -6.104  -1.441  -1.427
 -1.349  -1.348  -1.338  -1.331  -1.227  -1.174  -1.110  -1.019
 -0.864  -0.826  -0.789  -0.734  -0.703  -0.702  -0.691  -0.688
 -0.683  -0.628  -0.590  -0.577  -0.572  -0.567  -0.561  -0.556
 -0.552  -0.536  -0.535  -0.532  -0.525  -0.521  -0.512  -0.508
 -0.500  -0.470  -0.431  -0.413  -0.408  -0.393  -0.384  -0.373
 -0.335  -0.150
 -- Virtual --
  0.082   0.094   0.096   0.103   0.108   0.118   0.129   0.132
  0.134   0.138   0.147   0.153   0.161   0.162   0.166   0.174
  0.180   0.188   0.202   0.211   0.219   0.226   0.249   0.262
  0.270   0.281   0.292   0.301   0.305   0.311   0.315   0.320
  0.324   0.330   0.334   0.340   0.342   0.349   0.355   0.367
  0.380   0.383   0.390   0.392   0.399   0.400   0.403   0.407
  0.410   0.423   0.425   0.430   0.435   0.437   0.450   0.454
  0.457   0.464   0.472   0.483   0.486   0.495   0.507   0.525
  0.534   0.537   0.552   0.557   0.565   0.576   0.591   0.596
  0.634   0.651   0.669   0.684   0.705   0.725   0.794   0.810
  0.832   0.902   0.905   0.923   0.937   0.953   0.965   0.999
  1.059   1.074   1.087   1.110   1.129   1.149   1.164   1.174
  1.188   1.216   1.239   1.243   1.252   1.255   1.263   1.274
  1.280   1.295   1.308   1.321   1.327   1.379   1.393   1.461
  1.472   1.475   1.489   1.494   1.515   1.518   1.529   1.544
  1.548   1.559   1.564   1.567   1.577   1.597   1.607   1.612
  1.665   1.706   1.719   1.752   1.766   1.813   1.868   1.895
  1.917   1.942   1.950   1.976   1.979   2.013   2.031   2.044
  2.061   2.078   2.103   2.144   2.208   2.265   2.277   2.302
  2.340   2.681   2.739   2.861   2.872   2.905   2.920   2.925
  2.945   2.954   2.961   3.005   3.015   3.032   3.039   3.072
  3.091   3.133   3.181   3.187   3.256   3.570   3.591   3.712
  3.792   3.806   3.829   3.833   3.837   3.838   3.842   3.846
  3.859   3.860   3.868   3.878   3.885   3.897   3.948   3.955
  3.963   3.968   4.074   4.124   4.214   4.221   4.285   4.286
  4.290   4.298   4.317   4.466   4.474   5.020   5.025   5.026
  5.035   5.110   5.147   5.156   5.177   5.209   5.226   5.280
  5.294   5.442   6.392   6.398   6.422   6.441   6.466   6.469
  6.477   6.483   6.497   6.500   6.507   6.522   6.526   6.590
  6.869   6.875   6.879   6.890   8.186   8.298  17.489  17.509
 17.539  17.565  17.635  17.658  23.615  23.628  35.576  50.016
 50.024  50.064  66.896  66.898  66.909  66.924  66.950  66.966
189.433 189.519
 
 Beta MOs
 -- Occupied --
-89.230 -89.121 -24.851 -24.850 -24.850 -24.841 -24.841 -24.827
-19.244 -19.239 -19.235 -14.430 -10.549 -10.515  -8.250  -8.154
 -6.198  -6.198  -6.197  -6.105  -6.099  -6.094  -1.441  -1.422
 -1.349  -1.347  -1.336  -1.325  -1.225  -1.149  -1.108  -1.006
 -0.852  -0.811  -0.779  -0.726  -0.701  -0.700  -0.685  -0.681
 -0.667  -0.618  -0.579  -0.576  -0.569  -0.560  -0.558  -0.552
 -0.548  -0.535  -0.533  -0.524  -0.522  -0.512  -0.498  -0.494
 -0.484  -0.457  -0.415  -0.404  -0.398  -0.377  -0.368  -0.342
 -- Virtual --
 -0.086   0.082   0.087   0.098   0.106   0.107   0.114   0.124
  0.133   0.137   0.141   0.145   0.155   0.159   0.165   0.168
  0.172   0.181   0.187   0.192   0.207   0.219   0.224   0.236
  0.267   0.270   0.276   0.286   0.296   0.303   0.307   0.315
  0.318   0.323   0.328   0.332   0.338   0.342   0.344   0.351
  0.356   0.369   0.382   0.386   0.392   0.393   0.401   0.402
  0.404   0.411   0.412   0.425   0.427   0.431   0.438   0.440
  0.451   0.456   0.458   0.465   0.474   0.485   0.487   0.498
  0.509   0.527   0.538   0.539   0.553   0.558   0.566   0.578
  0.593   0.598   0.635   0.654   0.676   0.690   0.711   0.737
  0.806   0.819   0.845   0.904   0.917   0.932   0.948   0.969
  0.973   1.003   1.068   1.079   1.099   1.116   1.133   1.154
  1.171   1.183   1.196   1.221   1.245   1.246   1.258   1.266
  1.269   1.278   1.289   1.300   1.317   1.324   1.330   1.385
  1.396   1.463   1.473   1.477   1.490   1.496   1.515   1.519
  1.532   1.546   1.551   1.560   1.567   1.570   1.580   1.600
  1.610   1.616   1.669   1.711   1.740   1.756   1.772   1.820
  1.873   1.903   1.919   1.953   1.962   1.981   1.990   2.016
  2.040   2.050   2.065   2.080   2.111   2.149   2.218   2.269
  2.281   2.309   2.351   2.685   2.748   2.870   2.893   2.921
  2.926   2.940   2.948   2.963   2.987   3.012   3.026   3.036
  3.044   3.083   3.102   3.134   3.188   3.206   3.257   3.571
  3.610   3.713   3.792   3.808   3.829   3.833   3.838   3.839
  3.844   3.847   3.859   3.860   3.869   3.880   3.888   3.899
  3.951   3.958   3.967   3.969   4.082   4.132   4.214   4.226
  4.288   4.288   4.291   4.300   4.322   4.469   4.478   5.021
  5.025   5.030   5.038   5.128   5.154   5.183   5.186   5.211
  5.227   5.284   5.305   5.442   6.393   6.399   6.425   6.442
  6.467   6.470   6.478   6.484   6.498   6.501   6.508   6.524
  6.529   6.593   6.870   6.877   6.881   6.893   8.192   8.299
 17.493  17.512  17.544  17.572  17.639  17.658  23.616  23.643
 35.580  50.022  50.029  50.065  66.896  66.898  66.910  66.925
 66.950  66.967 189.437 189.520
 --------------------------------------------------------------
 
          Ground-State Mulliken Net Atomic Charges

     Atom                 Charge (a.u.)    Spin (a.u.)
  --------------------------------------------------------
      1 S                     0.363591       0.949991
      2 C                    -0.167619       0.514602
      3 N                    -0.482272       0.045450
      4 O                    -0.268137       0.316650
      5 F                    -0.079321       0.011895
      6 F                    -0.033438      -0.001675
      7 F                    -0.105213       0.019454
      8 S                     0.352900       0.101532
      9 C                    -0.011622       0.034703
     10 O                    -0.162314      -0.005952
     11 O                    -0.196663       0.018684
     12 F                    -0.059650      -0.000602
     13 F                    -0.084166       0.000638
     14 F                    -0.066077      -0.005369
  --------------------------------------------------------
  Sum of atomic charges =    -1.000000
  Sum of spin   charges =     2.000000

 -----------------------------------------------------------------
                    Cartesian Multipole Moments
 -----------------------------------------------------------------
    Charge (ESU x 10^10)
                -4.8032
    Dipole Moment (Debye)
         X       2.8883      Y       2.8850      Z       3.3175
       Tot       5.2604
    Quadrupole Moments (Debye-Ang)
        XX    -104.3342     XY      -2.0679     YY    -102.3059
        XZ      -6.9529     YZ      -3.4292     ZZ    -111.0748
    Octopole Moments (Debye-Ang^2)
       XXX     171.7406    XXY     -34.5458    XYY      51.7273
       YYY    -133.0741    XXZ      70.6268    XYZ       6.3620
       YYZ      65.5300    XZZ      65.3563    YZZ     -33.5578
       ZZZ     218.5079
    Hexadecapole Moments (Debye-Ang^3)
      XXXX   -1593.6192   XXXY      87.4147   XXYY    -422.6230
      XYYY      86.3195   YYYY    -906.8023   XXXZ    -530.4205
      XXYZ      -9.7395   XYYZ    -181.5680   YYYZ      10.4442
      XXZZ    -529.1252   XYZZ      11.0303   YYZZ    -403.8685
      XZZZ    -563.0081   YZZZ     -20.6093   ZZZZ   -1501.4642
 -----------------------------------------------------------------
 Calculating analytic gradient of the SCF energy
 Gradient of SCF Energy
            1           2           3           4           5           6
    1  -0.0317791   0.0143994   0.0012714  -0.0003915  -0.0076819   0.0203571
    2   0.0060073  -0.0145504  -0.0309782   0.0318326  -0.0171089  -0.0007759
    3   0.0735871  -0.0204689   0.0129140  -0.0486807   0.0138428  -0.0162726
            7           8           9          10          11          12
    1  -0.0146101   0.0038839  -0.0120011   0.0031867   0.0109766  -0.0072875
    2   0.0000890   0.0017384   0.0072825   0.0187984   0.0112014  -0.0069436
    3  -0.0085134  -0.0122034  -0.0015570   0.0337368  -0.0311391   0.0175769
           13          14
    1   0.0194407   0.0002353
    2   0.0051356  -0.0117283
    3   0.0018717  -0.0146942
 Max gradient component =       7.359E-02
 RMS gradient           =       2.046E-02
 Computing fast CPCM-SWIG gradient
 Updating gradient with PCM contributions...
 -- total gradient after adding PCM contribution --
---------------------------------------------------
  Atom         X              Y              Z     
---------------------------------------------------
   1      -0.059023       0.030773       0.091090
   2       0.029564      -0.022319      -0.040795
   3       0.024379      -0.016792      -0.001194
   4       0.008145       0.018208      -0.048319
   5      -0.002297      -0.001610       0.004123
   6       0.008848      -0.007540      -0.011412
   7      -0.003061       0.000896       0.000520
   8      -0.010532      -0.004274       0.005398
   9       0.000116       0.001548      -0.001520
  10       0.001693       0.001727       0.001600
  11      -0.000280       0.000929      -0.001337
  12      -0.000352      -0.000621       0.001063
  13       0.002006      -0.000528       0.000536
  14       0.000793      -0.000397       0.000247
---------------------------------------------------
 Number of fixed atoms: 0
 Gradient time:  CPU 133.14 s  wall 13.33 s
 Geometry Optimization Parameters
   NAtoms,    NIC,     NZ,  NCons,   NDum,   NFix, NCnnct, MaxDiis
       14      83       0       0       0       0       0       0

 Cartesian Hessian Update
 Hessian Updated using BFGS Update


** GEOMETRY OPTIMIZATION IN DELOCALIZED INTERNAL COORDINATES **
   Searching for a Minimum

   Optimization Cycle:   2

                       Coordinates (Angstroms)
     ATOM                X               Y               Z
      1  S         1.2440615104   -0.0207586223   -0.2893856195
      2  C         0.7806168215    1.3336540324    1.0092292307
      3  N         0.1451725873    0.2476564850   -1.4131802664
      4  O         1.0554870214   -1.1580516734    0.6285304990
      5  F         0.8243886454    2.5166271462    0.4082241615
      6  F        -0.4325343695    1.2004603875    1.5609689935
      7  F         1.6941714519    1.3349109213    1.9811570361
      8  S        -1.3395896859   -0.3291185738   -1.4717908644
      9  C        -2.2524751904    1.2577369134   -1.8529087477
     10  O        -1.5697556092   -1.1431800553   -2.6546655479
     11  O        -1.9048752629   -0.7783824845   -0.2096314514
     12  F        -1.8253853753    1.7932000127   -2.9904287566
     13  F        -3.5537147051    0.9948440032   -1.9701159085
     14  F        -2.0886697484    2.1425685979   -0.8751432310
   Point Group: c1    Number of degrees of freedom:    36


   Energy is  -1751.919445976

 Hessian Updated using BFGS Update

 29 Hessian modes will be used to form the next step
  Hessian Eigenvalues:
     0.002000    0.002003    0.019273    0.020561    0.054367    0.083400
     0.084158    0.088198    0.099913    0.106185    0.112792    0.114898
     0.144145    0.196640    0.214208    0.233650    0.245193    0.324548
     0.519442    0.536691    0.591621    0.591752    0.595649    0.598084
     0.600973    0.616948    0.924468    0.946678    0.954003

 Minimum Search - Taking Simple RFO Step
 Searching for Lamda that Minimizes Along All modes
 Value Taken    Lamda =  -0.06788289
 Calculated Step too Large.  Step scaled by  0.428074
 Step Taken.  Stepsize is  0.300000

                             Maximum     Tolerance    Cnvgd?
         Gradient           0.037715      0.000300      NO
         Displacement       0.122511      0.001200      NO
         Energy change     -0.032115      0.000001      NO


 New Cartesian Coordinates Obtained by Inverse Iteration

 Displacement from previous Coordinates is:  0.513370
 ----------------------------------------------------------------
             Standard Nuclear Orientation (Angstroms)
    I     Atom           X                Y                Z
 ----------------------------------------------------------------
    1      S       1.3224124110    -0.0929974156    -0.3555740187
    2      C       0.7106793316     1.3148094945     0.9839485421
    3      N       0.1723541910     0.2049482203    -1.4427689671
    4      O       1.1183330869    -1.1340079673     0.6998944670
    5      F       0.7359436723     2.4837712729     0.3491293209
    6      F      -0.5027465893     1.1866361824     1.5572037280
    7      F       1.6228126611     1.3615010796     1.9577703331
    8      S      -1.3255661585    -0.3223015172    -1.4717162118
    9      C      -2.2269674095     1.2797145010    -1.8264072545
   10      O      -1.6002628316    -1.1294104510    -2.6513604686
   11      O      -1.8638586113    -0.7739161503    -0.1978913246
   12      F      -1.8193344322     1.8123164519    -2.9735238361
   13      F      -3.5361554378     1.0387504412    -1.9151954636
   14      F      -2.0307457923     2.1623529478    -0.8526493189
 ----------------------------------------------------------------
 Nuclear Repulsion Energy =  1423.9061404201 hartrees
 There are       66 alpha and       64 beta electrons
 Discretize the solute cavity surface with Lebedev spheres
	Using 194 Lebedev grid points for each H atom
	Using 194 Lebedev grid points for other atoms
	Atomic van der Waals radii will be scaled by 1.10
 Remove points where switching function is < 1.0e-08
 Keep 1219 surface tesserae and discard 1497 interior tesserae
 Molecular Surface Area = 216.788 Angst**2
 Applying Cartesian multipole field
    Component          Value
    ---------          -----
     (2,0,0)        1.00000E-11
     (0,2,0)        2.00000E-11
     (0,0,2)       -3.00000E-11
 Nucleus-field energy     =    -0.0000000056 hartrees
 Requested basis set is 6-311++G(d)
 There are 98 shells and 324 basis functions
 A cutoff of  1.0D-12 yielded   3781 shell pairs
 There are     43825 function pairs (     47416 Cartesian)
 Smallest overlap matrix eigenvalue = 5.99E-05
 Guess MOs from SCF MO coefficient file
 Reading MOs from coefficient file
 Reading MOs from coefficient file

 -----------------------------------------------------------------------
  General SCF calculation program by
  Eric Jon Sundstrom, Paul Horn, Yuezhi Mao, Dmitri Zuev, Alec White,
  David Stuck, Shaama M.S., Shane Yost, Joonho Lee, David Small,
  Daniel Levine, Susi Lehtola, Hugh Burton, Evgeny Epifanovsky
 -----------------------------------------------------------------------
 Exchange:     0.2220 Hartree-Fock + 1.0000 wB97X-D + LR-HF
 Correlation:  1.0000 wB97X-D
 Using SG-2 standard quadrature grid
 Dispersion:   Grimme D
 using 24 threads for integral computing
 -------------------------------------------------------
 OpenMP Integral computing Module                
 Release: version 1.0, May 2013, Q-Chem Inc. Pittsburgh 
 -------------------------------------------------------
 using 24 threads for integral computing
 -------------------------------------------------------
 OpenMP Integral computing Module                
 Release: version 1.0, May 2013, Q-Chem Inc. Pittsburgh 
 -------------------------------------------------------
 -------------------------------------------------------
 OpenMP BLAS3 based DFT computing Module                
 Release: version 1.0, May 2013, Q-Chem Inc. Pittsburgh 
 -------------------------------------------------------
 A unrestricted SCF calculation will be
 performed using Roothaan-Hall, GDM
 SCF converges when RMS gradient is below 1.0e-08
 ---------------------------------------
  Cycle       Energy         DIIS error
 ---------------------------------------
    1   -1736.6577688787      5.24e-04  Roothaan Step
 ---------------------------------------
  Cycle       Energy        RMS Gradient
 ---------------------------------------
    1   -1751.9377208675      2.17e-02   Normal BFGS step
    2   -1751.9393253080      2.94e-02   Normal BFGS step
    3   -1751.9431401454      1.14e-02   Normal BFGS step
    4   -1751.9435931168      9.16e-03   Normal BFGS step
    5   -1751.9439705446      5.34e-03   Normal BFGS step
    6   -1751.9441260094      2.48e-03   Normal BFGS step
    7   -1751.9441599335      1.48e-03   Normal BFGS step
    8   -1751.9441758469      9.72e-04   Normal BFGS step
    9   -1751.9441803018      4.37e-04   Normal BFGS step
   10   -1751.9441820469      2.25e-04   Normal BFGS step
   11   -1751.9441824766      1.26e-04   Normal BFGS step
   12   -1751.9441825689      5.35e-05   Normal BFGS step
   13   -1751.9441826003      2.02e-05   Normal BFGS step
   14   -1751.9441826048      2.15e-05   Normal BFGS step
   15   -1751.9441826064      1.08e-05   Normal BFGS step
   16   -1751.9441826070      5.21e-06   Normal BFGS step
   17   -1751.9441826073      3.24e-06   Normal BFGS step
   18   -1751.9441826073      9.75e-07   Normal BFGS step
   19   -1751.9441826073      8.17e-07   Normal BFGS step
   20   -1751.9441826073      4.28e-07   Normal BFGS step
   21   -1751.9441826073      1.68e-07   Normal BFGS step
   22   -1751.9441826074      7.62e-08   Normal BFGS step
   23   -1751.9441826074      5.22e-08   Normal BFGS step
   24   -1751.9441826073      1.28e-08   Normal BFGS step
   25   -1751.9441826074      6.21e-09  Convergence criterion met
 ---------------------------------------
 SCF time:   CPU 1735.70s  wall 113.00s 
<S^2> =          2.009771152

************** Final PCM Free Energy Summary **************
 G_electrostatic  =      -0.06541841 hartree =     -41.05067177 kcal/mol
 G_cavitation     =       0.00000000 hartree =       0.00000000 kcal/mol
 G_dispersion     =       0.00000000 hartree =       0.00000000 kcal/mol
 G_repulsion      =       0.00000000 hartree =       0.00000000 kcal/mol
 --------------------------------------------------
 Non-electrostatic Free Energy =       0.00000000 hartree =       0.00000000 kcal/mol
 Total                         =      -0.06541841 hartree =     -41.05067177 kcal/mol
 --------------------------------------------------
 SCF Energy (H0 + V/2)                       =   -1751.94418261 
 Solute Internal Energy (H0)                 =   -1751.87876420 
 Total Free Energy (H0 + V/2 + non-elec)     =   -1751.94418261 hartree
                                             = -1099361.56724947 kcal/mol
***********************************************************

 SCF   energy in the final basis set =    -1751.9441826074
 Total energy in the final basis set =    -1751.9441826074
 
 --------------------------------------------------------------
 
                    Orbital Energies (a.u.)
 --------------------------------------------------------------
 
 Alpha MOs
 -- Occupied --
-89.230 -89.111 -24.851 -24.850 -24.850 -24.839 -24.838 -24.827
-19.254 -19.238 -19.235 -14.432 -10.550 -10.522  -8.250  -8.146
 -6.198  -6.198  -6.198  -6.096  -6.093  -6.091  -1.441  -1.422
 -1.349  -1.347  -1.334  -1.325  -1.226  -1.159  -1.108  -1.015
 -0.858  -0.818  -0.788  -0.730  -0.702  -0.701  -0.686  -0.682
 -0.677  -0.629  -0.587  -0.577  -0.572  -0.562  -0.559  -0.554
 -0.551  -0.536  -0.534  -0.527  -0.522  -0.517  -0.512  -0.500
 -0.496  -0.466  -0.430  -0.408  -0.406  -0.392  -0.382  -0.370
 -0.334  -0.186
 -- Virtual --
  0.082   0.095   0.096   0.103   0.109   0.114   0.129   0.132
  0.135   0.138   0.150   0.154   0.161   0.162   0.164   0.174
  0.181   0.188   0.206   0.212   0.220   0.232   0.245   0.257
  0.273   0.280   0.288   0.300   0.304   0.311   0.315   0.322
  0.324   0.329   0.333   0.342   0.344   0.352   0.361   0.368
  0.383   0.383   0.388   0.393   0.398   0.402   0.404   0.405
  0.410   0.424   0.428   0.431   0.435   0.439   0.451   0.455
  0.457   0.465   0.473   0.484   0.491   0.494   0.508   0.523
  0.530   0.538   0.554   0.560   0.565   0.574   0.593   0.597
  0.640   0.648   0.679   0.691   0.706   0.730   0.793   0.813
  0.847   0.888   0.901   0.916   0.933   0.959   0.971   1.004
  1.045   1.082   1.087   1.112   1.133   1.145   1.163   1.174
  1.187   1.217   1.226   1.244   1.251   1.254   1.263   1.274
  1.287   1.298   1.316   1.326   1.333   1.388   1.391   1.467
  1.474   1.479   1.489   1.496   1.518   1.520   1.535   1.547
  1.549   1.562   1.563   1.572   1.577   1.600   1.606   1.617
  1.642   1.682   1.713   1.753   1.768   1.813   1.867   1.893
  1.914   1.946   1.955   1.974   1.983   2.014   2.025   2.044
  2.065   2.082   2.101   2.156   2.194   2.265   2.274   2.308
  2.335   2.668   2.743   2.848   2.869   2.911   2.922   2.926
  2.946   2.957   2.961   3.007   3.019   3.030   3.039   3.068
  3.090   3.133   3.177   3.189   3.255   3.556   3.573   3.712
  3.792   3.810   3.829   3.833   3.839   3.841   3.846   3.849
  3.859   3.860   3.871   3.880   3.886   3.899   3.945   3.953
  3.960   3.967   4.069   4.124   4.214   4.219   4.280   4.283
  4.287   4.293   4.310   4.464   4.474   5.018   5.021   5.024
  5.036   5.120   5.148   5.161   5.174   5.211   5.226   5.269
  5.289   5.441   6.392   6.401   6.424   6.445   6.467   6.476
  6.481   6.488   6.497   6.501   6.511   6.518   6.524   6.587
  6.866   6.872   6.880   6.890   8.172   8.300  17.483  17.506
 17.541  17.571  17.625  17.659  23.614  23.626  35.573  50.018
 50.025  50.067  66.896  66.900  66.913  66.927  66.950  66.967
189.424 189.521
 
 Beta MOs
 -- Occupied --
-89.230 -89.107 -24.851 -24.850 -24.850 -24.838 -24.837 -24.824
-19.243 -19.238 -19.234 -14.429 -10.549 -10.510  -8.250  -8.142
 -6.198  -6.198  -6.197  -6.093  -6.087  -6.080  -1.440  -1.416
 -1.349  -1.347  -1.331  -1.319  -1.224  -1.134  -1.107  -1.002
 -0.849  -0.801  -0.777  -0.723  -0.701  -0.700  -0.678  -0.674
 -0.652  -0.618  -0.578  -0.576  -0.568  -0.555  -0.555  -0.550
 -0.548  -0.535  -0.532  -0.518  -0.517  -0.512  -0.495  -0.485
 -0.477  -0.456  -0.414  -0.402  -0.396  -0.371  -0.361  -0.338
 -- Virtual --
 -0.082   0.064   0.085   0.098   0.102   0.106   0.114   0.122
  0.133   0.136   0.140   0.142   0.155   0.159   0.165   0.165
  0.169   0.179   0.184   0.191   0.209   0.220   0.225   0.241
  0.267   0.269   0.277   0.285   0.291   0.302   0.306   0.314
  0.318   0.324   0.327   0.332   0.338   0.343   0.347   0.353
  0.362   0.369   0.385   0.387   0.390   0.394   0.400   0.403
  0.405   0.408   0.413   0.425   0.430   0.433   0.437   0.441
  0.452   0.456   0.458   0.466   0.475   0.485   0.493   0.495
  0.509   0.525   0.532   0.541   0.556   0.563   0.566   0.577
  0.595   0.599   0.642   0.652   0.682   0.699   0.714   0.741
  0.808   0.820   0.860   0.902   0.908   0.926   0.937   0.968
  0.988   1.009   1.053   1.088   1.097   1.117   1.139   1.149
  1.170   1.182   1.195   1.222   1.235   1.246   1.256   1.258
  1.272   1.277   1.300   1.302   1.319   1.330   1.343   1.393
  1.394   1.469   1.476   1.480   1.491   1.498   1.520   1.521
  1.539   1.549   1.552   1.564   1.569   1.575   1.580   1.603
  1.609   1.623   1.658   1.695   1.717   1.755   1.776   1.821
  1.873   1.900   1.917   1.958   1.973   1.981   1.990   2.017
  2.037   2.048   2.068   2.085   2.107   2.160   2.204   2.271
  2.277   2.315   2.347   2.673   2.752   2.869   2.884   2.922
  2.926   2.945   2.952   2.964   2.987   3.013   3.034   3.035
  3.044   3.078   3.100   3.135   3.189   3.207   3.256   3.566
  3.582   3.713   3.792   3.812   3.830   3.834   3.839   3.843
  3.848   3.851   3.859   3.861   3.874   3.883   3.890   3.901
  3.949   3.956   3.965   3.968   4.078   4.133   4.214   4.224
  4.284   4.285   4.289   4.296   4.315   4.467   4.479   5.020
  5.024   5.027   5.040   5.131   5.155   5.178   5.197   5.213
  5.228   5.279   5.295   5.442   6.392   6.403   6.427   6.445
  6.468   6.478   6.482   6.489   6.498   6.503   6.512   6.522
  6.525   6.589   6.866   6.875   6.882   6.892   8.177   8.300
 17.490  17.507  17.544  17.579  17.628  17.659  23.615  23.645
 35.577  50.024  50.029  50.068  66.897  66.900  66.914  66.928
 66.950  66.968 189.427 189.521
 --------------------------------------------------------------
 
          Ground-State Mulliken Net Atomic Charges

     Atom                 Charge (a.u.)    Spin (a.u.)
  --------------------------------------------------------
      1 S                     0.349966       0.759081
      2 C                    -0.104445       0.592087
      3 N                    -0.477475       0.099845
      4 O                    -0.334528       0.373784
      5 F                    -0.085846       0.025607
      6 F                    -0.033914       0.009991
      7 F                    -0.112304       0.029597
      8 S                     0.411026       0.074806
      9 C                    -0.026870       0.026985
     10 O                    -0.172386      -0.004973
     11 O                    -0.201442       0.017043
     12 F                    -0.062270      -0.000212
     13 F                    -0.083974       0.000471
     14 F                    -0.065537      -0.004113
  --------------------------------------------------------
  Sum of atomic charges =    -1.000000
  Sum of spin   charges =     2.000000

 -----------------------------------------------------------------
                    Cartesian Multipole Moments
 -----------------------------------------------------------------
    Charge (ESU x 10^10)
                -4.8032
    Dipole Moment (Debye)
         X       2.9880      Y       2.5921      Z       2.8959
       Tot       4.9024
    Quadrupole Moments (Debye-Ang)
        XX    -104.0908     XY      -2.5526     YY    -101.8213
        XZ      -7.6920     YZ      -3.0998     ZZ    -111.0268
    Octopole Moments (Debye-Ang^2)
       XXX     170.6223    XXY     -34.9752    XYY      51.8594
       YYY    -132.4844    XXZ      70.2176    XYZ       7.1993
       YYZ      65.1420    XZZ      65.5028    YZZ     -33.4903
       ZZZ     219.4194
    Hexadecapole Moments (Debye-Ang^3)
      XXXX   -1574.1244   XXXY      99.4154   XXYY    -418.7414
      XYYY      99.8050   YYYY    -904.9266   XXXZ    -516.5987
      XXYZ      -7.2280   XYYZ    -177.1443   YYYZ      15.9772
      XXZZ    -524.5809   XYZZ      15.0009   YYZZ    -401.1591
      XZZZ    -548.1079   YZZZ     -15.8595   ZZZZ   -1488.3558
 -----------------------------------------------------------------
 Calculating analytic gradient of the SCF energy
 Gradient of SCF Energy
            1           2           3           4           5           6
    1  -0.0283984   0.0177277  -0.0032347   0.0022191  -0.0065954   0.0113311
    2   0.0121905  -0.0128255  -0.0256602   0.0139126  -0.0153838   0.0014195
    3   0.0552267  -0.0216122   0.0096144  -0.0297439   0.0122351  -0.0089920
            7           8           9          10          11          12
    1  -0.0138799   0.0033155  -0.0097267   0.0042440   0.0119465  -0.0068886
    2   0.0000067   0.0027691   0.0072205   0.0169959   0.0113361  -0.0065016
    3  -0.0073147  -0.0166659  -0.0005168   0.0322722  -0.0294538   0.0175760
           13          14
    1   0.0180229  -0.0000829
    2   0.0056102  -0.0110901
    3   0.0013349  -0.0139599
 Max gradient component =       5.523E-02
 RMS gradient           =       1.668E-02
 Computing fast CPCM-SWIG gradient
 Updating gradient with PCM contributions...
 -- total gradient after adding PCM contribution --
---------------------------------------------------
  Atom         X              Y              Z     
---------------------------------------------------
   1      -0.051713       0.036164       0.063981
   2       0.032379      -0.030797      -0.044233
   3       0.019394      -0.009168      -0.003695
   4       0.009126       0.005043      -0.023774
   5      -0.002431       0.000265       0.002895
   6      -0.000917      -0.004388      -0.003044
   7      -0.002474       0.001341       0.002496
   8      -0.005672       0.000062       0.004122
   9       0.000450      -0.000198      -0.001371
  10       0.001390       0.000705       0.000627
  11       0.000424       0.000426       0.000507
  12      -0.000529      -0.000155       0.000679
  13       0.000092       0.000413       0.000267
  14       0.000481       0.000287       0.000543
---------------------------------------------------
 Number of fixed atoms: 0
 Gradient time:  CPU 129.07 s  wall 13.25 s
 Geometry Optimization Parameters
   NAtoms,    NIC,     NZ,  NCons,   NDum,   NFix, NCnnct, MaxDiis
       14      83       0       0       0       0       0       0

 Cartesian Hessian Update
 Hessian Updated using BFGS Update


** GEOMETRY OPTIMIZATION IN DELOCALIZED INTERNAL COORDINATES **
   Searching for a Minimum

   Optimization Cycle:   3

                       Coordinates (Angstroms)
     ATOM                X               Y               Z
      1  S         1.3224124110   -0.0929974156   -0.3555740187
      2  C         0.7106793316    1.3148094945    0.9839485421
      3  N         0.1723541910    0.2049482203   -1.4427689671
      4  O         1.1183330869   -1.1340079673    0.6998944670
      5  F         0.7359436723    2.4837712729    0.3491293209
      6  F        -0.5027465893    1.1866361824    1.5572037280
      7  F         1.6228126611    1.3615010796    1.9577703331
      8  S        -1.3255661585   -0.3223015172   -1.4717162118
      9  C        -2.2269674095    1.2797145010   -1.8264072545
     10  O        -1.6002628316   -1.1294104510   -2.6513604686
     11  O        -1.8638586113   -0.7739161503   -0.1978913246
     12  F        -1.8193344322    1.8123164519   -2.9735238361
     13  F        -3.5361554378    1.0387504412   -1.9151954636
     14  F        -2.0307457923    2.1623529478   -0.8526493189
   Point Group: c1    Number of degrees of freedom:    36


   Energy is  -1751.944182607

 Hessian Updated using BFGS Update

 30 Hessian modes will be used to form the next step
  Hessian Eigenvalues:
     0.002000    0.002005    0.019325    0.020039    0.051857    0.084039
     0.086963    0.088273    0.100105    0.106193    0.110902    0.116862
     0.147234    0.196733    0.214240    0.239095    0.247601    0.277616
     0.358754    0.520624    0.534376    0.591640    0.591948    0.598056
     0.600735    0.601618    0.629300    0.944761    0.949846    0.965891

 Minimum Search - Taking Simple RFO Step
 Searching for Lamda that Minimizes Along All modes
 Value Taken    Lamda =  -0.04687252
 Calculated Step too Large.  Step scaled by  0.450239
 Step Taken.  Stepsize is  0.300000

                             Maximum     Tolerance    Cnvgd?
         Gradient           0.031654      0.000300      NO
         Displacement       0.134212      0.001200      NO
         Energy change     -0.024737      0.000001      NO


 New Cartesian Coordinates Obtained by Inverse Iteration

 Displacement from previous Coordinates is:  0.340486
 ----------------------------------------------------------------
             Standard Nuclear Orientation (Angstroms)
    I     Atom           X                Y                Z
 ----------------------------------------------------------------
    1      S       1.3767039484    -0.1523629490    -0.4103761930
    2      C       0.6770117696     1.3308859755     0.9932101403
    3      N       0.1789022210     0.1628073729    -1.4629336607
    4      O       1.1134623934    -1.1024862223     0.7386911669
    5      F       0.7142887755     2.4814154974     0.3246503539
    6      F      -0.5309765257     1.2388852006     1.5895967588
    7      F       1.6070386138     1.3886672316     1.9497426382
    8      S      -1.3249594144    -0.3379640559    -1.4902524682
    9      C      -2.2115568817     1.2802942064    -1.8057901707
   10      O      -1.6280722369    -1.1121871267    -2.6863523534
   11      O      -1.8637575909    -0.8101080201    -0.2239095674
   12      F      -1.8048500741     1.8298575499    -2.9461111976
   13      F      -3.5235518807     1.0515043014    -1.8917054290
   14      F      -2.0027850261     2.1429581285    -0.8176004907
 ----------------------------------------------------------------
 Nuclear Repulsion Energy =  1417.3164205976 hartrees
 There are       66 alpha and       64 beta electrons
 Discretize the solute cavity surface with Lebedev spheres
	Using 194 Lebedev grid points for each H atom
	Using 194 Lebedev grid points for other atoms
	Atomic van der Waals radii will be scaled by 1.10
 Remove points where switching function is < 1.0e-08
 Keep 1224 surface tesserae and discard 1492 interior tesserae
 Molecular Surface Area = 217.494 Angst**2
 Applying Cartesian multipole field
    Component          Value
    ---------          -----
     (2,0,0)        1.00000E-11
     (0,2,0)        2.00000E-11
     (0,0,2)       -3.00000E-11
 Nucleus-field energy     =    -0.0000000056 hartrees
 Requested basis set is 6-311++G(d)
 There are 98 shells and 324 basis functions
 A cutoff of  1.0D-12 yielded   3772 shell pairs
 There are     43748 function pairs (     47331 Cartesian)
 Smallest overlap matrix eigenvalue = 6.17E-05
 Guess MOs from SCF MO coefficient file
 Reading MOs from coefficient file
 Reading MOs from coefficient file

 -----------------------------------------------------------------------
  General SCF calculation program by
  Eric Jon Sundstrom, Paul Horn, Yuezhi Mao, Dmitri Zuev, Alec White,
  David Stuck, Shaama M.S., Shane Yost, Joonho Lee, David Small,
  Daniel Levine, Susi Lehtola, Hugh Burton, Evgeny Epifanovsky
 -----------------------------------------------------------------------
 Exchange:     0.2220 Hartree-Fock + 1.0000 wB97X-D + LR-HF
 Correlation:  1.0000 wB97X-D
 Using SG-2 standard quadrature grid
 Dispersion:   Grimme D
 using 24 threads for integral computing
 -------------------------------------------------------
 OpenMP Integral computing Module                
 Release: version 1.0, May 2013, Q-Chem Inc. Pittsburgh 
 -------------------------------------------------------
 using 24 threads for integral computing
 -------------------------------------------------------
 OpenMP Integral computing Module                
 Release: version 1.0, May 2013, Q-Chem Inc. Pittsburgh 
 -------------------------------------------------------
 -------------------------------------------------------
 OpenMP BLAS3 based DFT computing Module                
 Release: version 1.0, May 2013, Q-Chem Inc. Pittsburgh 
 -------------------------------------------------------
 A unrestricted SCF calculation will be
 performed using Roothaan-Hall, GDM
 SCF converges when RMS gradient is below 1.0e-08
 ---------------------------------------
  Cycle       Energy         DIIS error
 ---------------------------------------
    1   -1736.6686010819      4.28e-04  Roothaan Step
 ---------------------------------------
  Cycle       Energy        RMS Gradient
 ---------------------------------------
    1   -1751.9580400754      1.98e-02   Normal BFGS step
    2   -1751.9600406005      2.53e-02   Normal BFGS step
    3   -1751.9624410281      1.17e-02   Normal BFGS step
    4   -1751.9628745177      8.86e-03   Normal BFGS step
    5   -1751.9632055719      4.96e-03   Normal BFGS step
    6   -1751.9633116609      2.24e-03   Normal BFGS step
    7   -1751.9633338232      1.12e-03   Normal BFGS step
    8   -1751.9633418498      7.67e-04   Normal BFGS step
    9   -1751.9633446073      3.50e-04   Normal BFGS step
   10   -1751.9633456169      1.43e-04   Normal BFGS step
   11   -1751.9633458158      6.23e-05   Normal BFGS step
   12   -1751.9633458570      3.35e-05   Normal BFGS step
   13   -1751.9633458681      1.83e-05   Normal BFGS step
   14   -1751.9633458701      1.13e-05   Normal BFGS step
   15   -1751.9633458706      6.48e-06   Normal BFGS step
   16   -1751.9633458708      3.60e-06   Normal BFGS step
   17   -1751.9633458709      1.74e-06   Normal BFGS step
   18   -1751.9633458709      6.53e-07   Normal BFGS step
   19   -1751.9633458709      3.02e-07   Normal BFGS step
   20   -1751.9633458709      1.19e-07   Normal BFGS step
   21   -1751.9633458709      4.35e-08   Normal BFGS step
   22   -1751.9633458709      3.80e-08   Normal BFGS step
   23   -1751.9633458709      2.21e-08   Normal BFGS step
   24   -1751.9633458709      8.01e-09  Convergence criterion met
 ---------------------------------------
 SCF time:   CPU 1666.76s  wall 106.00s 
<S^2> =          2.008192338

************** Final PCM Free Energy Summary **************
 G_electrostatic  =      -0.06583775 hartree =     -41.31381238 kcal/mol
 G_cavitation     =       0.00000000 hartree =       0.00000000 kcal/mol
 G_dispersion     =       0.00000000 hartree =       0.00000000 kcal/mol
 G_repulsion      =       0.00000000 hartree =       0.00000000 kcal/mol
 --------------------------------------------------
 Non-electrostatic Free Energy =       0.00000000 hartree =       0.00000000 kcal/mol
 Total                         =      -0.06583775 hartree =     -41.31381238 kcal/mol
 --------------------------------------------------
 SCF Energy (H0 + V/2)                       =   -1751.96334587 
 Solute Internal Energy (H0)                 =   -1751.89750812 
 Total Free Energy (H0 + V/2 + non-elec)     =   -1751.96334587 hartree
                                             = -1099373.59237884 kcal/mol
***********************************************************

 SCF   energy in the final basis set =    -1751.9633458709
 Total energy in the final basis set =    -1751.9633458709
 
 --------------------------------------------------------------
 
                    Orbital Energies (a.u.)
 --------------------------------------------------------------
 
 Alpha MOs
 -- Occupied --
-89.229 -89.104 -24.850 -24.850 -24.849 -24.841 -24.839 -24.829
-19.250 -19.236 -19.234 -14.430 -10.549 -10.523  -8.249  -8.140
 -6.197  -6.196  -6.196  -6.090  -6.086  -6.084  -1.440  -1.422
 -1.348  -1.347  -1.335  -1.326  -1.224  -1.147  -1.106  -1.008
 -0.853  -0.812  -0.789  -0.728  -0.701  -0.700  -0.686  -0.683
 -0.671  -0.628  -0.585  -0.576  -0.570  -0.562  -0.560  -0.553
 -0.550  -0.535  -0.533  -0.523  -0.521  -0.516  -0.511  -0.498
 -0.495  -0.463  -0.426  -0.404  -0.402  -0.389  -0.377  -0.365
 -0.332  -0.216
 -- Virtual --
  0.082   0.095   0.097   0.102   0.109   0.111   0.129   0.132
  0.134   0.138   0.151   0.154   0.159   0.161   0.164   0.175
  0.182   0.189   0.206   0.211   0.220   0.234   0.245   0.254
  0.274   0.279   0.286   0.299   0.304   0.312   0.314   0.323
  0.324   0.328   0.332   0.342   0.347   0.352   0.363   0.367
  0.380   0.383   0.389   0.392   0.396   0.402   0.403   0.406
  0.410   0.423   0.429   0.431   0.434   0.439   0.451   0.454
  0.457   0.464   0.472   0.481   0.491   0.498   0.507   0.516
  0.528   0.537   0.556   0.561   0.565   0.577   0.593   0.595
  0.640   0.649   0.682   0.700   0.712   0.736   0.783   0.814
  0.847   0.879   0.901   0.911   0.929   0.952   0.969   1.006
  1.047   1.082   1.091   1.109   1.139   1.142   1.163   1.180
  1.189   1.208   1.224   1.246   1.251   1.255   1.261   1.273
  1.290   1.299   1.313   1.329   1.349   1.383   1.392   1.467
  1.472   1.479   1.489   1.497   1.513   1.522   1.533   1.546
  1.549   1.559   1.562   1.574   1.579   1.590   1.603   1.611
  1.618   1.669   1.713   1.757   1.771   1.818   1.864   1.892
  1.918   1.940   1.950   1.969   1.984   2.010   2.015   2.043
  2.061   2.082   2.101   2.150   2.186   2.257   2.275   2.305
  2.332   2.650   2.749   2.844   2.869   2.916   2.924   2.927
  2.948   2.962   2.963   3.009   3.021   3.031   3.043   3.067
  3.085   3.135   3.159   3.194   3.257   3.538   3.572   3.713
  3.792   3.809   3.830   3.834   3.839   3.841   3.845   3.848
  3.859   3.861   3.870   3.878   3.884   3.897   3.944   3.952
  3.958   3.968   4.067   4.120   4.213   4.214   4.276   4.281
  4.287   4.291   4.306   4.460   4.473   5.015   5.019   5.024
  5.035   5.126   5.152   5.167   5.175   5.212   5.226   5.260
  5.289   5.441   6.392   6.400   6.421   6.445   6.469   6.477
  6.481   6.489   6.495   6.499   6.507   6.515   6.526   6.575
  6.865   6.869   6.878   6.890   8.160   8.299  17.473  17.509
 17.538  17.566  17.611  17.660  23.614  23.622  35.570  50.022
 50.025  50.069  66.897  66.900  66.913  66.926  66.951  66.963
189.415 189.519
 
 Beta MOs
 -- Occupied --
-89.229 -89.100 -24.850 -24.849 -24.849 -24.839 -24.838 -24.827
-19.240 -19.235 -19.233 -14.427 -10.548 -10.509  -8.248  -8.136
 -6.197  -6.196  -6.196  -6.087  -6.081  -6.074  -1.440  -1.414
 -1.348  -1.346  -1.330  -1.319  -1.222  -1.123  -1.105  -0.997
 -0.846  -0.795  -0.777  -0.721  -0.701  -0.699  -0.676  -0.673
 -0.640  -0.619  -0.577  -0.575  -0.567  -0.555  -0.553  -0.549
 -0.547  -0.534  -0.532  -0.518  -0.516  -0.511  -0.495  -0.483
 -0.468  -0.455  -0.413  -0.400  -0.394  -0.367  -0.355  -0.335
 -- Virtual --
 -0.071   0.045   0.085   0.098   0.100   0.105   0.113   0.120
  0.132   0.135   0.138   0.140   0.155   0.158   0.164   0.166
  0.168   0.179   0.184   0.191   0.209   0.220   0.224   0.243
  0.267   0.270   0.278   0.284   0.288   0.302   0.306   0.315
  0.318   0.325   0.327   0.332   0.337   0.344   0.350   0.354
  0.365   0.369   0.384   0.384   0.390   0.394   0.398   0.404
  0.405   0.408   0.413   0.425   0.431   0.433   0.436   0.442
  0.453   0.455   0.459   0.466   0.474   0.481   0.492   0.499
  0.508   0.519   0.530   0.539   0.557   0.563   0.566   0.579
  0.595   0.597   0.642   0.651   0.684   0.702   0.725   0.748
  0.803   0.820   0.865   0.894   0.904   0.917   0.934   0.959
  0.985   1.010   1.053   1.089   1.100   1.114   1.146   1.147
  1.170   1.186   1.198   1.215   1.229   1.249   1.256   1.260
  1.268   1.277   1.301   1.308   1.316   1.332   1.362   1.390
  1.395   1.470   1.474   1.481   1.491   1.501   1.518   1.523
  1.538   1.549   1.552   1.564   1.567   1.577   1.583   1.603
  1.606   1.624   1.627   1.676   1.716   1.758   1.779   1.827
  1.871   1.898   1.922   1.960   1.965   1.981   1.991   2.018
  2.024   2.046   2.064   2.087   2.104   2.155   2.195   2.264
  2.278   2.312   2.343   2.655   2.757   2.869   2.885   2.921
  2.928   2.947   2.955   2.966   2.990   3.015   3.034   3.039
  3.047   3.075   3.097   3.137   3.188   3.199   3.258   3.553
  3.575   3.713   3.793   3.811   3.831   3.835   3.840   3.844
  3.848   3.851   3.859   3.861   3.874   3.881   3.888   3.899
  3.949   3.957   3.966   3.968   4.076   4.129   4.214   4.220
  4.281   4.284   4.288   4.294   4.310   4.465   4.477   5.020
  5.023   5.026   5.039   5.132   5.157   5.178   5.203   5.214
  5.229   5.276   5.293   5.442   6.392   6.403   6.424   6.446
  6.469   6.479   6.482   6.491   6.497   6.501   6.512   6.516
  6.527   6.578   6.866   6.874   6.882   6.892   8.164   8.299
 17.480  17.509  17.541  17.573  17.614  17.660  23.616  23.644
 35.574  50.025  50.031  50.070  66.897  66.901  66.914  66.927
 66.951  66.964 189.418 189.519
 --------------------------------------------------------------
 
          Ground-State Mulliken Net Atomic Charges

     Atom                 Charge (a.u.)    Spin (a.u.)
  --------------------------------------------------------
      1 S                     0.360587       0.643933
      2 C                    -0.060091       0.682507
      3 N                    -0.502291       0.125256
      4 O                    -0.374184       0.372385
      5 F                    -0.081262       0.033219
      6 F                    -0.037670       0.020877
      7 F                    -0.110032       0.035131
      8 S                     0.440505       0.064519
      9 C                    -0.032307       0.018597
     10 O                    -0.185761      -0.005978
     11 O                    -0.202031       0.013012
     12 F                    -0.064820      -0.000198
     13 F                    -0.084776       0.000230
     14 F                    -0.065869      -0.003492
  --------------------------------------------------------
  Sum of atomic charges =    -1.000000
  Sum of spin   charges =     2.000000

 -----------------------------------------------------------------
                    Cartesian Multipole Moments
 -----------------------------------------------------------------
    Charge (ESU x 10^10)
                -4.8032
    Dipole Moment (Debye)
         X       3.3040      Y       2.5254      Z       2.8753
       Tot       5.0558
    Quadrupole Moments (Debye-Ang)
        XX    -104.1326     XY      -3.0037     YY    -101.3134
        XZ      -8.3946     YZ      -2.7438     ZZ    -111.5286
    Octopole Moments (Debye-Ang^2)
       XXX     171.4379    XXY     -34.5946    XYY      52.5226
       YYY    -130.9119    XXZ      71.2044    XYZ       7.8806
       YYZ      65.4288    XZZ      66.6550    YZZ     -32.7627
       ZZZ     223.2672
    Hexadecapole Moments (Debye-Ang^3)
      XXXX   -1574.2814   XXXY      98.5893   XXYY    -419.4998
      XYYY     100.4019   YYYY    -908.9052   XXXZ    -513.0553
      XXYZ      -9.2797   XYYZ    -175.5040   YYYZ      10.5184
      XXZZ    -527.9897   XYZZ      14.7685   YYZZ    -403.6752
      XZZZ    -545.6194   YZZZ     -23.4947   ZZZZ   -1503.7709
 -----------------------------------------------------------------
 Calculating analytic gradient of the SCF energy
 Gradient of SCF Energy
            1           2           3           4           5           6
    1  -0.0182655   0.0176647  -0.0104234   0.0009436  -0.0056707   0.0065839
    2   0.0182999  -0.0126733  -0.0231220   0.0012314  -0.0133789   0.0023587
    3   0.0424032  -0.0231615   0.0085765  -0.0146741   0.0117298  -0.0055347
            7           8           9          10          11          12
    1  -0.0123190   0.0036405  -0.0102661   0.0040223   0.0125280  -0.0063693
[...]
  0.795   0.817   0.828   0.842   0.871   0.889   0.913   0.917
  0.938   0.998   1.046   1.075   1.094   1.108   1.132   1.148
  1.160   1.184   1.201   1.225   1.225   1.234   1.247   1.248
  1.264   1.272   1.281   1.284   1.304   1.314   1.327   1.352
  1.401   1.426   1.439   1.452   1.487   1.489   1.502   1.515
  1.522   1.524   1.533   1.547   1.557   1.570   1.589   1.597
  1.609   1.617   1.658   1.675   1.709   1.756   1.762   1.808
  1.816   1.841   1.907   1.921   1.932   1.944   1.974   1.981
  1.993   2.005   2.047   2.058   2.074   2.128   2.195   2.232
  2.276   2.298   2.319   2.641   2.740   2.867   2.903   2.918
  2.931   2.948   2.954   2.961   2.971   3.021   3.042   3.047
  3.054   3.059   3.067   3.079   3.137   3.209   3.255   3.555
  3.582   3.707   3.791   3.797   3.828   3.829   3.829   3.834
  3.838   3.841   3.852   3.852   3.854   3.865   3.868   3.894
  3.950   3.967   3.973   3.973   4.078   4.121   4.192   4.217
  4.279   4.286   4.292   4.315   4.318   4.444   4.474   5.005
  5.014   5.025   5.030   5.130   5.153   5.178   5.183   5.205
  5.217   5.240   5.276   5.437   6.385   6.398   6.401   6.416
  6.436   6.445   6.448   6.454   6.466   6.497   6.503   6.504
  6.531   6.549   6.875   6.877   6.895   6.899   8.137   8.283
 17.421  17.503  17.520  17.541  17.594  17.655  23.620  23.640
 35.570  50.024  50.033  50.062  66.873  66.882  66.909  66.913
 66.934  66.958 189.384 189.501
 --------------------------------------------------------------
 
          Ground-State Mulliken Net Atomic Charges

     Atom                 Charge (a.u.)    Spin (a.u.)
  --------------------------------------------------------
      1 S                     0.359070       0.594419
      2 C                     0.175553       0.863210
      3 N                    -0.428501       0.109464
      4 O                    -0.442090       0.330663
      5 F                    -0.072033       0.038357
      6 F                    -0.059800       0.037919
      7 F                    -0.073393       0.037364
      8 S                     0.299211      -0.032250
      9 C                    -0.057471       0.008192
     10 O                    -0.244552      -0.000741
     11 O                    -0.270255       0.014064
     12 F                    -0.057175      -0.000569
     13 F                    -0.076807      -0.000170
     14 F                    -0.051757       0.000078
  --------------------------------------------------------
  Sum of atomic charges =    -1.000000
  Sum of spin   charges =     2.000000

 -----------------------------------------------------------------
                    Cartesian Multipole Moments
 -----------------------------------------------------------------
    Charge (ESU x 10^10)
                -4.8032
    Dipole Moment (Debye)
         X       4.2685      Y       1.6073      Z       5.6374
       Tot       7.2515
    Quadrupole Moments (Debye-Ang)
        XX    -101.2915     XY      -5.8811     YY    -100.1699
        XZ      -7.1676     YZ       0.3113     ZZ    -121.5674
    Octopole Moments (Debye-Ang^2)
       XXX     180.4653    XXY     -28.4680    XYY      66.8340
       YYY     -99.5904    XXZ      77.2319    XYZ       6.4563
       YYZ      71.1514    XZZ      80.4844    YZZ     -29.7059
       ZZZ     257.9683
    Hexadecapole Moments (Debye-Ang^3)
      XXXX   -1424.5513   XXXY     -36.8983   XXYY    -459.9102
      XYYY     -39.3659   YYYY   -1292.9117   XXXZ    -472.4206
      XXYZ     -38.9596   XYYZ    -160.2688   YYYZ     -79.7484
      XXZZ    -510.3657   XYZZ     -22.5903   YYZZ    -477.6967
      XZZZ    -500.1556   YZZZ     -62.1908   ZZZZ   -1709.7827
 -----------------------------------------------------------------
 Calculating analytic gradient of the SCF energy
 Gradient of SCF Energy
            1           2           3           4           5           6
    1  -0.0114198   0.0073472  -0.0174629   0.0074958  -0.0036653   0.0121012
    2  -0.0034067   0.0197155  -0.0119710  -0.0000503  -0.0146158  -0.0060618
    3   0.0121660   0.0094972  -0.0174283  -0.0131653   0.0123968  -0.0124717
            7           8           9          10          11          12
    1  -0.0142996   0.0128674  -0.0189324  -0.0114924   0.0234245  -0.0074599
    2   0.0023654   0.0110600   0.0074195  -0.0181392   0.0227795  -0.0178856
    3  -0.0087373   0.0020557   0.0030036   0.0247514  -0.0059593   0.0014226
           13          14
    1   0.0148258   0.0066703
    2   0.0010995   0.0076909
    3   0.0115105  -0.0190421
 Max gradient component =       2.475E-02
 RMS gradient           =       1.282E-02
 Computing fast CPCM-SWIG gradient
 Updating gradient with PCM contributions...
 -- total gradient after adding PCM contribution --
---------------------------------------------------
  Atom         X              Y              Z     
---------------------------------------------------
   1      -0.000034      -0.000037       0.000076
   2       0.000014       0.000028       0.000077
   3       0.000018       0.000057      -0.000049
   4       0.000057      -0.000026      -0.000056
   5       0.000033      -0.000010       0.000031
   6      -0.000085      -0.000005      -0.000001
   7       0.000054      -0.000014      -0.000080
   8      -0.000029      -0.000033      -0.000015
   9       0.000006       0.000029      -0.000027
  10      -0.000010       0.000022       0.000005
  11      -0.000020       0.000003      -0.000008
  12      -0.000023      -0.000014       0.000015
  13       0.000007       0.000015       0.000027
  14       0.000012      -0.000015       0.000004
---------------------------------------------------
 Number of fixed atoms: 0
 Gradient time:  CPU 118.51 s  wall 12.76 s
 Geometry Optimization Parameters
   NAtoms,    NIC,     NZ,  NCons,   NDum,   NFix, NCnnct, MaxDiis
       14      83       0       0       0       0       0       0

 Cartesian Hessian Update
 Hessian Updated using BFGS Update


** GEOMETRY OPTIMIZATION IN DELOCALIZED INTERNAL COORDINATES **
   Searching for a Minimum

   Optimization Cycle:  44

                       Coordinates (Angstroms)
     ATOM                X               Y               Z
      1  S         0.5697042310   -1.3060009285    0.1029831212
      2  C         0.9154734522    2.0978122482    0.7444147373
      3  N         0.2161558501   -0.2328303433   -1.1014425833
      4  O        -0.2971642789   -1.1114855188    1.3217194438
      5  F         1.1168716684    3.0016086049   -0.1940249041
      6  F        -0.0371951295    2.4838498608    1.5723764329
      7  F         2.0353405896    1.8494215466    1.4015952370
      8  S        -1.0658366145   -0.3512544528   -2.0201207556
      9  C        -2.2914617275    0.8642010579   -1.2971290831
     10  O        -0.7983697611    0.2173065516   -3.3344458147
     11  O        -1.7759558604   -1.6270371209   -1.9610097788
     12  F        -1.7858926553    2.0969953023   -1.2839068859
     13  F        -3.4031202198    0.8779868807   -2.0368657618
     14  F        -2.6216514528    0.5315934016   -0.0532838777
   Point Group: c1    Number of degrees of freedom:    36


   Energy is  -1752.017197606

 Hessian Updated using BFGS Update

 36 Hessian modes will be used to form the next step
  Hessian Eigenvalues:
     0.000875    0.003131    0.004094    0.005664    0.008840    0.010478
     0.028283    0.067601    0.086427    0.087199    0.106661    0.123192
     0.136487    0.174384    0.195525    0.201918    0.213456    0.218531
     0.243084    0.246290    0.251985    0.277930    0.299474    0.339822
     0.439488    0.457118    0.548833    0.582754    0.593393    0.596792
     0.605869    0.614074    0.625696    0.803359    0.946826    0.975150

 Minimum Search - Taking Simple RFO Step
 Searching for Lamda that Minimizes Along All modes
 Value Taken    Lamda =   0.00000000
 Step Taken.  Stepsize is  0.005535

                             Maximum     Tolerance    Cnvgd?
         Gradient           0.000096      0.000300     YES
         Displacement       0.002358      0.001200      NO
         Energy change     -0.000001      0.000001     YES


                       Distance Matrix (Angstroms)
             S (  1)   C (  2)   N (  3)   O (  4)   F (  5)   F (  6)
   C (  2)  3.480939
   N (  3)  1.651464  3.054199
   O (  4)  1.508183  3.478989  2.628164
   F (  5)  4.352368  1.318362  3.477972  4.605922
   F (  6)  4.109795  1.319895  3.820189  3.613426  2.172583
   F (  7)  3.713647  1.322001  3.729665  3.770137  2.171894  2.174183
   S (  8)  2.845014  4.191202  1.581613  3.512364  4.397787  4.690624
   C (  9)  3.854395  3.996765  2.744069  3.839131  4.171581  3.992373
   O ( 10)  4.001001  4.807355  2.493630  4.867933  4.613321  5.458343
   O ( 11)  3.140900  5.332693  2.578988  3.637159  5.737164  5.692758
   F ( 12)  4.364938  3.378086  3.077268  4.393171  3.229893  3.371343
   F ( 13)  5.013192  5.279559  3.899755  4.988492  5.323172  5.189882
   F ( 14)  3.685909  3.949762  3.120277  3.161263  4.483005  3.624016
             F (  7)   S (  8)   C (  9)   O ( 10)   O ( 11)   F ( 12)
   S (  8)  5.115507
   C (  9)  5.193745  1.871418
   O ( 10)  5.755328  1.456795  2.607385
   O ( 11)  6.157829  1.461296  2.629211  2.498721
   F ( 12)  4.677076  2.656016  1.332500  2.951803  3.785100
   F ( 13)  6.507193  2.640873  1.335360  2.984114  2.988070  2.160637
   F ( 14)  5.053802  2.658651  1.329212  3.766850  3.002383  2.159493
             F ( 13)
   F ( 14)  2.159926
 
 Final energy is   -1752.01719760634     


 ******************************
 **  OPTIMIZATION CONVERGED  **
 ******************************

                       Coordinates (Angstroms)
     ATOM                X               Y               Z
      1  S         0.5697042310   -1.3060009285    0.1029831212
      2  C         0.9154734522    2.0978122482    0.7444147373
      3  N         0.2161558501   -0.2328303433   -1.1014425833
      4  O        -0.2971642789   -1.1114855188    1.3217194438
      5  F         1.1168716684    3.0016086049   -0.1940249041
      6  F        -0.0371951295    2.4838498608    1.5723764329
      7  F         2.0353405896    1.8494215466    1.4015952370
      8  S        -1.0658366145   -0.3512544528   -2.0201207556
      9  C        -2.2914617275    0.8642010579   -1.2971290831
     10  O        -0.7983697611    0.2173065516   -3.3344458147
     11  O        -1.7759558604   -1.6270371209   -1.9610097788
     12  F        -1.7858926553    2.0969953023   -1.2839068859
     13  F        -3.4031202198    0.8779868807   -2.0368657618
     14  F        -2.6216514528    0.5315934016   -0.0532838777

Z-matrix Print:
$molecule
-1 3
S 
O  1 1.456795
O  1 1.461296 2 117.804177
N  1 1.581613 2 110.243026 3 136.017128 0
S  4 1.651464 1 123.263323 2 -150.457466 0
O  5 1.508183 4 112.487450 1 -75.254132 0
C  1 1.871418 2 102.433843 3 -112.716671 0
F  7 1.329212 1 111.204042 2 -177.629611 0
F  7 1.332500 1 110.869085 2 -56.886460 0
F  7 1.335360 1 109.748779 2 62.547214 0
C  4 3.054199 1 126.425468 2 89.996417 0
F  11 1.318362 4 97.348941 1 -66.809076 0
F  11 1.319895 4 115.915044 1 50.710835 0
F  11 1.322001 4 110.549672 1 177.803724 0
$end

 
 --------------------------------------------------------------
 
                    Orbital Energies (a.u.)
 --------------------------------------------------------------
 
 Alpha MOs
 -- Occupied --
-89.220 -89.096 -24.855 -24.855 -24.855 -24.846 -24.846 -24.846
-19.237 -19.231 -19.229 -14.417 -10.543 -10.531  -8.240  -8.132
 -6.189  -6.188  -6.188  -6.082  -6.079  -6.076  -1.441  -1.436
 -1.353  -1.353  -1.344  -1.343  -1.218  -1.134  -1.101  -0.993
 -0.839  -0.808  -0.786  -0.720  -0.703  -0.702  -0.696  -0.695
 -0.667  -0.623  -0.579  -0.576  -0.576  -0.572  -0.565  -0.549
 -0.545  -0.541  -0.541  -0.530  -0.529  -0.515  -0.508  -0.503
 -0.494  -0.454  -0.420  -0.401  -0.389  -0.377  -0.360  -0.343
 -0.333  -0.273
 -- Virtual --
  0.083   0.092   0.095   0.098   0.111   0.120   0.127   0.129
  0.131   0.137   0.148   0.155   0.160   0.162   0.168   0.180
  0.184   0.193   0.204   0.211   0.224   0.228   0.254   0.255
  0.265   0.270   0.280   0.295   0.301   0.303   0.305   0.314
  0.317   0.325   0.328   0.331   0.340   0.350   0.356   0.359
  0.372   0.376   0.379   0.388   0.392   0.396   0.401   0.405
  0.410   0.419   0.424   0.429   0.434   0.438   0.444   0.446
  0.455   0.464   0.473   0.476   0.484   0.486   0.493   0.498
  0.517   0.524   0.536   0.553   0.563   0.579   0.592   0.611
  0.618   0.653   0.663   0.680   0.759   0.764   0.788   0.800
  0.820   0.830   0.860   0.876   0.908   0.915   0.927   0.994
  1.040   1.070   1.088   1.105   1.127   1.139   1.158   1.180
  1.191   1.215   1.215   1.228   1.236   1.240   1.255   1.266
  1.277   1.281   1.300   1.310   1.325   1.348   1.397   1.420
  1.435   1.446   1.486   1.488   1.499   1.509   1.516   1.521
  1.530   1.542   1.556   1.569   1.577   1.592   1.602   1.612
  1.626   1.658   1.704   1.750   1.756   1.786   1.814   1.836
  1.901   1.906   1.930   1.939   1.955   1.965   1.990   2.001
  2.045   2.056   2.072   2.126   2.189   2.227   2.275   2.294
  2.314   2.636   2.737   2.846   2.867   2.917   2.920   2.927
  2.936   2.952   2.964   3.013   3.022   3.037   3.041   3.054
  3.055   3.071   3.136   3.209   3.255   3.542   3.579   3.706
  3.788   3.797   3.823   3.824   3.824   3.833   3.838   3.841
  3.845   3.846   3.848   3.864   3.867   3.894   3.950   3.961
  3.962   3.967   4.076   4.113   4.182   4.217   4.278   4.286
  4.291   4.307   4.311   4.433   4.474   4.997   5.007   5.025
  5.029   5.100   5.152   5.166   5.177   5.200   5.215   5.231
  5.275   5.436   6.379   6.393   6.400   6.415   6.428   6.441
  6.445   6.450   6.462   6.497   6.501   6.503   6.530   6.549
  6.873   6.877   6.888   6.895   8.134   8.283  17.409  17.501
 17.520  17.539  17.593  17.655  23.614  23.620  35.568  50.023
 50.025  50.062  66.871  66.880  66.908  66.912  66.932  66.958
189.382 189.501
 
 Beta MOs
 -- Occupied --
-89.220 -89.093 -24.852 -24.852 -24.852 -24.846 -24.846 -24.846
-19.231 -19.229 -19.227 -14.415 -10.543 -10.516  -8.240  -8.129
 -6.188  -6.188  -6.187  -6.079  -6.074  -6.067  -1.436  -1.431
 -1.345  -1.345  -1.344  -1.343  -1.216  -1.113  -1.100  -0.986
 -0.837  -0.790  -0.774  -0.714  -0.697  -0.695  -0.692  -0.692
 -0.630  -0.616  -0.574  -0.572  -0.566  -0.566  -0.560  -0.546
 -0.544  -0.534  -0.532  -0.529  -0.528  -0.512  -0.508  -0.483
 -0.470  -0.436  -0.409  -0.396  -0.386  -0.361  -0.341  -0.335
 -- Virtual --
 -0.018  -0.005   0.086   0.094   0.096   0.103   0.115   0.122
  0.129   0.133   0.134   0.140   0.151   0.157   0.162   0.163
  0.171   0.182   0.186   0.197   0.206   0.215   0.226   0.233
  0.260   0.268   0.271   0.283   0.289   0.302   0.305   0.305
  0.308   0.317   0.320   0.328   0.331   0.335   0.343   0.352
  0.359   0.362   0.374   0.378   0.381   0.390   0.393   0.399
  0.404   0.406   0.412   0.420   0.426   0.431   0.437   0.439
  0.447   0.447   0.456   0.465   0.475   0.478   0.486   0.490
  0.496   0.499   0.519   0.525   0.539   0.553   0.565   0.580
  0.594   0.612   0.621   0.655   0.666   0.682   0.766   0.777
  0.795   0.817   0.828   0.842   0.871   0.889   0.913   0.917
  0.938   0.998   1.046   1.075   1.094   1.108   1.132   1.148
  1.160   1.184   1.201   1.225   1.225   1.234   1.247   1.248
  1.264   1.272   1.281   1.284   1.304   1.314   1.327   1.352
  1.401   1.426   1.439   1.452   1.487   1.489   1.502   1.515
  1.522   1.524   1.533   1.547   1.557   1.570   1.589   1.597
  1.609   1.617   1.658   1.675   1.709   1.756   1.762   1.808
  1.816   1.841   1.907   1.921   1.932   1.944   1.974   1.981
  1.993   2.005   2.047   2.058   2.074   2.128   2.195   2.232
  2.276   2.298   2.319   2.641   2.740   2.867   2.903   2.918
  2.931   2.948   2.954   2.961   2.971   3.021   3.042   3.047
  3.054   3.059   3.067   3.079   3.137   3.209   3.255   3.555
  3.582   3.707   3.791   3.797   3.828   3.829   3.829   3.834
  3.838   3.841   3.852   3.852   3.854   3.865   3.868   3.894
  3.950   3.967   3.973   3.973   4.078   4.121   4.192   4.217
  4.279   4.286   4.292   4.315   4.318   4.444   4.474   5.005
  5.014   5.025   5.030   5.130   5.153   5.178   5.183   5.205
  5.217   5.240   5.276   5.437   6.385   6.398   6.401   6.416
  6.436   6.445   6.448   6.454   6.466   6.497   6.503   6.504
  6.531   6.549   6.875   6.877   6.895   6.899   8.137   8.283
 17.421  17.503  17.520  17.541  17.594  17.655  23.620  23.640
 35.570  50.024  50.033  50.062  66.873  66.882  66.909  66.913
 66.934  66.958 189.384 189.501
 --------------------------------------------------------------
 
          Ground-State Mulliken Net Atomic Charges

     Atom                 Charge (a.u.)    Spin (a.u.)
  --------------------------------------------------------
      1 S                     0.359070       0.594419
      2 C                     0.175553       0.863210
      3 N                    -0.428501       0.109464
      4 O                    -0.442090       0.330663
      5 F                    -0.072033       0.038357
      6 F                    -0.059800       0.037919
      7 F                    -0.073393       0.037364
      8 S                     0.299211      -0.032250
      9 C                    -0.057471       0.008192
     10 O                    -0.244552      -0.000741
     11 O                    -0.270255       0.014064
     12 F                    -0.057175      -0.000569
     13 F                    -0.076807      -0.000170
     14 F                    -0.051757       0.000078
  --------------------------------------------------------
  Sum of atomic charges =    -1.000000
  Sum of spin   charges =     2.000000

 -----------------------------------------------------------------
                    Cartesian Multipole Moments
 -----------------------------------------------------------------
    Charge (ESU x 10^10)
                -4.8032
    Dipole Moment (Debye)
         X       4.2685      Y       1.6073      Z       5.6374
       Tot       7.2515
    Quadrupole Moments (Debye-Ang)
        XX    -101.2915     XY      -5.8811     YY    -100.1699
        XZ      -7.1676     YZ       0.3113     ZZ    -121.5674
    Octopole Moments (Debye-Ang^2)
       XXX     180.4653    XXY     -28.4680    XYY      66.8340
       YYY     -99.5904    XXZ      77.2319    XYZ       6.4563
       YYZ      71.1514    XZZ      80.4844    YZZ     -29.7059
       ZZZ     257.9683
    Hexadecapole Moments (Debye-Ang^3)
      XXXX   -1424.5513   XXXY     -36.8983   XXYY    -459.9102
      XYYY     -39.3659   YYYY   -1292.9117   XXXZ    -472.4206
      XXYZ     -38.9596   XYYZ    -160.2688   YYYZ     -79.7484
      XXZZ    -510.3657   XYZZ     -22.5903   YYZZ    -477.6967
      XZZZ    -500.1556   YZZZ     -62.1908   ZZZZ   -1709.7827
 -----------------------------------------------------------------
Archival summary:
1\1\nid02700\OPT\ProcedureUnspecified\BasisUnspecified\26312(1-,3)\sblau\WedNov1401:16:152018WedNov1401:16:152018\0\\#,OPT,ProcedureUnspecified,BasisUnspecified,\\-1,3\S\O,1,1.45679\O,1,1.4613,2,117.804\N,1,1.58161,2,110.243,3,136.017,0\S,4,1.65146,1,123.263,2,-150.457,0\O,5,1.50818,4,112.487,1,-75.2541,0\C,1,1.87142,2,102.434,3,-112.717,0\F,7,1.32921,1,111.204,2,-177.63,0\F,7,1.3325,1,110.869,2,-56.8865,0\F,7,1.33536,1,109.749,2,62.5472,0\C,4,3.0542,1,126.425,2,89.9964,0\F,11,1.31836,4,97.3489,1,-66.8091,0\F,11,1.3199,4,115.915,1,50.7108,0\F,11,1.322,4,110.55,1,177.804,0\\\@

 Total job time:  4739.88s(wall), 69907.86s(cpu) 
 Wed Nov 14 01:16:15 2018

        *************************************************************
        *                                                           *
        *  Thank you very much for using Q-Chem.  Have a nice day.  *
        *                                                           *
        *************************************************************


