
Running Job 1 of 1 mol.qin
qchem mol.qin_16820.0 /tmp/qchem16820/ 1
/global/common/edison/software/qchem/5.1/exe/qcprog.exe mol.qin_16820.0 /tmp/qchem16820/
Check license passed

                  Welcome to Q-Chem
     A Quantum Leap Into The Future Of Chemistry


 Q-Chem 5.1, Q-Chem, Inc., Pleasanton, CA (2018)

 Yihan Shao,  Zhengting Gan,  E. Epifanovsky,  A. T. B. Gilbert,  M. Wormit,  
 J. Kussmann,  A. W. Lange,  A. Behn,  Jia Deng,  Xintian Feng,  D. Ghosh,  
 M. Goldey,  P. R. Horn,  L. D. Jacobson,  I. Kaliman,  T. Kus,  A. Landau,  
 Jie Liu,  E. I. Proynov,  R. M. Richard,  R. P. Steele,  E. J. Sundstrom,  
 H. L. Woodcock III,  P. M. Zimmerman,  D. Zuev,  B. Albrecht,  E. Alguire,  
 S. A. Baeppler,  D. Barton,  Z. Benda,  Y. A. Bernard,  E. J. Berquist,  
 K. B. Bravaya,  H. Burton,  D. Casanova,  Chun-Min Chang,  Yunqing Chen,  
 A. Chien,  K. D. Closser,  M. P. Coons,  S. Coriani,  S. Dasgupta,  
 A. L. Dempwolff,  M. Diedenhofen,  Hainam Do,  R. G. Edgar,  Po-Tung Fang,  
 S. Faraji,  S. Fatehi,  Qingguo Feng,  K. D. Fenk,  J. Fosso-Tande,  
 Qinghui Ge,  A. Ghysels,  G. Gidofalvi,  J. Gomes,  J. Gonthier,  A. Gunina,  
 D. Hait,  M. W. D. Hanson-Heine,  P. H. P. Harbach,  A. W. Hauser,  
 J. E. Herr,  E. G. Hohenstein,  Z. C. Holden,  Kerwin Hui,  B. C. Huynh,  
 T.-C. Jagau,  Hyunjun Ji,  B. Kaduk,  K. Khistyaev,  Jaehoon Kim,  
 P. Klunzinger,  K. Koh,  D. Kosenkov,  L. Koulias,  T. Kowalczyk,  
 C. M. Krauter,  A. Kunitsa,  Ka Un Lao,  A. Laurent,  K. V. Lawler,  
 Joonho Lee,  D. Lefrancois,  S. Lehtola,  D. S. Levine,  Yi-Pei Li,  
 You-Sheng Lin,  Fenglai Liu,  E. Livshits,  A. Luenser,  P. Manohar,  
 E. Mansoor,  S. F. Manzer,  Shan-Ping Mao,  Yuezhi Mao,  N. Mardirossian,  
 A. V. Marenich,  T. Markovich,  L. A. Martinez-Martinez,  S. A. Maurer,  
 N. J. Mayhall,  S. C. McKenzie,  J.-M. Mewes,  A. F. Morrison,  
 J. W. Mullinax,  K. Nanda,  T. S. Nguyen-Beck,  R. Olivares-Amaya,  
 J. A. Parkhill,  T. M. Perrine,  F. Plasser,  P. Pokhilko,  S. Prager,  
 A. Prociuk,  E. Ramos,  D. R. Rehn,  F. Rob,  M. Schneider,  N. Sergueev,  
 S. M. Sharada,  S. Sharma,  D. W. Small,  T. Stauch,  T. Stein,  
 Yu-Chuan Su,  A. J. W. Thom,  A. Tkatchenko,  T. Tsuchimochi,  N. M. Tubman,  
 L. Vogt,  M. L. Vidal,  O. Vydrov,  M. A. Watson,  J. Wenzel,  
 M. de Wergifosse,  T. A. Wesolowski,  A. White,  J. Witte,  A. Yamada,  
 Jun Yang,  K. Yao,  S. Yeganeh,  S. R. Yost,  Zhi-Qiang You,  A. Zech,  
 Igor Ying Zhang,  Xing Zhang,  Yan Zhao,  Ying Zhu,  B. R. Brooks,  
 G. K. L. Chan,  C. J. Cramer,  M. S. Gordon,  W. J. Hehre,  A. Klamt,  
 M. W. Schmidt,  C. D. Sherrill,  D. G. Truhlar,  A. Aspuru-Guzik,  R. Baer,  
 A. T. Bell,  N. A. Besley,  Jeng-Da Chai,  R. A. DiStasio Jr.,  A. Dreuw,  
 B. D. Dunietz,  T. R. Furlani,  Chao-Ping Hsu,  Yousung Jung,  Jing Kong,  
 D. S. Lambrecht,  WanZhen Liang,  C. Ochsenfeld,  V. A. Rassolov,  
 L. V. Slipchenko,  J. E. Subotnik,  T. Van Voorhis,  J. M. Herbert,  
 A. I. Krylov,  P. M. W. Gill,  M. Head-Gordon

 Contributors to earlier versions of Q-Chem not listed above: 
 R. D. Adamson,  B. Austin,  J. Baker,  G. J. O. Beran,  K. Brandhorst,  
 S. T. Brown,  E. F. C. Byrd,  A. K. Chakraborty,  C.-L. Cheng,  
 Siu Hung Chien,  D. M. Chipman,  D. L. Crittenden,  H. Dachsel,  
 R. J. Doerksen,  A. D. Dutoi,  L. Fusti-Molnar,  W. A. Goddard III,  
 A. Golubeva-Zadorozhnaya,  S. R. Gwaltney,  G. Hawkins,  A. Heyden,  
 S. Hirata,  G. Kedziora,  F. J. Keil,  C. Kelley,  Jihan Kim,  R. A. King,  
 R. Z. Khaliullin,  P. P. Korambath,  W. Kurlancheek,  A. M. Lee,  M. S. Lee,  
 S. V. Levchenko,  Ching Yeh Lin,  D. Liotard,  R. C. Lochan,  I. Lotan,  
 P. E. Maslen,  N. Nair,  D. P. O'Neill,  D. Neuhauser,  E. Neuscamman,  
 C. M. Oana,  R. Olson,  B. Peters,  R. Peverati,  P. A. Pieniazek,  
 Y. M. Rhee,  J. Ritchie,  M. A. Rohrdanz,  E. Rosta,  N. J. Russ,  
 H. F. Schaefer III,  N. E. Schultz,  N. Shenvi,  A. C. Simmonett,  A. Sodt,  
 D. Stuck,  K. S. Thanthiriwatte,  V. Vanovschi,  Tao Wang,  A. Warshel,  
 C. F. Williams,  Q. Wu,  X. Xu,  W. Zhang

 Please cite Q-Chem as follows:
 Y. Shao et al., Mol. Phys. 113, 184-215 (2015)
 DOI: 10.1080/00268976.2014.952696

 Q-Chem 5.1.0 for Intel X86 EM64T Linux

 Parts of Q-Chem use Armadillo 8.300.2 (Tropical Shenanigans).
 http://arma.sourceforge.net/

 Q-Chem begins on Wed Nov 14 01:16:17 2018  

Host: edison03
0

     Scratch files written to /tmp/qchem16820//
 Jun2518 |scratch|qcdevops|jenkins|workspace|build_RNUM -1
Processing $rem in /global/common/edison/software/qchem/5.1/config/preferences.
 MEM_TOTAL  48000 
Symmetry turned off for PCM/SM12/SMD calculation

Checking the input file for inconsistencies... 	...done.

--------------------------------------------------------------
User input:
--------------------------------------------------------------
$molecule
-1 3
S      0.5697042310     -1.3060009285      0.1029831212
C      0.9154734522      2.0978122482      0.7444147373
N      0.2161558501     -0.2328303433     -1.1014425833
O     -0.2971642789     -1.1114855188      1.3217194438
F      1.1168716684      3.0016086049     -0.1940249041
F     -0.0371951295      2.4838498608      1.5723764329
F      2.0353405896      1.8494215466      1.4015952370
S     -1.0658366145     -0.3512544528     -2.0201207556
C     -2.2914617275      0.8642010579     -1.2971290831
O     -0.7983697611      0.2173065516     -3.3344458147
O     -1.7759558604     -1.6270371209     -1.9610097788
F     -1.7858926553      2.0969953023     -1.2839068859
F     -3.4031202198      0.8779868807     -2.0368657618
F     -2.6216514528      0.5315934016     -0.0532838777
$end

$rem
job_type = freq
basis = 6-311++g*
max_scf_cycles = 200
gen_scfman = true
scf_algorithm = gdm
method = wb97xd
geom_opt_max_cycles = 200
solvent_method = pcm
$end

$pcm
heavypoints 194
hpoints 194
radii uff
theory cpcm
vdwscale 1.1
$end

$solvent
dielectric 7.0
$end
--------------------------------------------------------------
 ----------------------------------------------------------------
             Standard Nuclear Orientation (Angstroms)
    I     Atom           X                Y                Z
 ----------------------------------------------------------------
    1      S       0.5697042310    -1.3060009285     0.1029831212
    2      C       0.9154734522     2.0978122482     0.7444147373
    3      N       0.2161558501    -0.2328303433    -1.1014425833
    4      O      -0.2971642789    -1.1114855188     1.3217194438
    5      F       1.1168716684     3.0016086049    -0.1940249041
    6      F      -0.0371951295     2.4838498608     1.5723764329
    7      F       2.0353405896     1.8494215466     1.4015952370
    8      S      -1.0658366145    -0.3512544528    -2.0201207556
    9      C      -2.2914617275     0.8642010579    -1.2971290831
   10      O      -0.7983697611     0.2173065516    -3.3344458147
   11      O      -1.7759558604    -1.6270371209    -1.9610097788
   12      F      -1.7858926553     2.0969953023    -1.2839068859
   13      F      -3.4031202198     0.8779868807    -2.0368657618
   14      F      -2.6216514528     0.5315934016    -0.0532838777
 ----------------------------------------------------------------
 Nuclear Repulsion Energy =  1359.9162939784 hartrees
 There are       66 alpha and       64 beta electrons
 Requested basis set is 6-311++G(d)
 There are 98 shells and 324 basis functions

 Total QAlloc Memory Limit  48000 MB
 Mega-Array Size       188 MB
 MEM_STATIC part       192 MB
 Discretize the solute cavity surface with Lebedev spheres
	Using 194 Lebedev grid points for each H atom
	Using 194 Lebedev grid points for other atoms
	Atomic van der Waals radii will be scaled by 1.10
 Remove points where switching function is < 1.0e-08
 Keep 1347 surface tesserae and discard 1369 interior tesserae
 Molecular Surface Area = 237.493 Angst**2

                       Distance Matrix (Angstroms)
             S (  1)   C (  2)   N (  3)   O (  4)   F (  5)   F (  6)
   C (  2)  3.480939
   N (  3)  1.651464  3.054199
   O (  4)  1.508183  3.478989  2.628164
   F (  5)  4.352368  1.318362  3.477972  4.605922
   F (  6)  4.109795  1.319895  3.820189  3.613426  2.172583
   F (  7)  3.713647  1.322001  3.729665  3.770137  2.171894  2.174183
   S (  8)  2.845014  4.191202  1.581613  3.512364  4.397787  4.690624
   C (  9)  3.854395  3.996765  2.744069  3.839131  4.171581  3.992373
   O ( 10)  4.001001  4.807355  2.493630  4.867933  4.613321  5.458343
   O ( 11)  3.140900  5.332693  2.578988  3.637159  5.737164  5.692758
   F ( 12)  4.364938  3.378086  3.077268  4.393171  3.229893  3.371343
   F ( 13)  5.013192  5.279559  3.899755  4.988492  5.323172  5.189882
   F ( 14)  3.685909  3.949762  3.120277  3.161263  4.483005  3.624016
             F (  7)   S (  8)   C (  9)   O ( 10)   O ( 11)   F ( 12)
   S (  8)  5.115507
   C (  9)  5.193745  1.871418
   O ( 10)  5.755328  1.456795  2.607385
   O ( 11)  6.157829  1.461296  2.629211  2.498721
   F ( 12)  4.677076  2.656016  1.332500  2.951803  3.785100
   F ( 13)  6.507193  2.640873  1.335360  2.984114  2.988070  2.160637
   F ( 14)  5.053802  2.658651  1.329212  3.766850  3.002383  2.159493
             F ( 13)
   F ( 14)  2.159926
 
 A cutoff of  1.0D-12 yielded   3669 shell pairs
 There are     42612 function pairs (     46028 Cartesian)
 
 -------------------------------------------------------
 OpenMP Integral Computing Module                       
 Release: version 1.0, May 2013, Q-Chem Inc. Pittsburgh 
 -------------------------------------------------------
 Integral Job Info:
 Integral job number is                      11
 Integral operator is                         1
 short-range coefficients              22203600
 long-range coefficients              100000000
 Omega coefficients                         200
 if combine SR and LR in K                    1
 Integral screening is                        0
 Integral computing path is                   2
 max size of driver memory is            800000
 size of driver memory is                593474
 size of scratch memory is              4293864
 max col of scratch BK array               1296
 max len of scratch array in speh3          155
 max len of scratch index in speh4           18
 max int batch size is                      520
 min int batch size is                       52
 fixed nKL is                                52
 max L of basis functions is                  2
 order of int derivative is                   0
 number of shells is                         98
 number of basis is                         338
 number of cartesian basis is               338
 number of contracted shell pairs          3669
 number of primitive shell pairs           9750
 maxK2 (contraction) of shell pair           36
 max number of K2 of shell pair               1
 max number of CS2 of shell pair            739
 max number of PS2 of shell pair           2490
 mem total for path MDJ                  604156
 -------------------------------------------------------
 Smallest overlap matrix eigenvalue = 5.68E-05
 Guess from superposition of atomic densities
 Warning:  Energy on first SCF cycle will be non-variational
 SAD guess density has 129.000000 electrons

 -----------------------------------------------------------------------
  General SCF calculation program by
  Eric Jon Sundstrom, Paul Horn, Yuezhi Mao, Dmitri Zuev, Alec White,
  David Stuck, Shaama M.S., Shane Yost, Joonho Lee, David Small,
  Daniel Levine, Susi Lehtola, Hugh Burton, Evgeny Epifanovsky
 -----------------------------------------------------------------------
 Exchange:     0.2220 Hartree-Fock + 1.0000 wB97X-D + LR-HF
 Correlation:  1.0000 wB97X-D
 Using SG-2 standard quadrature grid
 Dispersion:   Grimme D
 using 24 threads for integral computing
 -------------------------------------------------------
 OpenMP Integral computing Module                
 Release: version 1.0, May 2013, Q-Chem Inc. Pittsburgh 
 -------------------------------------------------------
 using 24 threads for integral computing
 -------------------------------------------------------
 OpenMP Integral computing Module                
 Release: version 1.0, May 2013, Q-Chem Inc. Pittsburgh 
 -------------------------------------------------------
 -------------------------------------------------------
 OpenMP BLAS3 based DFT computing Module                
 Release: version 1.0, May 2013, Q-Chem Inc. Pittsburgh 
 -------------------------------------------------------
 A unrestricted SCF calculation will be
 performed using Roothaan-Hall, GDM
 SCF converges when RMS gradient is below 1.0e-08
 ---------------------------------------
  Cycle       Energy         DIIS error
 ---------------------------------------
    1   -1754.6463015832      1.78e-02  Roothaan Step
 ---------------------------------------
  Cycle       Energy        RMS Gradient
 ---------------------------------------
    1   -1751.4738913628      2.37e-01   Descent step
    2   -1751.8642727647      6.21e-02   Descent step
    3   -1752.0008877446      2.10e-02   Normal BFGS step
    4   -1752.0144441699      1.75e-02   Normal BFGS step
    5   -1752.0158060121      9.15e-03   Normal BFGS step
    6   -1752.0170456205      3.62e-03   Normal BFGS step
    7   -1752.0171446405      2.16e-03   Normal BFGS step
    8   -1752.0171824717      1.30e-03   Normal BFGS step
    9   -1752.0171938605      5.49e-04   Normal BFGS step
   10   -1752.0171968880      2.28e-04   Normal BFGS step
   11   -1752.0171973456      1.13e-04   Normal BFGS step
   12   -1752.0171975803      4.51e-05   Normal BFGS step
   13   -1752.0171975997      2.63e-05   Normal BFGS step
   14   -1752.0171976045      1.50e-05   Normal BFGS step
   15   -1752.0171976060      7.71e-06   Normal BFGS step
   16   -1752.0171976066      5.65e-06   Normal BFGS step
   17   -1752.0171976068      2.44e-06   Normal BFGS step
   18   -1752.0171976068      5.79e-07   Normal BFGS step
   19   -1752.0171976068      3.17e-07   Normal BFGS step
   20   -1752.0171976068      9.62e-08   Normal BFGS step
   21   -1752.0171976068      8.21e-08   Normal BFGS step
   22   -1752.0171976068      2.97e-08   Normal BFGS step
   23   -1752.0171976068      1.83e-08   Normal BFGS step
   24   -1752.0171976068      9.00e-09  Convergence criterion met
 ---------------------------------------
 SCF time:   CPU 1635.03s  wall 106.00s 
<S^2> =          2.006806905

************** Final PCM Free Energy Summary **************
 G_electrostatic  =      -0.06674196 hartree =     -41.88121511 kcal/mol
 G_cavitation     =       0.00000000 hartree =       0.00000000 kcal/mol
 G_dispersion     =       0.00000000 hartree =       0.00000000 kcal/mol
 G_repulsion      =       0.00000000 hartree =       0.00000000 kcal/mol
 --------------------------------------------------
 Non-electrostatic Free Energy =       0.00000000 hartree =       0.00000000 kcal/mol
 Total                         =      -0.06674196 hartree =     -41.88121511 kcal/mol
 --------------------------------------------------
 SCF Energy (H0 + V/2)                       =   -1752.01719761 
 Solute Internal Energy (H0)                 =   -1751.95045564 
 Total Free Energy (H0 + V/2 + non-elec)     =   -1752.01719761 hartree
                                             = -1099407.38485315 kcal/mol
***********************************************************

 SCF   energy in the final basis set =    -1752.0171976068
 Total energy in the final basis set =    -1752.0171976068
 
 --------------------------------------------------------------
 
                    Orbital Energies (a.u.)
 --------------------------------------------------------------
 
 Alpha MOs
 -- Occupied --
-89.220 -89.096 -24.855 -24.855 -24.855 -24.846 -24.846 -24.846
-19.237 -19.231 -19.229 -14.417 -10.543 -10.531  -8.240  -8.132
 -6.189  -6.188  -6.188  -6.082  -6.079  -6.076  -1.441  -1.436
 -1.353  -1.353  -1.344  -1.343  -1.218  -1.134  -1.101  -0.993
 -0.839  -0.808  -0.786  -0.720  -0.703  -0.702  -0.696  -0.695
 -0.667  -0.623  -0.579  -0.576  -0.576  -0.572  -0.565  -0.549
 -0.545  -0.541  -0.541  -0.530  -0.529  -0.515  -0.508  -0.503
 -0.494  -0.454  -0.420  -0.401  -0.389  -0.377  -0.360  -0.343
 -0.333  -0.273
 -- Virtual --
  0.083   0.092   0.095   0.098   0.111   0.120   0.127   0.129
  0.131   0.137   0.148   0.155   0.160   0.162   0.168   0.180
  0.184   0.193   0.204   0.211   0.224   0.228   0.254   0.255
  0.265   0.270   0.280   0.295   0.301   0.303   0.305   0.314
  0.317   0.325   0.328   0.331   0.340   0.350   0.356   0.359
  0.372   0.376   0.379   0.388   0.392   0.396   0.401   0.405
  0.410   0.419   0.424   0.429   0.434   0.438   0.444   0.446
  0.455   0.464   0.473   0.476   0.484   0.486   0.493   0.498
  0.517   0.524   0.536   0.553   0.563   0.579   0.592   0.611
  0.618   0.653   0.663   0.680   0.759   0.764   0.788   0.800
  0.820   0.830   0.860   0.876   0.908   0.915   0.927   0.994
  1.040   1.070   1.088   1.105   1.127   1.139   1.158   1.180
  1.191   1.215   1.215   1.228   1.236   1.240   1.255   1.266
  1.277   1.281   1.300   1.310   1.325   1.348   1.397   1.420
  1.435   1.446   1.486   1.488   1.499   1.509   1.516   1.521
  1.530   1.542   1.556   1.569   1.577   1.592   1.602   1.612
  1.626   1.658   1.704   1.750   1.756   1.786   1.814   1.836
  1.901   1.906   1.930   1.939   1.955   1.965   1.990   2.001
  2.045   2.056   2.072   2.126   2.189   2.227   2.275   2.294
  2.314   2.636   2.737   2.846   2.867   2.917   2.920   2.927
  2.936   2.952   2.964   3.013   3.022   3.037   3.041   3.054
  3.055   3.071   3.136   3.209   3.255   3.542   3.579   3.706
  3.788   3.797   3.823   3.824   3.824   3.833   3.838   3.841
  3.845   3.846   3.848   3.864   3.867   3.894   3.950   3.961
  3.962   3.967   4.076   4.113   4.182   4.217   4.278   4.286
  4.291   4.307   4.311   4.433   4.474   4.997   5.007   5.025
  5.029   5.100   5.152   5.166   5.177   5.200   5.215   5.231
  5.275   5.436   6.379   6.393   6.400   6.415   6.428   6.441
  6.445   6.450   6.462   6.497   6.501   6.503   6.530   6.549
  6.873   6.877   6.888   6.895   8.134   8.283  17.409  17.501
 17.520  17.539  17.593  17.655  23.614  23.620  35.568  50.023
 50.025  50.062  66.871  66.880  66.908  66.912  66.932  66.958
189.382 189.501
 
 Beta MOs
 -- Occupied --
-89.220 -89.093 -24.852 -24.852 -24.852 -24.846 -24.846 -24.846
-19.231 -19.229 -19.227 -14.415 -10.543 -10.516  -8.240  -8.129
 -6.188  -6.188  -6.187  -6.079  -6.074  -6.067  -1.436  -1.431
 -1.345  -1.345  -1.344  -1.343  -1.216  -1.113  -1.100  -0.986
 -0.837  -0.790  -0.774  -0.714  -0.697  -0.695  -0.692  -0.692
 -0.630  -0.616  -0.574  -0.572  -0.566  -0.566  -0.560  -0.546
 -0.544  -0.534  -0.532  -0.529  -0.528  -0.512  -0.508  -0.483
 -0.470  -0.436  -0.409  -0.396  -0.386  -0.361  -0.341  -0.335
 -- Virtual --
 -0.018  -0.005   0.086   0.094   0.096   0.103   0.115   0.122
  0.129   0.133   0.134   0.140   0.151   0.157   0.162   0.163
  0.171   0.182   0.186   0.197   0.206   0.215   0.226   0.233
  0.260   0.268   0.271   0.283   0.289   0.302   0.305   0.305
  0.308   0.317   0.320   0.328   0.331   0.335   0.343   0.352
  0.359   0.362   0.374   0.378   0.381   0.390   0.393   0.399
  0.404   0.406   0.412   0.420   0.426   0.431   0.437   0.439
  0.447   0.447   0.456   0.465   0.475   0.478   0.486   0.490
  0.496   0.499   0.519   0.525   0.539   0.553   0.565   0.580
  0.594   0.612   0.621   0.655   0.666   0.682   0.766   0.777
  0.795   0.817   0.828   0.842   0.871   0.889   0.913   0.917
  0.938   0.998   1.046   1.075   1.094   1.108   1.132   1.148
  1.160   1.184   1.201   1.225   1.225   1.234   1.247   1.248
  1.264   1.272   1.281   1.284   1.304   1.314   1.327   1.352
  1.401   1.426   1.439   1.452   1.487   1.489   1.502   1.515
  1.522   1.524   1.533   1.547   1.557   1.570   1.589   1.597
  1.609   1.617   1.658   1.675   1.709   1.756   1.762   1.808
  1.816   1.841   1.907   1.921   1.932   1.944   1.974   1.981
  1.993   2.005   2.047   2.058   2.074   2.128   2.195   2.232
  2.276   2.298   2.319   2.641   2.740   2.867   2.903   2.918
  2.931   2.948   2.954   2.961   2.971   3.021   3.042   3.047
  3.054   3.059   3.067   3.079   3.137   3.209   3.255   3.555
  3.582   3.707   3.791   3.797   3.828   3.829   3.829   3.834
  3.838   3.841   3.852   3.852   3.854   3.865   3.868   3.894
  3.950   3.967   3.973   3.973   4.078   4.121   4.192   4.217
  4.279   4.286   4.292   4.315   4.318   4.444   4.474   5.005
  5.014   5.025   5.030   5.130   5.153   5.178   5.183   5.205
  5.217   5.240   5.276   5.437   6.385   6.398   6.401   6.416
  6.436   6.445   6.448   6.454   6.466   6.497   6.503   6.504
  6.531   6.549   6.875   6.877   6.895   6.899   8.137   8.283
 17.421  17.503  17.520  17.541  17.594  17.655  23.620  23.640
 35.570  50.024  50.033  50.062  66.873  66.882  66.909  66.913
 66.934  66.958 189.384 189.501
 --------------------------------------------------------------
 
          Ground-State Mulliken Net Atomic Charges

     Atom                 Charge (a.u.)    Spin (a.u.)
  --------------------------------------------------------
      1 S                     0.359070       0.594419
      2 C                     0.175553       0.863210
      3 N                    -0.428501       0.109464
      4 O                    -0.442090       0.330663
      5 F                    -0.072033       0.038357
      6 F                    -0.059800       0.037919
      7 F                    -0.073393       0.037364
      8 S                     0.299211      -0.032250
      9 C                    -0.057471       0.008192
     10 O                    -0.244552      -0.000741
     11 O                    -0.270255       0.014064
     12 F                    -0.057175      -0.000569
     13 F                    -0.076807      -0.000170
     14 F                    -0.051757       0.000078
  --------------------------------------------------------
  Sum of atomic charges =    -1.000000
  Sum of spin   charges =     2.000000

 -----------------------------------------------------------------
                    Cartesian Multipole Moments
 -----------------------------------------------------------------
    Charge (ESU x 10^10)
                -4.8032
    Dipole Moment (Debye)
         X       4.2685      Y       1.6073      Z       5.6374
       Tot       7.2515
    Quadrupole Moments (Debye-Ang)
        XX    -101.2915     XY      -5.8811     YY    -100.1699
        XZ      -7.1676     YZ       0.3113     ZZ    -121.5674
    Octopole Moments (Debye-Ang^2)
       XXX     180.4653    XXY     -28.4680    XYY      66.8340
       YYY     -99.5904    XXZ      77.2319    XYZ       6.4563
       YYZ      71.1514    XZZ      80.4844    YZZ     -29.7059
       ZZZ     257.9683
    Hexadecapole Moments (Debye-Ang^3)
      XXXX   -1424.5513   XXXY     -36.8983   XXYY    -459.9102
      XYYY     -39.3659   YYYY   -1292.9117   XXXZ    -472.4206
      XXYZ     -38.9596   XYYZ    -160.2688   YYYZ     -79.7484
      XXZZ    -510.3657   XYZZ     -22.5903   YYZZ    -477.6967
      XZZZ    -500.1556   YZZZ     -62.1908   ZZZZ   -1709.7827
 -----------------------------------------------------------------
 Calculating MO derivatives via CPSCF
 Computing fast CPCM-SWIG hessian.
 D1JvT checksum  = 1988784 87099.1506547325
 D1KAT checksum  = 4983552 5000.1725938714
 D1JvT checksum  = 1988784 60723.3985022693
 D1KAT checksum  = 4983552 2265.3730713665
   1         3          42      0.141889    0.023439
   2         3          42      0.039406    0.007119
   3         3          42      0.008976    0.002615
   4         3          42      0.002410    0.000912
   5         4          41      0.000489    0.000175
   6        31          14      0.000083    0.000035
   7        42           3      0.000012    0.000008
   8        44           1      0.000001    0.000001
   9        45           0      0.000000    0.000000    Roots Converged
 Time for AOints: 405.6 s (CPU) 44.8 s (wall)
 ------------------------------------------------------------------------------
                     AOints        : Timing summary (seconds)
 ------------------------------------------------------------------------------
     job step          cpu (% of tot)      sys (% of tot)     wall (% of tot)
 ------------------------------------------------------------------------------
  cpscf_lag         0.2786E+04 (35.2)   0.1466E-01 (55.6)   0.7818E+03 (33.4)
  iterzp            0.4725E+04 (59.7)   0.1028E-01 (39.0)   0.1510E+04 (64.6)
  make_fx           0.0000E+00 ( 0.0)   0.0000E+00 ( 0.0)   0.0000E+00 ( 0.0)
  AOints            0.4056E+03 ( 5.1)   0.1410E-02 ( 5.3)   0.4481E+02 ( 1.9)
 ------------------------------------------------------------------------------
   Grand Totals     0.7918E+04          0.2637E-01          0.2337E+04
 ------------------------------------------------------------------------------
 Calculating analytic Hessian of the SCF energy
 Polarizability Matrix (a.u.)
            1           2           3
    1-105.3078755   4.0100071  -6.3967721
    2   4.0100071-101.1608276  10.5647114
    3  -6.3967721  10.5647114-129.4541009
atom: 0 element: 16
atom: 1 element: 6
atom: 2 element: 7
atom: 3 element: 8
atom: 4 element: 9
atom: 5 element: 9
atom: 6 element: 9
atom: 7 element: 16
atom: 8 element: 6
atom: 9 element: 8
atom: 10 element: 8
atom: 11 element: 9
atom: 12 element: 9
atom: 13 element: 9
 
 Direct stationary perturbation theory relativistic correction:
 
 rels  =       1.625103924152
 relv  =      -6.691885316767
 rel2e =       0.000000000000
 E_rel =      -5.066781392615
 
 Computing fast CPCM-SWIG hessian
 Hessian of the SCF Energy
            1           2           3           4           5           6
    1   0.1862489  -0.1278364  -0.1520383   0.0009026   0.0003790   0.0001617
    2  -0.1278364   0.1032276  -0.0660978  -0.0022947  -0.0046768  -0.0037044
    3  -0.1520383  -0.0660978   0.3750755   0.0010700   0.0012184   0.0047151
    4   0.0009026  -0.0022947   0.0010700   0.3839094  -0.0459709  -0.0285503
    5   0.0003790  -0.0046768   0.0012184  -0.0459709   0.2737100  -0.0714502
    6   0.0001617  -0.0037044   0.0047151  -0.0285503  -0.0714502   0.3667724
    7  -0.0275532   0.0584502  -0.0372691  -0.0008565   0.0036479   0.0013152
    8   0.0441390  -0.1029539   0.1048067   0.0032275   0.0025034   0.0054322
    9  -0.0295848   0.1045779  -0.0924540   0.0014128   0.0053147   0.0001073
   10  -0.1386428   0.0603572   0.2105189   0.0001725   0.0010439   0.0010544
   11   0.0638974   0.0088156  -0.0484022   0.0016885   0.0021037  -0.0004568
   12   0.2068091  -0.0460148  -0.2542529  -0.0004970  -0.0011085  -0.0022953
   13  -0.0001835   0.0005790  -0.0001773  -0.0303635  -0.0401538   0.0327706
   14  -0.0003172   0.0015945  -0.0002106  -0.0392369  -0.1852698   0.1373260
   15   0.0000152  -0.0001109  -0.0010474   0.0297092   0.1266892  -0.1296889
   16  -0.0002844  -0.0003945   0.0007404  -0.1375690   0.0651087   0.1146259
   17   0.0002062   0.0012241  -0.0007632   0.0735935  -0.0646919  -0.0735782
   18   0.0002132   0.0013458  -0.0015070   0.1207382  -0.0695793  -0.1391065
   19  -0.0005882   0.0015975  -0.0013137  -0.2164463   0.0191332  -0.1208100
   20  -0.0002225   0.0002260  -0.0002943   0.0089713  -0.0250295   0.0054372
   21  -0.0002399   0.0013522  -0.0014760  -0.1239231   0.0114691  -0.0988374
   22  -0.0226353   0.0233170  -0.0435228  -0.0005996  -0.0073120  -0.0041347
   23   0.0197391  -0.0071514   0.0021985  -0.0009498   0.0019096  -0.0007455
   24  -0.0254885   0.0200444  -0.0462195  -0.0028577  -0.0070496  -0.0041138
   25  -0.0020078   0.0058015  -0.0046110  -0.0023084  -0.0010995  -0.0021774
   26   0.0010232  -0.0038341   0.0071908  -0.0026028   0.0018182  -0.0019104
   27  -0.0055250  -0.0032998   0.0127423  -0.0012219   0.0006177   0.0008660
   28   0.0023802  -0.0048141   0.0023185  -0.0003255   0.0010795   0.0008416
   29  -0.0021564   0.0064063  -0.0023561   0.0002192  -0.0008414   0.0006051
   30  -0.0019825  -0.0061422   0.0078279   0.0016055   0.0029457   0.0014153
   31   0.0029469  -0.0078881   0.0148584   0.0005134   0.0027079   0.0015666
   32   0.0021652  -0.0073190   0.0088949   0.0007102   0.0009037   0.0010039
   33   0.0042246  -0.0029319   0.0029045   0.0002721   0.0011031   0.0006146
   34   0.0002165  -0.0011603   0.0013736   0.0013540  -0.0002394   0.0015296
   35  -0.0010028   0.0025769  -0.0031717   0.0018628  -0.0013674   0.0016877
   36   0.0003529   0.0002945  -0.0014504   0.0010963  -0.0001749   0.0003408
   37  -0.0006915  -0.0045555   0.0072681   0.0011471   0.0011617   0.0012765
   38   0.0005936   0.0018215  -0.0032719   0.0002668  -0.0007499   0.0001015
   39   0.0004337  -0.0003218   0.0000639   0.0006907   0.0001242   0.0002308
   40  -0.0001082  -0.0011589   0.0007844   0.0004698   0.0005140   0.0005304
   41  -0.0006072   0.0000426   0.0002587   0.0005154  -0.0003218   0.0002520
   42   0.0026485   0.0010087  -0.0049218   0.0004553  -0.0001198  -0.0010204
            7           8           9          10          11          12
    1  -0.0275532   0.0441390  -0.0295848  -0.1386428   0.0638974   0.2068091
    2   0.0584502  -0.1029539   0.1045779   0.0603572   0.0088156  -0.0460148
    3  -0.0372691   0.1048067  -0.0924540   0.2105189  -0.0484022  -0.2542529
    4  -0.0008565   0.0032275   0.0014128   0.0001725   0.0016885  -0.0004970
    5   0.0036479   0.0025034   0.0053147   0.0010439   0.0021037  -0.0011085
    6   0.0013152   0.0054322   0.0001073   0.0010544  -0.0004568  -0.0022953
    7   0.2505442  -0.0184937   0.1959436   0.0169229  -0.0151523  -0.0087101
    8  -0.0184937   0.1475095  -0.1145804  -0.0128186   0.0076349   0.0057433
    9   0.1959436  -0.1145804   0.2967458   0.0017997   0.0129608  -0.0341607
   10   0.0169229  -0.0128186   0.0017997   0.1221195  -0.0439901  -0.2140227
   11  -0.0151523   0.0076349   0.0129608  -0.0439901  -0.0188970   0.0379107
   12  -0.0087101   0.0057433  -0.0341607  -0.2140227   0.0379107   0.2843583
   13  -0.0001527  -0.0007104  -0.0007939  -0.0000427  -0.0004473   0.0000811
   14  -0.0015843  -0.0014517  -0.0030077  -0.0004007  -0.0014013   0.0002412
   15   0.0000104  -0.0010798   0.0014443  -0.0000008   0.0007579   0.0003293
   16   0.0006061   0.0009655   0.0006424   0.0006194  -0.0001225  -0.0005800
   17  -0.0015324  -0.0016963  -0.0013732  -0.0002954  -0.0003870   0.0001167
   18  -0.0012650  -0.0018254  -0.0012683  -0.0006704  -0.0001515   0.0009720
   19  -0.0002461  -0.0034309  -0.0018422  -0.0002830  -0.0008781   0.0007983
   20  -0.0008366  -0.0010018  -0.0011218  -0.0000388  -0.0000633  -0.0000006
   21  -0.0003638  -0.0024965  -0.0012421  -0.0003718  -0.0005386   0.0009169
   22  -0.2033536  -0.0191397  -0.1340200  -0.0071275  -0.0064729   0.0274020
   23  -0.0133617  -0.0501710  -0.0004140  -0.0062129   0.0019174   0.0062484
   24  -0.1188121  -0.0102013  -0.1315954  -0.0039870  -0.0027387   0.0118462
   25   0.0180745  -0.0033708   0.0074916  -0.0015517  -0.0007901   0.0025676
   26  -0.0223857   0.0158247  -0.0132140   0.0007325   0.0009058  -0.0036350
   27  -0.0219011   0.0125097  -0.0058602   0.0054023  -0.0021055  -0.0024296
   28  -0.0053777   0.0083499  -0.0230341   0.0018055   0.0009570  -0.0054294
   29  -0.0043848  -0.0056331   0.0005185   0.0001905  -0.0005607   0.0024783
   30  -0.0035053   0.0143437  -0.0268196   0.0031603   0.0005431  -0.0085694
   31  -0.0294677  -0.0134466  -0.0092416   0.0021005   0.0010724  -0.0048653
   32  -0.0022804  -0.0047675   0.0029991   0.0022718   0.0001543  -0.0044325
   33  -0.0146808  -0.0082510  -0.0150123   0.0010409   0.0009206   0.0003381
   34  -0.0004792   0.0012413   0.0002305   0.0005551  -0.0001701  -0.0002287
   35   0.0085792  -0.0008398   0.0029361  -0.0001638  -0.0003675   0.0015987
   36   0.0036464  -0.0004074   0.0010892  -0.0004943  -0.0000125   0.0005521
   37  -0.0162101   0.0104037  -0.0072886   0.0014670   0.0005683  -0.0029282
   38   0.0072222  -0.0042858   0.0038792  -0.0008115  -0.0000706   0.0011305
   39  -0.0017596   0.0011170   0.0001789  -0.0006813   0.0005336  -0.0004113
   40  -0.0024510   0.0030838  -0.0017153   0.0018852  -0.0001601  -0.0003968
   41   0.0021124  -0.0006717   0.0005248   0.0001357   0.0002156  -0.0002764
   42   0.0073511  -0.0051107   0.0088470  -0.0027483   0.0007792   0.0028062
           13          14          15          16          17          18
    1  -0.0001835  -0.0003172   0.0000152  -0.0002844   0.0002062   0.0002132
    2   0.0005790   0.0015945  -0.0001109  -0.0003945   0.0012241   0.0013458
    3  -0.0001773  -0.0002106  -0.0010474   0.0007404  -0.0007632  -0.0015070
    4  -0.0303635  -0.0392369   0.0297092  -0.1375690   0.0735935   0.1207382
    5  -0.0401538  -0.1852698   0.1266892   0.0651087  -0.0646919  -0.0695793
    6   0.0327706   0.1373260  -0.1296889   0.1146259  -0.0735782  -0.1391065
    7  -0.0001527  -0.0015843   0.0000104   0.0006061  -0.0015324  -0.0012650
    8  -0.0007104  -0.0014517  -0.0010798   0.0009655  -0.0016963  -0.0018254
    9  -0.0007939  -0.0030077   0.0014443   0.0006424  -0.0013732  -0.0012683
   10  -0.0000427  -0.0004007  -0.0000008   0.0006194  -0.0002954  -0.0006704
   11  -0.0004473  -0.0014013   0.0007579  -0.0001225  -0.0003870  -0.0001515
   12   0.0000811   0.0002412   0.0003293  -0.0005800   0.0001167   0.0009720
   13   0.0380557   0.0255343  -0.0414014  -0.0149980  -0.0192436   0.0379938
   14   0.0255343   0.1651723  -0.1873133  -0.0169528   0.0279270   0.0181121
   15  -0.0414014  -0.1873133   0.2200815   0.0397453   0.0224553  -0.0511479
   16  -0.0149980  -0.0169528   0.0397453   0.2246472  -0.0782795  -0.1671453
   17  -0.0192436   0.0279270   0.0224553  -0.0782795   0.0329204   0.0458321
   18   0.0379938   0.0181121  -0.0511479  -0.1671453   0.0458321   0.1620742
   19   0.0079953   0.0317752  -0.0276657  -0.0726890   0.0251000   0.0100921
   20   0.0349387  -0.0060334   0.0384287   0.0295224   0.0052376   0.0072843
   21  -0.0284825   0.0339340  -0.0404645   0.0126094   0.0068729   0.0298054
   22   0.0008048   0.0030532   0.0000372  -0.0014012   0.0021599   0.0019627
   23   0.0001349  -0.0008043   0.0007841   0.0003856  -0.0004463  -0.0001226
   24   0.0011778   0.0031391  -0.0000135  -0.0003923   0.0020409   0.0018507
   25   0.0003906   0.0002926   0.0005616   0.0003458   0.0003079   0.0005328
   26   0.0005668  -0.0011623   0.0011362   0.0007013  -0.0005204  -0.0001501
   27   0.0000407   0.0000622  -0.0004483   0.0009137  -0.0005930  -0.0009364
   28   0.0000008  -0.0003331   0.0000205   0.0002797  -0.0002672  -0.0002778
   29   0.0000367   0.0003845  -0.0002121  -0.0000483   0.0002041   0.0000273
   30  -0.0004996  -0.0013408   0.0003864   0.0001702  -0.0007028  -0.0007150
   31  -0.0003148  -0.0011848   0.0000916   0.0005446  -0.0009188  -0.0009485
   32  -0.0002436  -0.0004277  -0.0000589   0.0001388  -0.0003377  -0.0004702
   33  -0.0001525  -0.0004919   0.0001002   0.0001629  -0.0003139  -0.0002950
   34  -0.0008637  -0.0001069  -0.0009446  -0.0000342  -0.0000880  -0.0003833
   35  -0.0008920   0.0009841  -0.0011844  -0.0005432   0.0004163  -0.0002010
   36  -0.0004424  -0.0002169   0.0001972  -0.0006111   0.0000219  -0.0001485
   37  -0.0003783  -0.0004696  -0.0001508  -0.0000340  -0.0003661  -0.0004429
   38  -0.0000901   0.0003039  -0.0001839  -0.0001367   0.0001953   0.0000662
   39  -0.0001871  -0.0001135  -0.0000310  -0.0002082  -0.0000474  -0.0000606
   40   0.0000500  -0.0000690  -0.0000278  -0.0000330  -0.0003766  -0.0003995
   41  -0.0000097   0.0001844  -0.0001081  -0.0003447  -0.0000452  -0.0001676
   42   0.0000726  -0.0001198   0.0003026  -0.0006734   0.0000320   0.0004828
           19          20          21          22          23          24
    1  -0.0005882  -0.0002225  -0.0002399  -0.0226353   0.0197391  -0.0254885
    2   0.0015975   0.0002260   0.0013522   0.0233170  -0.0071514   0.0200444
    3  -0.0013137  -0.0002943  -0.0014760  -0.0435228   0.0021985  -0.0462195
    4  -0.2164463   0.0089713  -0.1239231  -0.0005996  -0.0009498  -0.0028577
    5   0.0191332  -0.0250295   0.0114691  -0.0073120   0.0019096  -0.0070496
    6  -0.1208100   0.0054372  -0.0988374  -0.0041347  -0.0007455  -0.0041138
    7  -0.0002461  -0.0008366  -0.0003638  -0.2033536  -0.0133617  -0.1188121
    8  -0.0034309  -0.0010018  -0.0024965  -0.0191397  -0.0501710  -0.0102013
    9  -0.0018422  -0.0011218  -0.0012421  -0.1340200  -0.0004140  -0.1315954
   10  -0.0002830  -0.0000388  -0.0003718  -0.0071275  -0.0062129  -0.0039870
   11  -0.0008781  -0.0000633  -0.0005386  -0.0064729   0.0019174  -0.0027387
   12   0.0007983  -0.0000006   0.0009169   0.0274020   0.0062484   0.0118462
   13   0.0079953   0.0349387  -0.0284825   0.0008048   0.0001349   0.0011778
   14   0.0317752  -0.0060334   0.0339340   0.0030532  -0.0008043   0.0031391
   15  -0.0276657   0.0384287  -0.0404645   0.0000372   0.0007841  -0.0000135
   16  -0.0726890   0.0295224   0.0126094  -0.0014012   0.0003856  -0.0003923
   17   0.0251000   0.0052376   0.0068729   0.0021599  -0.0004463   0.0020409
   18   0.0100921   0.0072843   0.0298054   0.0019627  -0.0001226   0.0018507
   19   0.2820418  -0.0730644   0.1404604   0.0013345   0.0004733   0.0017734
   20  -0.0730644   0.0267223  -0.0503413   0.0013495  -0.0001573   0.0012204
   21   0.1404604  -0.0503413   0.1108662   0.0013665   0.0002430   0.0014393
   22   0.0013345   0.0013495   0.0013665   0.4841089   0.2133773  -0.0102482
   23   0.0004733  -0.0001573   0.0002430   0.2133773   0.6922666  -0.1944330
   24   0.0017734   0.0012204   0.0014393  -0.0102482  -0.1944330   0.7013146
   25   0.0013457   0.0002988   0.0010517  -0.1099204   0.0862538   0.0531257
   26   0.0010653  -0.0002884   0.0007269   0.0872022  -0.1093129  -0.0524919
   27   0.0004309  -0.0001206   0.0000929   0.0510530  -0.0504077  -0.0541208
   28  -0.0000835  -0.0001120  -0.0001239  -0.0256946  -0.0349987   0.1054161
   29   0.0000337   0.0001860   0.0000696  -0.0380400  -0.0945278   0.2027298
   30  -0.0008823  -0.0003553  -0.0006249   0.1184824   0.2042550  -0.4710494
   31  -0.0008204  -0.0005237  -0.0007403  -0.1205438  -0.2343750   0.0158853
   32  -0.0007230  -0.0001530  -0.0005551  -0.2269082  -0.4324303   0.0203240
   33  -0.0003099  -0.0001797  -0.0002187   0.0112457   0.0141842   0.0100308
   34  -0.0006862  -0.0000057  -0.0005248   0.0060213   0.0043616  -0.0004660
   35  -0.0007644   0.0001897  -0.0005521  -0.0341190  -0.0118937   0.0119866
   36  -0.0004217   0.0000293  -0.0002014  -0.0074711  -0.0038382   0.0024497
   37  -0.0006472  -0.0002327  -0.0005117  -0.0078846  -0.0172906  -0.0267997
   38  -0.0000886   0.0000981  -0.0000451   0.0041918   0.0045600   0.0110891
   39  -0.0003101  -0.0000374  -0.0001879   0.0014581  -0.0038488  -0.0057958
   40  -0.0002275  -0.0000441  -0.0002061   0.0068910  -0.0175370   0.0116729
   41  -0.0002289   0.0000668  -0.0001390  -0.0026591   0.0062415  -0.0056596
   42   0.0000006   0.0000512   0.0001321  -0.0136106   0.0258967  -0.0160231
           25          26          27          28          29          30
    1  -0.0020078   0.0010232  -0.0055250   0.0023802  -0.0021564  -0.0019825
    2   0.0058015  -0.0038341  -0.0032998  -0.0048141   0.0064063  -0.0061422
    3  -0.0046110   0.0071908   0.0127423   0.0023185  -0.0023561   0.0078279
    4  -0.0023084  -0.0026028  -0.0012219  -0.0003255   0.0002192   0.0016055
    5  -0.0010995   0.0018182   0.0006177   0.0010795  -0.0008414   0.0029457
    6  -0.0021774  -0.0019104   0.0008660   0.0008416   0.0006051   0.0014153
    7   0.0180745  -0.0223857  -0.0219011  -0.0053777  -0.0043848  -0.0035053
    8  -0.0033708   0.0158247   0.0125097   0.0083499  -0.0056331   0.0143437
    9   0.0074916  -0.0132140  -0.0058602  -0.0230341   0.0005185  -0.0268196
   10  -0.0015517   0.0007325   0.0054023   0.0018055   0.0001905   0.0031603
   11  -0.0007901   0.0009058  -0.0021055   0.0009570  -0.0005607   0.0005431
   12   0.0025676  -0.0036350  -0.0024296  -0.0054294   0.0024783  -0.0085694
   13   0.0003906   0.0005668   0.0000407   0.0000008   0.0000367  -0.0004996
   14   0.0002926  -0.0011623   0.0000622  -0.0003331   0.0003845  -0.0013408
   15   0.0005616   0.0011362  -0.0004483   0.0000205  -0.0002121   0.0003864
   16   0.0003458   0.0007013   0.0009137   0.0002797  -0.0000483   0.0001702
   17   0.0003079  -0.0005204  -0.0005930  -0.0002672   0.0002041  -0.0007028
   18   0.0005328  -0.0001501  -0.0009364  -0.0002778   0.0000273  -0.0007150
   19   0.0013457   0.0010653   0.0004309  -0.0000835   0.0000337  -0.0008823
   20   0.0002988  -0.0002884  -0.0001206  -0.0001120   0.0001860  -0.0003553
   21   0.0010517   0.0007269   0.0000929  -0.0001239   0.0000696  -0.0006249
   22  -0.1099204   0.0872022   0.0510530  -0.0256946  -0.0380400   0.1184824
   23   0.0862538  -0.1093129  -0.0504077  -0.0349987  -0.0945278   0.2042550
   24   0.0531257  -0.0524919  -0.0541208   0.1054161   0.2027298  -0.4710494
   25   0.3862891  -0.0062202  -0.0106254   0.0073488   0.0009748  -0.0206590
   26  -0.0062202   0.3950290   0.0027438  -0.0161056  -0.0014725   0.0287399
   27  -0.0106254   0.0027438   0.3963954   0.0045131  -0.0049038  -0.0077318
   28   0.0073488  -0.0161056   0.0045131   0.0334490   0.0446966  -0.1068078
   29   0.0009748  -0.0014725  -0.0049038   0.0446966   0.1056162  -0.2196526
   30  -0.0206590   0.0287399  -0.0077318  -0.1068078  -0.2196526   0.5182180
   31  -0.0069968   0.0028902   0.0000095  -0.0056389  -0.0073126  -0.0079427
   32  -0.0371656   0.0009198   0.0154171  -0.0101958  -0.0127319  -0.0050365
   33  -0.0069970   0.0011776  -0.0058223   0.0124300   0.0270753  -0.0075105
   34  -0.0451351  -0.0612839  -0.0001693  -0.0005285   0.0014077   0.0002519
   35  -0.0602104  -0.2438085  -0.0141747   0.0069262   0.0034729  -0.0081644
   36  -0.0000316  -0.0136292  -0.0215162   0.0003769  -0.0009400   0.0021803
   37  -0.2006346   0.0217098  -0.0965173  -0.0013177   0.0014802   0.0083434
   38   0.0224659  -0.0249563   0.0076559   0.0017619  -0.0001597  -0.0044931
   39  -0.0955958   0.0071337  -0.0750052  -0.0000315  -0.0009768   0.0057778
   40  -0.0452396  -0.0072931   0.0735969  -0.0062975   0.0029028   0.0102655
   41  -0.0075386  -0.0291420   0.0365986   0.0030555  -0.0003428  -0.0049396
   42   0.0753661   0.0361818  -0.2362257   0.0097879  -0.0044623  -0.0127852
           31          32          33          34          35          36
    1   0.0029469   0.0021652   0.0042246   0.0002165  -0.0010028   0.0003529
    2  -0.0078881  -0.0073190  -0.0029319  -0.0011603   0.0025769   0.0002945
    3   0.0148584   0.0088949   0.0029045   0.0013736  -0.0031717  -0.0014504
    4   0.0005134   0.0007102   0.0002721   0.0013540   0.0018628   0.0010963
    5   0.0027079   0.0009037   0.0011031  -0.0002394  -0.0013674  -0.0001749
    6   0.0015666   0.0010039   0.0006146   0.0015296   0.0016877   0.0003408
    7  -0.0294677  -0.0022804  -0.0146808  -0.0004792   0.0085792   0.0036464
    8  -0.0134466  -0.0047675  -0.0082510   0.0012413  -0.0008398  -0.0004074
    9  -0.0092416   0.0029991  -0.0150123   0.0002305   0.0029361   0.0010892
   10   0.0021005   0.0022718   0.0010409   0.0005551  -0.0001638  -0.0004943
   11   0.0010724   0.0001543   0.0009206  -0.0001701  -0.0003675  -0.0000125
   12  -0.0048653  -0.0044325   0.0003381  -0.0002287   0.0015987   0.0005521
   13  -0.0003148  -0.0002436  -0.0001525  -0.0008637  -0.0008920  -0.0004424
   14  -0.0011848  -0.0004277  -0.0004919  -0.0001069   0.0009841  -0.0002169
   15   0.0000916  -0.0000589   0.0001002  -0.0009446  -0.0011844   0.0001972
   16   0.0005446   0.0001388   0.0001629  -0.0000342  -0.0005432  -0.0006111
   17  -0.0009188  -0.0003377  -0.0003139  -0.0000880   0.0004163   0.0000219
   18  -0.0009485  -0.0004702  -0.0002950  -0.0003833  -0.0002010  -0.0001485
   19  -0.0008204  -0.0007230  -0.0003099  -0.0006862  -0.0007644  -0.0004217
   20  -0.0005237  -0.0001530  -0.0001797  -0.0000057   0.0001897   0.0000293
   21  -0.0007403  -0.0005551  -0.0002187  -0.0005248  -0.0005521  -0.0002014
   22  -0.1205438  -0.2269082   0.0112457   0.0060213  -0.0341190  -0.0074711
   23  -0.2343750  -0.4324303   0.0141842   0.0043616  -0.0118937  -0.0038382
   24   0.0158853   0.0203240   0.0100308  -0.0004660   0.0119866   0.0024497
   25  -0.0069968  -0.0371656  -0.0069970  -0.0451351  -0.0602104  -0.0000316
   26   0.0028902   0.0009198   0.0011776  -0.0612839  -0.2438085  -0.0136292
   27   0.0000095   0.0154171  -0.0058223  -0.0001693  -0.0141747  -0.0215162
   28  -0.0056389  -0.0101958   0.0124300  -0.0005285   0.0069262   0.0003769
   29  -0.0073126  -0.0127319   0.0270753   0.0014077   0.0034729  -0.0009400
   30  -0.0079427  -0.0050365  -0.0075105   0.0002519  -0.0081644   0.0021803
   31   0.1539716   0.2517609  -0.0112946   0.0004279   0.0040313   0.0007951
   32   0.2517609   0.4730161  -0.0258594   0.0039773  -0.0187920  -0.0050339
   33  -0.0112946  -0.0258594   0.0111519   0.0007373  -0.0049964  -0.0004108
   34   0.0004279   0.0039773   0.0007373   0.0842261   0.1320782   0.0027331
   35   0.0040313  -0.0187920  -0.0049964   0.1320782   0.3155652  -0.0025923
   36   0.0007951  -0.0050339  -0.0004108   0.0027331  -0.0025923   0.0311412
   37   0.0028160   0.0091640   0.0038623  -0.0398752  -0.0339577  -0.0208010
   38   0.0013923   0.0003792  -0.0011780  -0.0508900  -0.0120317  -0.0244596
   39   0.0018034   0.0008917   0.0010966  -0.0223496  -0.0177631  -0.0010317
   40   0.0004613   0.0073284  -0.0005410  -0.0051989  -0.0218245   0.0212724
   41   0.0017947   0.0015860  -0.0002586  -0.0291217  -0.0341043   0.0509592
   42   0.0000232  -0.0080842   0.0030329   0.0182104   0.0345910  -0.0131914
           37          38          39          40          41          42
    1  -0.0006915   0.0005936   0.0004337  -0.0001082  -0.0006072   0.0026485
    2  -0.0045555   0.0018215  -0.0003218  -0.0011589   0.0000426   0.0010087
    3   0.0072681  -0.0032719   0.0000639   0.0007844   0.0002587  -0.0049218
    4   0.0011471   0.0002668   0.0006907   0.0004698   0.0005154   0.0004553
    5   0.0011617  -0.0007499   0.0001242   0.0005140  -0.0003218  -0.0001198
    6   0.0012765   0.0001015   0.0002308   0.0005304   0.0002520  -0.0010204
    7  -0.0162101   0.0072222  -0.0017596  -0.0024510   0.0021124   0.0073511
    8   0.0104037  -0.0042858   0.0011170   0.0030838  -0.0006717  -0.0051107
    9  -0.0072886   0.0038792   0.0001789  -0.0017153   0.0005248   0.0088470
   10   0.0014670  -0.0008115  -0.0006813   0.0018852   0.0001357  -0.0027483
   11   0.0005683  -0.0000706   0.0005336  -0.0001601   0.0002156   0.0007792
   12  -0.0029282   0.0011305  -0.0004113  -0.0003968  -0.0002764   0.0028062
   13  -0.0003783  -0.0000901  -0.0001871   0.0000500  -0.0000097   0.0000726
   14  -0.0004696   0.0003039  -0.0001135  -0.0000690   0.0001844  -0.0001198
   15  -0.0001508  -0.0001839  -0.0000310  -0.0000278  -0.0001081   0.0003026
   16  -0.0000340  -0.0001367  -0.0002082  -0.0000330  -0.0003447  -0.0006734
   17  -0.0003661   0.0001953  -0.0000474  -0.0003766  -0.0000452   0.0000320
   18  -0.0004429   0.0000662  -0.0000606  -0.0003995  -0.0001676   0.0004828
   19  -0.0006472  -0.0000886  -0.0003101  -0.0002275  -0.0002289   0.0000006
   20  -0.0002327   0.0000981  -0.0000374  -0.0000441   0.0000668   0.0000512
   21  -0.0005117  -0.0000451  -0.0001879  -0.0002061  -0.0001390   0.0001321
   22  -0.0078846   0.0041918   0.0014581   0.0068910  -0.0026591  -0.0136106
   23  -0.0172906   0.0045600  -0.0038488  -0.0175370   0.0062415   0.0258967
   24  -0.0267997   0.0110891  -0.0057958   0.0116729  -0.0056596  -0.0160231
   25  -0.2006346   0.0224659  -0.0955958  -0.0452396  -0.0075386   0.0753661
   26   0.0217098  -0.0249563   0.0071337  -0.0072931  -0.0291420   0.0361818
   27  -0.0965173   0.0076559  -0.0750052   0.0735969   0.0365986  -0.2362257
   28  -0.0013177   0.0017619  -0.0000315  -0.0062975   0.0030555   0.0097879
   29   0.0014802  -0.0001597  -0.0009768   0.0029028  -0.0003428  -0.0044623
   30   0.0083434  -0.0044931   0.0057778   0.0102655  -0.0049396  -0.0127852
   31   0.0028160   0.0013923   0.0018034   0.0004613   0.0017947   0.0000232
   32   0.0091640   0.0003792   0.0008917   0.0073284   0.0015860  -0.0080842
   33   0.0038623  -0.0011780   0.0010966  -0.0005410  -0.0002586   0.0030329
   34  -0.0398752  -0.0508900  -0.0223496  -0.0051989  -0.0291217   0.0182104
   35  -0.0339577  -0.0120317  -0.0177631  -0.0218245  -0.0341043   0.0345910
   36  -0.0208010  -0.0244596  -0.0010317   0.0212724   0.0509592  -0.0131914
   37   0.2550902   0.0070545   0.1595315   0.0071529   0.0053301  -0.0248416
   38   0.0070545   0.0286096  -0.0013203   0.0070680   0.0062865   0.0110295
   39   0.1595315  -0.0013203   0.1405123  -0.0427942   0.0146288  -0.0653369
   40   0.0071529   0.0070680  -0.0427942   0.0426455   0.0275662  -0.0720418
   41   0.0053301   0.0062865   0.0146288   0.0275662   0.0500044  -0.0916732
   42  -0.0248416   0.0110295  -0.0653369  -0.0720418  -0.0916732   0.3339008
 Gradient time:  CPU 9841.14 s  wall 3354.92 s
 **********************************************************************
 **                                                                  **
 **                       VIBRATIONAL ANALYSIS                       **
 **                       --------------------                       **
 **                                                                  **
 **        VIBRATIONAL FREQUENCIES (CM**-1) AND NORMAL MODES         **
 **     FORCE CONSTANTS (mDYN/ANGSTROM) AND REDUCED MASSES (AMU)     **
 **                  INFRARED INTENSITIES (KM/MOL)                   **
 **                                                                  **
 **********************************************************************
 

 Mode:                 1                      2                      3
 Frequency:       -50.41                 -36.34                 -15.24
 Force Cnst:      0.0266                 0.0141                 0.0025
 Red. Mass:      17.7475                18.1072                18.4332
 IR Active:          YES                    YES                    YES
 IR Intens:        2.135                  0.870                  0.277
 Raman Active:       YES                    YES                    YES
               X      Y      Z        X      Y      Z        X      Y      Z
 S          0.005  0.097 -0.066   -0.013  0.013 -0.063   -0.162 -0.046  0.130
 C          0.339  0.021  0.244   -0.098  0.161  0.229    0.158  0.034  0.000
 N         -0.093  0.018 -0.103   -0.012 -0.080 -0.146   -0.068  0.040  0.180
 O         -0.016  0.044 -0.072    0.097  0.219 -0.016   -0.216 -0.087  0.099
 F          0.230 -0.057  0.148   -0.078  0.157  0.231   -0.128 -0.058 -0.147
 F          0.091 -0.141  0.029    0.262  0.410  0.530    0.339  0.069  0.195
 F          0.304  0.429  0.462    0.005 -0.253 -0.114    0.337  0.176 -0.247
 S         -0.111 -0.069 -0.068   -0.052 -0.112 -0.086    0.059  0.067  0.001
 C         -0.104 -0.047 -0.092    0.004 -0.050 -0.088   -0.108 -0.083 -0.026
 O         -0.162 -0.142 -0.112   -0.100 -0.193 -0.132    0.205  0.235  0.103
 O         -0.087 -0.081  0.013   -0.075 -0.097  0.005    0.125  0.018 -0.245
 F         -0.108 -0.044 -0.145    0.049 -0.067 -0.121   -0.193 -0.051  0.153
 F         -0.119 -0.077 -0.071   -0.013 -0.024 -0.063   -0.022 -0.087 -0.157
 F         -0.077 -0.004 -0.074    0.020 -0.009 -0.073   -0.235 -0.224 -0.097
 TransDip   0.033  0.023  0.023    0.001  0.016  0.025   -0.006 -0.015 -0.005

 Mode:                 4                      5                      6
 Frequency:        22.16                  28.05                  38.39
 Force Cnst:      0.0051                 0.0086                 0.0153
 Red. Mass:      17.7877                18.4504                17.6741
 IR Active:          YES                    YES                    YES
 IR Intens:        3.172                  1.199                  3.260
 Raman Active:       YES                    YES                    YES
               X      Y      Z        X      Y      Z        X      Y      Z
 S         -0.024 -0.060  0.038   -0.071 -0.101 -0.042   -0.064 -0.065  0.003
 C          0.109  0.257 -0.167    0.051  0.144 -0.052    0.006 -0.067 -0.046
 N         -0.028 -0.073  0.030   -0.036 -0.060 -0.016   -0.001 -0.108 -0.055
 O         -0.266 -0.313 -0.093    0.200  0.186  0.106    0.366  0.498  0.220
 F          0.146  0.703  0.263    0.485  0.100 -0.005   -0.227  0.094  0.055
 F         -0.000 -0.187 -0.091   -0.044  0.376 -0.271   -0.069 -0.393  0.015
 F          0.058  0.027 -0.173   -0.162 -0.132  0.204    0.082  0.131 -0.098
 S         -0.024 -0.072  0.023   -0.023 -0.002 -0.039   -0.032 -0.046 -0.016
 C          0.018 -0.023  0.008   -0.072 -0.109  0.061    0.033  0.020 -0.017
 O         -0.009 -0.098  0.014   -0.010  0.146  0.028   -0.020 -0.073 -0.025
 O         -0.053 -0.056  0.038    0.009 -0.028 -0.194   -0.104 -0.005  0.008
 F          0.089 -0.050  0.040   -0.061 -0.116  0.302    0.194 -0.050  0.223
 F          0.039  0.050 -0.022   -0.017  0.020 -0.019    0.132  0.272 -0.160
 F         -0.034 -0.022 -0.007   -0.171 -0.310 -0.017   -0.178 -0.111 -0.105
 TransDip   0.031  0.048  0.000   -0.020 -0.029  0.002   -0.030 -0.047 -0.014

 Mode:                 7                      8                      9
 Frequency:        42.33                  54.53                  69.47
 Force Cnst:      0.0196                 0.0357                 0.0508
 Red. Mass:      18.5586                20.3631                17.8511
 IR Active:          YES                    YES                    YES
 IR Intens:        2.872                  3.149                  4.822
 Raman Active:       YES                    YES                    YES
               X      Y      Z        X      Y      Z        X      Y      Z
 S         -0.018 -0.213 -0.086    0.242  0.354  0.032    0.136 -0.202 -0.122
 C         -0.085  0.165  0.106   -0.018 -0.091 -0.012   -0.019  0.048  0.021
 N          0.038 -0.209 -0.094    0.043  0.173 -0.064   -0.149  0.117  0.250
 O         -0.123 -0.286 -0.148   -0.234 -0.159 -0.224    0.498 -0.444  0.175
 F         -0.220 -0.101 -0.172    0.039 -0.165 -0.066   -0.002  0.019 -0.005
 F         -0.066  0.323  0.055    0.046  0.044  0.001    0.011  0.112  0.031
 F         -0.025  0.449  0.110   -0.020 -0.164 -0.032   -0.016  0.026  0.009
 S         -0.018 -0.071 -0.034   -0.028 -0.026  0.059   -0.046  0.032  0.119
 C          0.141  0.018  0.084   -0.039 -0.007  0.008   -0.107  0.104 -0.114
 O         -0.034 -0.050 -0.028   -0.180 -0.171 -0.035    0.060 -0.075  0.093
 O         -0.135 -0.008 -0.052    0.064 -0.064  0.288   -0.052  0.037  0.162
 F          0.315 -0.055  0.213    0.099 -0.067  0.322   -0.097  0.098 -0.124
 F          0.144  0.253  0.087    0.124  0.242 -0.233   -0.011  0.076 -0.261
 F          0.096 -0.064  0.050   -0.350 -0.175 -0.120   -0.273  0.179 -0.132
 TransDip   0.023  0.041  0.028    0.037  0.043  0.004   -0.024  0.014 -0.065

 Mode:                10                     11                     12
 Frequency:       156.13                 188.26                 205.17
 Force Cnst:      0.2793                 0.3690                 0.4294
 Red. Mass:      19.4486                17.6728                17.3150
 IR Active:          YES                    YES                    YES
 IR Intens:        1.798                 16.107                  5.678
 Raman Active:       YES                    YES                    YES
               X      Y      Z        X      Y      Z        X      Y      Z
 S         -0.186 -0.277 -0.219   -0.285  0.025 -0.142   -0.090 -0.018 -0.082
 C          0.019  0.020  0.011   -0.001 -0.012 -0.010   -0.002 -0.007 -0.001
 N          0.364  0.033 -0.151   -0.212  0.505  0.247   -0.044  0.171  0.071
 O         -0.152  0.237 -0.278    0.045 -0.082  0.110   -0.002  0.042 -0.026
 F          0.011  0.023  0.010    0.002 -0.004 -0.005   -0.004 -0.006  0.000
 F          0.011  0.015  0.006    0.001 -0.003 -0.007    0.000 -0.003  0.002
 F          0.019  0.040  0.018    0.003  0.001 -0.003    0.002  0.003  0.002
 S          0.144  0.086  0.134    0.034  0.049 -0.059   -0.019 -0.060  0.054
 C          0.024  0.027  0.063    0.025  0.004 -0.081   -0.059 -0.095  0.062
 O         -0.136 -0.038  0.027    0.080 -0.314 -0.203   -0.282  0.271  0.145
 O          0.197  0.073  0.489    0.271 -0.068  0.221    0.489 -0.347 -0.146
 F         -0.194  0.116  0.087    0.053 -0.009  0.060    0.347 -0.254 -0.180
 F          0.148 -0.211 -0.136   -0.111  0.181  0.142   -0.039  0.079  0.039
 F         -0.143  0.054  0.022    0.281 -0.266 -0.082   -0.225  0.279  0.115
 TransDip   0.003 -0.038  0.020   -0.070  0.002 -0.108   -0.048 -0.059 -0.003

 Mode:                13                     14                     15
 Frequency:       288.91                 315.02                 325.97
 Force Cnst:      0.8784                 1.0230                 1.1196
 Red. Mass:      17.8613                17.4971                17.8848
 IR Active:          YES                    YES                    YES
 IR Intens:        0.891                  2.351                  0.735
 Raman Active:       YES                    YES                    YES
               X      Y      Z        X      Y      Z        X      Y      Z
 S         -0.115  0.095 -0.015   -0.008  0.070 -0.226   -0.068  0.071 -0.065
 C         -0.001 -0.002 -0.001   -0.001 -0.003  0.001   -0.004 -0.004 -0.006
 N         -0.172  0.178  0.081   -0.112  0.215  0.121   -0.150  0.109  0.059
 O          0.062 -0.119  0.150   -0.036  0.165 -0.261    0.032 -0.029  0.026
 F         -0.000 -0.002 -0.000    0.000 -0.002  0.001   -0.001 -0.003 -0.005
 F          0.000  0.000  0.001    0.001  0.001  0.001   -0.005 -0.007 -0.006
 F          0.000 -0.002 -0.001    0.002 -0.001  0.001   -0.004 -0.002 -0.002
 S         -0.113  0.101  0.021   -0.023  0.012  0.087    0.010 -0.101 -0.100
 C          0.227 -0.109  0.007   -0.038 -0.142  0.079    0.084  0.090  0.199
 O         -0.379  0.226  0.019    0.554 -0.091  0.169    0.072 -0.355 -0.196
 O         -0.225  0.165  0.060   -0.341  0.185  0.017    0.077 -0.151 -0.356
 F          0.207 -0.112 -0.008    0.255 -0.284 -0.041   -0.146  0.201  0.368
 F          0.417 -0.404 -0.250   -0.045 -0.181  0.097    0.269 -0.212 -0.052
 F          0.200 -0.100 -0.009   -0.201  0.046  0.098   -0.108  0.391  0.252
 TransDip   0.013  0.011 -0.025   -0.019 -0.016 -0.042   -0.006  0.024 -0.013

 Mode:                16                     17                     18
 Frequency:       385.09                 466.73                 509.30
 Force Cnst:      1.6129                 2.3431                 2.7906
 Red. Mass:      18.4603                18.2554                18.2601
 IR Active:          YES                    YES                    YES
 IR Intens:        6.783                114.652                  2.772
 Raman Active:       YES                    YES                    YES
               X      Y      Z        X      Y      Z        X      Y      Z
 S          0.102 -0.031 -0.125    0.211 -0.235  0.130   -0.006  0.005 -0.003
 C         -0.002 -0.004  0.001   -0.004 -0.010 -0.007   -0.023 -0.138  0.293
 N         -0.290  0.022  0.251   -0.056  0.224  0.417    0.015  0.004 -0.009
 O         -0.091  0.249 -0.315   -0.115  0.218 -0.210    0.002 -0.007  0.006
 F         -0.003 -0.000  0.001   -0.003  0.001  0.002   -0.011 -0.173  0.438
 F          0.000 -0.001 -0.000    0.001  0.002 -0.004   -0.436  0.268 -0.271
 F          0.001 -0.001  0.000    0.003 -0.002 -0.001    0.460 -0.005 -0.352
 S         -0.150 -0.172  0.200    0.120  0.133  0.102    0.002 -0.003  0.005
 C          0.059  0.069 -0.049    0.032  0.013  0.007    0.004 -0.000  0.008
 O          0.049  0.100  0.378   -0.387 -0.291 -0.200   -0.002 -0.006  0.005
 O          0.007 -0.292 -0.117   -0.067  0.219 -0.349   -0.005 -0.000 -0.010
 F         -0.211  0.193 -0.004    0.080  0.013 -0.104   -0.007  0.002 -0.012
 F          0.157  0.156 -0.189   -0.024 -0.027  0.112    0.010  0.009  0.003
 F          0.344 -0.111 -0.043   -0.111 -0.103 -0.062   -0.005 -0.009  0.007
 TransDip   0.012 -0.081  0.018    0.239 -0.106  0.222   -0.005 -0.016  0.051

 Mode:                19                     20                     21
 Frequency:       511.60                 519.66                 554.52
 Force Cnst:      2.8188                 2.8772                 3.2418
 Red. Mass:      18.2789                18.0836                17.8939
 IR Active:          YES                    YES                    YES
 IR Intens:        1.917                 17.376                 12.747
 Raman Active:       YES                    YES                    YES
               X      Y      Z        X      Y      Z        X      Y      Z
 S          0.004 -0.004  0.001    0.157 -0.128  0.082   -0.025  0.059 -0.051
 C         -0.305  0.094  0.024    0.002 -0.016  0.006    0.005  0.004  0.003
 N         -0.011 -0.002  0.007   -0.395 -0.181  0.191   -0.187 -0.158  0.004
 O         -0.001  0.005 -0.005   -0.066  0.138 -0.134    0.014 -0.008 -0.004
 F          0.584 -0.177 -0.050   -0.014  0.000  0.021   -0.007  0.001 -0.002
 F         -0.229 -0.184  0.418   -0.005  0.018 -0.020    0.002  0.001 -0.001
 F         -0.157  0.302 -0.381    0.020 -0.002 -0.002    0.000 -0.003  0.004
 S         -0.000 -0.000 -0.003   -0.068  0.062 -0.188   -0.057 -0.046 -0.028
 C         -0.001  0.002 -0.007   -0.052  0.055 -0.197    0.258  0.233  0.051
 O         -0.001  0.005 -0.002    0.064  0.186 -0.146    0.048  0.062  0.048
 O          0.002 -0.001  0.006    0.147 -0.034  0.312    0.088 -0.120  0.064
 F          0.006  0.006  0.008    0.185 -0.033  0.373    0.176  0.450 -0.153
 F         -0.008 -0.010  0.003   -0.253 -0.253 -0.046    0.162 -0.216  0.432
 F          0.000  0.004 -0.010    0.119  0.244 -0.194   -0.350 -0.232 -0.275
 TransDip  -0.044  0.007  0.004    0.031 -0.041 -0.123   -0.017  0.062 -0.095

 Mode:                22                     23                     24
 Frequency:       575.07                 590.09                 691.68
 Force Cnst:      3.5759                 4.0918                 4.5577
 Red. Mass:      18.3522                19.9449                16.1691
 IR Active:          YES                    YES                    YES
 IR Intens:       63.646                222.171                 62.545
 Raman Active:       YES                    YES                    YES
               X      Y      Z        X      Y      Z        X      Y      Z
 S         -0.079  0.065 -0.046    0.037 -0.000  0.003    0.019 -0.031  0.028
 C          0.004  0.005  0.003    0.002 -0.001  0.003   -0.185 -0.540 -0.279
 N          0.342  0.035 -0.202   -0.196 -0.413 -0.141    0.075  0.091 -0.025
 O          0.034 -0.076  0.071   -0.008  0.016 -0.019   -0.012  0.004  0.010
 F         -0.004 -0.001 -0.003    0.004  0.002  0.001    0.013 -0.070  0.433
 F         -0.003 -0.002 -0.002   -0.001  0.002  0.003    0.392  0.104 -0.154
 F          0.001 -0.004  0.001   -0.003  0.004 -0.003   -0.286  0.310 -0.098
 S         -0.088  0.056  0.291   -0.304  0.400  0.112   -0.062 -0.004 -0.028
 C         -0.086  0.184 -0.213   -0.163  0.085  0.181   -0.020  0.027  0.019
 O         -0.060 -0.223  0.229    0.169 -0.301 -0.078    0.033  0.013 -0.008
 O          0.026 -0.028 -0.312    0.408  0.059 -0.053   -0.017 -0.041  0.002
 F          0.238  0.099  0.258    0.067 -0.069 -0.156    0.017  0.026 -0.009
 F         -0.305 -0.235 -0.033    0.117 -0.012 -0.140    0.008 -0.014 -0.009
 F          0.155  0.071 -0.343    0.032 -0.158  0.214   -0.003 -0.019  0.016
 TransDip  -0.146  0.150  0.146   -0.307  0.364  0.037   -0.139 -0.190 -0.095

 Mode:                25                     26                     27
 Frequency:       723.33                 771.39                 996.46
 Force Cnst:      5.7273                 6.6884                 8.9342
 Red. Mass:      18.5793                19.0776                15.2716
 IR Active:          YES                    YES                    YES
 IR Intens:      100.037                 23.873                793.887
 Raman Active:       YES                    YES                    YES
               X      Y      Z        X      Y      Z        X      Y      Z
 S          0.121 -0.205  0.157   -0.053  0.084 -0.064   -0.017  0.125 -0.182
 C          0.028  0.084  0.037   -0.003 -0.005 -0.002   -0.000 -0.036 -0.002
 N          0.369  0.537 -0.105   -0.107 -0.167  0.117    0.486 -0.311  0.660
 O         -0.077  0.048  0.052    0.033 -0.016 -0.030   -0.053  0.013  0.078
 F         -0.001  0.020 -0.090   -0.002 -0.005  0.013    0.004  0.016 -0.014
 F         -0.085 -0.014  0.040    0.013  0.000 -0.009   -0.011  0.006  0.010
 F          0.066 -0.060  0.027   -0.011  0.007 -0.005    0.006 -0.001  0.003
 S         -0.319 -0.015 -0.158    0.250 -0.123 -0.012   -0.098  0.033 -0.064
 C         -0.132  0.182  0.124   -0.227  0.213  0.133   -0.147  0.173  0.131
 O          0.188  0.101 -0.091   -0.086  0.036 -0.013   -0.016  0.066 -0.187
 O         -0.089 -0.255  0.042   -0.050  0.049  0.015   -0.080 -0.141  0.016
 F          0.145  0.173 -0.049    0.319  0.348 -0.064   -0.025 -0.097 -0.009
 F         -0.007 -0.091 -0.110   -0.341 -0.103 -0.368    0.046 -0.007  0.021
 F         -0.010 -0.133  0.155    0.000 -0.249  0.415    0.033  0.011 -0.087
 TransDip  -0.313 -0.061  0.035    0.156  0.007 -0.007   -0.486  0.456 -0.608

 Mode:                28                     29                     30
 Frequency:      1053.88                1065.22                1118.90
 Force Cnst:     12.3029                 9.7954                12.8139
 Red. Mass:      18.8008                14.6519                17.3718
 IR Active:          YES                    YES                    YES
 IR Intens:      216.418                192.556                299.829
 Raman Active:       YES                    YES                    YES
               X      Y      Z        X      Y      Z        X      Y      Z
 S          0.254 -0.076 -0.321   -0.010 -0.002  0.015   -0.065  0.030  0.073
 C          0.019  0.061  0.049    0.250  0.645  0.371    0.039  0.080  0.048
 N         -0.076  0.036 -0.060    0.009  0.011  0.011    0.220 -0.036  0.220
 O         -0.488  0.117  0.671    0.021 -0.003 -0.029    0.129 -0.024 -0.186
 F         -0.006 -0.023  0.016   -0.068 -0.267  0.190   -0.008 -0.031  0.020
 F          0.025 -0.017 -0.027    0.211 -0.150 -0.233    0.021 -0.017 -0.025
 F         -0.031  0.001 -0.021   -0.302  0.006 -0.197   -0.037 -0.001 -0.024
 S         -0.008 -0.056 -0.063    0.008  0.023  0.032   -0.215 -0.115 -0.271
 C          0.096 -0.069  0.018   -0.024  0.035  0.008    0.407 -0.190  0.041
 O         -0.039 -0.069  0.160    0.017  0.031 -0.075   -0.072 -0.173  0.403
 O          0.096  0.191 -0.008   -0.039 -0.080  0.004    0.255  0.430 -0.008
 F          0.002  0.029  0.001   -0.002 -0.016 -0.001   -0.011  0.066  0.002
 F         -0.051  0.008 -0.027    0.012 -0.003  0.005   -0.158  0.020 -0.083
 F         -0.008  0.001  0.013    0.004 -0.001 -0.008   -0.043  0.005  0.050
 TransDip   0.160 -0.061 -0.439    0.134  0.327  0.270   -0.152 -0.185 -0.500

 Mode:                31                     32                     33
 Frequency:      1171.29                1185.22                1205.37
 Force Cnst:     10.7970                10.9858                11.4092
 Red. Mass:      13.3573                13.2735                13.3281
 IR Active:          YES                    YES                    YES
 IR Intens:      678.655                217.506                442.779
 Raman Active:       YES                    YES                    YES
               X      Y      Z        X      Y      Z        X      Y      Z
 S          0.002 -0.007  0.005   -0.003  0.000  0.004    0.000 -0.002  0.004
 C          0.085 -0.077  0.022   -0.053  0.073 -0.096    0.776 -0.387  0.182
 N         -0.071  0.027 -0.070   -0.014 -0.001 -0.009   -0.008  0.008 -0.007
 O         -0.004 -0.001  0.010    0.008 -0.003 -0.002    0.002  0.001 -0.003
 F          0.001  0.024 -0.018   -0.005 -0.035  0.032   -0.023  0.099 -0.080
 F         -0.026  0.016  0.020    0.004 -0.004  0.004   -0.181  0.095  0.125
 F         -0.030  0.008 -0.016    0.035 -0.008  0.025   -0.285  0.049 -0.160
 S          0.026  0.024  0.063    0.023  0.065 -0.003    0.008 -0.003 -0.015
 C          0.629  0.379  0.494   -0.138 -0.619  0.634   -0.123 -0.094  0.027
 O          0.029  0.040 -0.105    0.018 -0.010 -0.028   -0.006 -0.010  0.025
 O         -0.047 -0.115 -0.004   -0.051 -0.077  0.009    0.002  0.015  0.002
 F         -0.100 -0.210 -0.037    0.072  0.229 -0.028    0.021  0.044  0.001
 F         -0.256 -0.004 -0.155   -0.064  0.043 -0.077    0.033  0.003  0.013
 F         -0.016 -0.008 -0.101    0.078  0.086 -0.273    0.016  0.011 -0.028
 TransDip   0.597  0.215  0.541   -0.087 -0.283  0.368    0.546 -0.366  0.148

 Mode:                34                     35                     36
 Frequency:      1212.89                1220.01                1291.00
 Force Cnst:     11.5728                12.4910                20.0790
 Red. Mass:      13.3519                14.2437                20.4473
 IR Active:          YES                    YES                    YES
 IR Intens:      517.905                185.644                565.687
 Raman Active:       YES                    YES                    YES
               X      Y      Z        X      Y      Z        X      Y      Z
 S         -0.002  0.002  0.002    0.005  0.019 -0.041    0.009 -0.004  0.002
 C         -0.338 -0.305  0.763    0.081  0.002 -0.100   -0.000  0.012 -0.015
 N          0.009 -0.002  0.003    0.095 -0.069  0.084   -0.018 -0.015  0.008
 O          0.003 -0.003 -0.004   -0.026  0.004  0.037   -0.007  0.002  0.007
 F          0.068  0.235 -0.233   -0.009 -0.020  0.023   -0.001 -0.007  0.006
 F          0.168 -0.064 -0.184   -0.036  0.017  0.035   -0.001 -0.000  0.002
 F         -0.024  0.021 -0.065   -0.007  0.001  0.003    0.002 -0.001  0.002
 S         -0.003  0.030  0.010   -0.058  0.150  0.121    0.199  0.374 -0.318
 C          0.041 -0.126  0.001    0.515 -0.479 -0.427    0.013  0.094 -0.049
 O          0.007  0.003 -0.018    0.051  0.058 -0.201   -0.127 -0.254  0.577
 O         -0.020 -0.043  0.001   -0.099 -0.241 -0.004   -0.257 -0.472  0.033
 F          0.011  0.049  0.002    0.012  0.181  0.034   -0.009 -0.048 -0.001
 F         -0.022  0.010 -0.010   -0.159  0.044 -0.042    0.007 -0.007  0.007
 F         -0.005  0.008  0.004   -0.097 -0.005  0.225   -0.013 -0.007  0.032
 TransDip  -0.229 -0.276  0.634    0.381 -0.100 -0.187    0.269  0.543 -0.462

 STANDARD THERMODYNAMIC QUANTITIES AT   298.15 K  AND     1.00 ATM

   This Molecule has  3 Imaginary Frequencies
   Zero point vibrational energy:       27.953 kcal/mol

   Atom    1 Element S  Has Mass   31.97207
   Atom    2 Element C  Has Mass   12.00000
   Atom    3 Element N  Has Mass   14.00307
   Atom    4 Element O  Has Mass   15.99491
   Atom    5 Element F  Has Mass   18.99840
   Atom    6 Element F  Has Mass   18.99840
   Atom    7 Element F  Has Mass   18.99840
   Atom    8 Element S  Has Mass   31.97207
   Atom    9 Element C  Has Mass   12.00000
   Atom   10 Element O  Has Mass   15.99491
   Atom   11 Element O  Has Mass   15.99491
   Atom   12 Element F  Has Mass   18.99840
   Atom   13 Element F  Has Mass   18.99840
   Atom   14 Element F  Has Mass   18.99840
   Molecular Mass:   263.922340 amu
   Principal axes and moments of inertia in amu*Bohr^2:
                             1           2           3
    Eigenvalues --     2556.75084  4320.11624  5243.88009
          X               0.65555    -0.40088    -0.63996
          Y               0.40235     0.90257    -0.15323
          Z               0.63904    -0.15704     0.75297
   Rotational Symmetry Number is   1
   The Molecule is an Asymmetric Top
   Translational Enthalpy:        0.889 kcal/mol
   Rotational Enthalpy:           0.889 kcal/mol
   Vibrational Enthalpy:         34.454 kcal/mol
   gas constant (RT):             0.592 kcal/mol
   Translational Entropy:        42.611  cal/mol.K
   Rotational Entropy:           32.426  cal/mol.K
   Vibrational Entropy:          49.219  cal/mol.K

   Total Enthalpy:               36.824 kcal/mol
   Total Entropy:               124.256  cal/mol.K
Archival summary:
1\1\nid02700\FREQ\ProcedureUnspecified\BasisUnspecified\26312(1-,3)\sblau\WedNov1402:13:592018WedNov1402:13:592018\0\\#,FREQ,ProcedureUnspecified,BasisUnspecified,\\-1,3\S\O,1,1.45679\O,1,1.4613,2,117.804\N,1,1.58161,2,110.243,3,136.017,0\S,4,1.65146,1,123.263,2,-150.457,0\O,5,1.50818,4,112.487,1,-75.2541,0\C,1,1.87142,2,102.434,3,-112.717,0\F,7,1.32921,1,111.204,2,-177.63,0\F,7,1.3325,1,110.869,2,-56.8865,0\F,7,1.33536,1,109.749,2,62.5472,0\C,4,3.0542,1,126.425,2,89.9964,0\F,11,1.31836,4,97.3489,1,-66.8091,0\F,11,1.3199,4,115.915,1,50.7108,0\F,11,1.322,4,110.55,1,177.804,0\\\@

 Total job time:  3461.86s(wall), 11492.18s(cpu) 
 Wed Nov 14 02:13:59 2018

        *************************************************************
        *                                                           *
        *  Thank you very much for using Q-Chem.  Have a nice day.  *
        *                                                           *
        *************************************************************


