
Running Job 1 of 1 mol.qin
qchem mol.qin_45379.0 /tmp/qchem45379/ 1
/global/common/edison/software/qchem/5.1/exe/qcprog.exe mol.qin_45379.0 /tmp/qchem45379/
Check license passed

                  Welcome to Q-Chem
     A Quantum Leap Into The Future Of Chemistry


 Q-Chem 5.1, Q-Chem, Inc., Pleasanton, CA (2018)

 Yihan Shao,  Zhengting Gan,  E. Epifanovsky,  A. T. B. Gilbert,  M. Wormit,  
 J. Kussmann,  A. W. Lange,  A. Behn,  Jia Deng,  Xintian Feng,  D. Ghosh,  
 M. Goldey,  P. R. Horn,  L. D. Jacobson,  I. Kaliman,  T. Kus,  A. Landau,  
 Jie Liu,  E. I. Proynov,  R. M. Richard,  R. P. Steele,  E. J. Sundstrom,  
 H. L. Woodcock III,  P. M. Zimmerman,  D. Zuev,  B. Albrecht,  E. Alguire,  
 S. A. Baeppler,  D. Barton,  Z. Benda,  Y. A. Bernard,  E. J. Berquist,  
 K. B. Bravaya,  H. Burton,  D. Casanova,  Chun-Min Chang,  Yunqing Chen,  
 A. Chien,  K. D. Closser,  M. P. Coons,  S. Coriani,  S. Dasgupta,  
 A. L. Dempwolff,  M. Diedenhofen,  Hainam Do,  R. G. Edgar,  Po-Tung Fang,  
 S. Faraji,  S. Fatehi,  Qingguo Feng,  K. D. Fenk,  J. Fosso-Tande,  
 Qinghui Ge,  A. Ghysels,  G. Gidofalvi,  J. Gomes,  J. Gonthier,  A. Gunina,  
 D. Hait,  M. W. D. Hanson-Heine,  P. H. P. Harbach,  A. W. Hauser,  
 J. E. Herr,  E. G. Hohenstein,  Z. C. Holden,  Kerwin Hui,  B. C. Huynh,  
 T.-C. Jagau,  Hyunjun Ji,  B. Kaduk,  K. Khistyaev,  Jaehoon Kim,  
 P. Klunzinger,  K. Koh,  D. Kosenkov,  L. Koulias,  T. Kowalczyk,  
 C. M. Krauter,  A. Kunitsa,  Ka Un Lao,  A. Laurent,  K. V. Lawler,  
 Joonho Lee,  D. Lefrancois,  S. Lehtola,  D. S. Levine,  Yi-Pei Li,  
 You-Sheng Lin,  Fenglai Liu,  E. Livshits,  A. Luenser,  P. Manohar,  
 E. Mansoor,  S. F. Manzer,  Shan-Ping Mao,  Yuezhi Mao,  N. Mardirossian,  
 A. V. Marenich,  T. Markovich,  L. A. Martinez-Martinez,  S. A. Maurer,  
 N. J. Mayhall,  S. C. McKenzie,  J.-M. Mewes,  A. F. Morrison,  
 J. W. Mullinax,  K. Nanda,  T. S. Nguyen-Beck,  R. Olivares-Amaya,  
 J. A. Parkhill,  T. M. Perrine,  F. Plasser,  P. Pokhilko,  S. Prager,  
 A. Prociuk,  E. Ramos,  D. R. Rehn,  F. Rob,  M. Schneider,  N. Sergueev,  
 S. M. Sharada,  S. Sharma,  D. W. Small,  T. Stauch,  T. Stein,  
 Yu-Chuan Su,  A. J. W. Thom,  A. Tkatchenko,  T. Tsuchimochi,  N. M. Tubman,  
 L. Vogt,  M. L. Vidal,  O. Vydrov,  M. A. Watson,  J. Wenzel,  
 M. de Wergifosse,  T. A. Wesolowski,  A. White,  J. Witte,  A. Yamada,  
 Jun Yang,  K. Yao,  S. Yeganeh,  S. R. Yost,  Zhi-Qiang You,  A. Zech,  
 Igor Ying Zhang,  Xing Zhang,  Yan Zhao,  Ying Zhu,  B. R. Brooks,  
 G. K. L. Chan,  C. J. Cramer,  M. S. Gordon,  W. J. Hehre,  A. Klamt,  
 M. W. Schmidt,  C. D. Sherrill,  D. G. Truhlar,  A. Aspuru-Guzik,  R. Baer,  
 A. T. Bell,  N. A. Besley,  Jeng-Da Chai,  R. A. DiStasio Jr.,  A. Dreuw,  
 B. D. Dunietz,  T. R. Furlani,  Chao-Ping Hsu,  Yousung Jung,  Jing Kong,  
 D. S. Lambrecht,  WanZhen Liang,  C. Ochsenfeld,  V. A. Rassolov,  
 L. V. Slipchenko,  J. E. Subotnik,  T. Van Voorhis,  J. M. Herbert,  
 A. I. Krylov,  P. M. W. Gill,  M. Head-Gordon

 Contributors to earlier versions of Q-Chem not listed above: 
 R. D. Adamson,  B. Austin,  J. Baker,  G. J. O. Beran,  K. Brandhorst,  
 S. T. Brown,  E. F. C. Byrd,  A. K. Chakraborty,  C.-L. Cheng,  
 Siu Hung Chien,  D. M. Chipman,  D. L. Crittenden,  H. Dachsel,  
 R. J. Doerksen,  A. D. Dutoi,  L. Fusti-Molnar,  W. A. Goddard III,  
 A. Golubeva-Zadorozhnaya,  S. R. Gwaltney,  G. Hawkins,  A. Heyden,  
 S. Hirata,  G. Kedziora,  F. J. Keil,  C. Kelley,  Jihan Kim,  R. A. King,  
 R. Z. Khaliullin,  P. P. Korambath,  W. Kurlancheek,  A. M. Lee,  M. S. Lee,  
 S. V. Levchenko,  Ching Yeh Lin,  D. Liotard,  R. C. Lochan,  I. Lotan,  
 P. E. Maslen,  N. Nair,  D. P. O'Neill,  D. Neuhauser,  E. Neuscamman,  
 C. M. Oana,  R. Olson,  B. Peters,  R. Peverati,  P. A. Pieniazek,  
 Y. M. Rhee,  J. Ritchie,  M. A. Rohrdanz,  E. Rosta,  N. J. Russ,  
 H. F. Schaefer III,  N. E. Schultz,  N. Shenvi,  A. C. Simmonett,  A. Sodt,  
 D. Stuck,  K. S. Thanthiriwatte,  V. Vanovschi,  Tao Wang,  A. Warshel,  
 C. F. Williams,  Q. Wu,  X. Xu,  W. Zhang

 Please cite Q-Chem as follows:
 Y. Shao et al., Mol. Phys. 113, 184-215 (2015)
 DOI: 10.1080/00268976.2014.952696

 Q-Chem 5.1.0 for Intel X86 EM64T Linux

 Parts of Q-Chem use Armadillo 8.300.2 (Tropical Shenanigans).
 http://arma.sourceforge.net/

 Q-Chem begins on Tue Nov 13 18:51:29 2018  

Host: edison03
0

     Scratch files written to /tmp/qchem45379//
 Jun2518 |scratch|qcdevops|jenkins|workspace|build_RNUM -1
Processing $rem in /global/common/edison/software/qchem/5.1/config/preferences.
 MEM_TOTAL  48000 
Symmetry turned off for PCM/SM12/SMD calculation

Checking the input file for inconsistencies... 	...done.

--------------------------------------------------------------
User input:
--------------------------------------------------------------
$molecule
-1 3
S      1.1818189572      0.0176443993     -0.2229264878
C      0.8202051049      1.3794765794      1.0078204697
O      1.0280700588     -1.2125689799      0.5335477805
O      2.4963498827      0.3599595113     -0.7318384144
F      0.8639258928      2.5657414574      0.4111060833
F     -0.3799582115      1.2177756073      1.5522175822
F      1.7354899995      1.3526562438      1.9734093063
$end

$rem
job_type = opt
basis = 6-311++g*
max_scf_cycles = 200
gen_scfman = true
scf_algorithm = gdm
method = wb97xd
geom_opt_max_cycles = 200
solvent_method = pcm
xc_grid = 3
$end

$pcm
heavypoints 194
hpoints 194
radii uff
theory cpcm
vdwscale 1.1
$end

$solvent
dielectric 30.0
$end
--------------------------------------------------------------
 ----------------------------------------------------------------
             Standard Nuclear Orientation (Angstroms)
    I     Atom           X                Y                Z
 ----------------------------------------------------------------
    1      S       1.1818189572     0.0176443993    -0.2229264878
    2      C       0.8202051049     1.3794765794     1.0078204697
    3      O       1.0280700588    -1.2125689799     0.5335477805
    4      O       2.4963498827     0.3599595113    -0.7318384144
    5      F       0.8639258928     2.5657414574     0.4111060833
    6      F      -0.3799582115     1.2177756073     1.5522175822
    7      F       1.7354899995     1.3526562438     1.9734093063
 ----------------------------------------------------------------
 Nuclear Repulsion Energy =   435.0093025603 hartrees
 There are       34 alpha and       32 beta electrons
 Requested basis set is 6-311++G(d)
 There are 49 shells and 162 basis functions

 Total QAlloc Memory Limit  48000 MB
 Mega-Array Size       188 MB
 MEM_STATIC part       192 MB
 Discretize the solute cavity surface with Lebedev spheres
	Using 194 Lebedev grid points for each H atom
	Using 194 Lebedev grid points for other atoms
	Atomic van der Waals radii will be scaled by 1.10
 Remove points where switching function is < 1.0e-08
 Keep 721 surface tesserae and discard 637 interior tesserae
 Molecular Surface Area = 134.834 Angst**2
 A cutoff of  1.0D-12 yielded   1096 shell pairs
 There are     12484 function pairs (     13569 Cartesian)
 
 -------------------------------------------------------
 OpenMP Integral Computing Module                       
 Release: version 1.0, May 2013, Q-Chem Inc. Pittsburgh 
 -------------------------------------------------------
 Integral Job Info:
 Integral job number is                      11
 Integral operator is                         1
 short-range coefficients              22203600
 long-range coefficients              100000000
 Omega coefficients                         200
 if combine SR and LR in K                    1
 Integral screening is                        0
 Integral computing path is                   2
 max size of driver memory is            800000
 size of driver memory is                593474
 size of scratch memory is              4293864
 max col of scratch BK array               1296
 max len of scratch array in speh3          155
 max len of scratch index in speh4           18
 max int batch size is                      520
 min int batch size is                       52
 fixed nKL is                                52
 max L of basis functions is                  2
 order of int derivative is                   0
 number of shells is                         49
 number of basis is                         169
 number of cartesian basis is               169
 number of contracted shell pairs          1096
 number of primitive shell pairs           3263
 maxK2 (contraction) of shell pair           36
 max number of K2 of shell pair               1
 max number of CS2 of shell pair            199
 max number of PS2 of shell pair            738
 mem total for path MDJ                  531772
 -------------------------------------------------------
 Smallest overlap matrix eigenvalue = 3.80E-04

 Scale SEOQF with 1.000000e-01/1.000000e-01/1.000000e-01

 Standard Electronic Orientation quadrupole field applied
 Nucleus-field energy     =     0.0000000047 hartrees
 Guess from superposition of atomic densities
 Warning:  Energy on first SCF cycle will be non-variational
 SAD guess density has 65.000000 electrons

 -----------------------------------------------------------------------
  General SCF calculation program by
  Eric Jon Sundstrom, Paul Horn, Yuezhi Mao, Dmitri Zuev, Alec White,
  David Stuck, Shaama M.S., Shane Yost, Joonho Lee, David Small,
  Daniel Levine, Susi Lehtola, Hugh Burton, Evgeny Epifanovsky
 -----------------------------------------------------------------------
 Exchange:     0.2220 Hartree-Fock + 1.0000 wB97X-D + LR-HF
 Correlation:  1.0000 wB97X-D
 Using SG-3 standard quadrature grid
 Dispersion:   Grimme D
 using 24 threads for integral computing
 -------------------------------------------------------
 OpenMP Integral computing Module                
 Release: version 1.0, May 2013, Q-Chem Inc. Pittsburgh 
 -------------------------------------------------------
 using 24 threads for integral computing
 -------------------------------------------------------
 OpenMP Integral computing Module                
 Release: version 1.0, May 2013, Q-Chem Inc. Pittsburgh 
 -------------------------------------------------------
 -------------------------------------------------------
 OpenMP BLAS3 based DFT computing Module                
 Release: version 1.0, May 2013, Q-Chem Inc. Pittsburgh 
 -------------------------------------------------------
 A unrestricted SCF calculation will be
 performed using Roothaan-Hall, GDM
 SCF converges when RMS gradient is below 1.0e-08
 ---------------------------------------
  Cycle       Energy         DIIS error
 ---------------------------------------
    1    -887.6282820762      2.56e-02  Roothaan Step
 ---------------------------------------
  Cycle       Energy        RMS Gradient
 ---------------------------------------
    1    -885.8634458647      2.39e-01   Descent step
    2    -886.1334224336      5.48e-02   Normal BFGS step
    3    -886.1750884576      1.90e-02   Normal BFGS step
    4    -886.1790150976      1.36e-02   Normal BFGS step
    5    -886.1813794534      1.49e-02   Normal BFGS step
    6    -886.1822934331      1.33e-02   Normal BFGS step
    7    -886.1830416826      3.93e-03   Normal BFGS step
    8    -886.1831628630      4.57e-03   Normal BFGS step
    9    -886.1832523450      2.34e-03   Normal BFGS step
   10    -886.1832765226      1.01e-03   Normal BFGS step
   11    -886.1832892740      7.96e-04   Normal BFGS step
   12    -886.1832965031      5.73e-04   Normal BFGS step
   13    -886.1832983433      3.26e-04   Normal BFGS step
   14    -886.1832988138      1.78e-04   Normal BFGS step
   15    -886.1832989676      7.70e-05   Normal BFGS step
   16    -886.1832989950      3.43e-05   Normal BFGS step
   17    -886.1832990024      1.42e-05   Normal BFGS step
   18    -886.1832990038      6.67e-06   Normal BFGS step
   19    -886.1832990041      3.76e-06   Normal BFGS step
   20    -886.1832990042      2.40e-06   Normal BFGS step
   21    -886.1832990042      1.72e-06   Normal BFGS step
   22    -886.1832990042      1.21e-06   Normal BFGS step
   23    -886.1832990043      5.67e-07   Normal BFGS step
   24    -886.1832990043      2.31e-07   Normal BFGS step
   25    -886.1832990043      1.88e-07   Normal BFGS step
   26    -886.1832990043      8.90e-08   Normal BFGS step
   27    -886.1832990043      4.03e-08   Normal BFGS step
   28    -886.1832990043      1.98e-08   Normal BFGS step
   29    -886.1832990043      9.69e-09  Convergence criterion met
 ---------------------------------------
 SCF time:   CPU 781.45s  wall 39.00s 
<S^2> =          2.006474117

************** Final PCM Free Energy Summary **************
 G_electrostatic  =      -0.08728117 hartree =     -54.76976267 kcal/mol
 G_cavitation     =       0.00000000 hartree =       0.00000000 kcal/mol
 G_dispersion     =       0.00000000 hartree =       0.00000000 kcal/mol
 G_repulsion      =       0.00000000 hartree =       0.00000000 kcal/mol
 --------------------------------------------------
 Non-electrostatic Free Energy =       0.00000000 hartree =       0.00000000 kcal/mol
 Total                         =      -0.08728117 hartree =     -54.76976267 kcal/mol
 --------------------------------------------------
 SCF Energy (H0 + V/2)                       =    -886.18329900 
 Solute Internal Energy (H0)                 =    -886.09601783 
 Total Free Energy (H0 + V/2 + non-elec)     =    -886.18329900 hartree
                                             = -556088.41316719 kcal/mol
***********************************************************

 SCF   energy in the final basis set =     -886.1832990043
 Total energy in the final basis set =     -886.1832990043
 
 --------------------------------------------------------------
 
                    Orbital Energies (a.u.)
 --------------------------------------------------------------
 
 Alpha MOs
 -- Occupied --
-89.164 -24.862 -24.861 -24.851 -19.257 -19.256 -10.556  -8.196
 -6.144  -6.144  -6.142  -1.450  -1.360  -1.355  -1.223  -1.126
 -0.854  -0.765  -0.713  -0.712  -0.664  -0.589  -0.584  -0.568
 -0.559  -0.550  -0.545  -0.536  -0.521  -0.443  -0.426  -0.415
 -0.340  -0.109
 -- Virtual --
  0.085   0.087   0.093   0.104   0.129   0.132   0.136   0.159
  0.163   0.196   0.228   0.240   0.256   0.278   0.285   0.296
  0.305   0.306   0.325   0.328   0.334   0.346   0.361   0.383
  0.389   0.396   0.398   0.409   0.425   0.439   0.442   0.462
  0.479   0.499   0.520   0.542   0.639   0.666   0.754   0.790
  0.903   0.918   0.925   1.062   1.072   1.133   1.163   1.188
  1.193   1.208   1.234   1.240   1.266   1.272   1.400   1.428
  1.448   1.487   1.496   1.511   1.520   1.548   1.562   1.617
  1.677   1.729   1.803   1.901   1.906   1.954   1.968   1.992
  2.003   2.200   2.826   2.885   2.891   2.905   2.916   2.970
  2.973   2.981   3.100   3.120   3.213   3.538   3.668   3.781
  3.816   3.818   3.819   3.842   3.848   3.863   3.948   3.952
  4.199   4.273   4.276   4.440   4.997   5.000   5.056   5.079
  5.129   5.132   5.198   5.364   6.357   6.361   6.431   6.441
  6.464   6.469   6.490   6.853   6.854   8.194  17.415  17.492
 17.609  23.589  49.977  49.991  66.879  66.879  66.936 189.428
 
 Beta MOs
 -- Occupied --
-89.160 -24.861 -24.861 -24.849 -19.248 -19.248 -10.550  -8.192
 -6.142  -6.138  -6.135  -1.447  -1.359  -1.351  -1.205  -1.105
 -0.837  -0.748  -0.709  -0.706  -0.638  -0.582  -0.582  -0.551
 -0.550  -0.535  -0.535  -0.520  -0.515  -0.406  -0.402  -0.392
 -- Virtual --
 -0.074   0.085   0.098   0.107   0.121   0.143   0.154   0.154
  0.171   0.184   0.186   0.221   0.236   0.247   0.273   0.286
  0.297   0.299   0.317   0.330   0.332   0.333   0.345   0.351
  0.379   0.389   0.400   0.401   0.412   0.413   0.429   0.447
  0.448   0.464   0.490   0.503   0.527   0.545   0.653   0.678
  0.762   0.813   0.923   0.934   0.936   1.070   1.079   1.154
  1.175   1.203   1.208   1.217   1.240   1.250   1.279   1.284
  1.404   1.429   1.449   1.488   1.499   1.516   1.523   1.552
  1.565   1.626   1.689   1.746   1.819   1.912   1.913   1.966
  1.969   1.992   2.018   2.204   2.845   2.901   2.911   2.928
  2.935   2.978   2.988   3.004   3.115   3.140   3.224   3.553
  3.682   3.782   3.817   3.820   3.821   3.844   3.850   3.865
  3.951   3.954   4.201   4.276   4.279   4.444   5.001   5.002
  5.072   5.107   5.144   5.158   5.208   5.375   6.359   6.362
  6.432   6.442   6.465   6.470   6.494   6.854   6.857   8.199
 17.424  17.497  17.611  23.597  49.985  49.999  66.879  66.880
 66.937 189.432
 --------------------------------------------------------------
 
          Ground-State Mulliken Net Atomic Charges

     Atom                 Charge (a.u.)    Spin (a.u.)
  --------------------------------------------------------
      1 S                    -0.088512       1.395402
      2 C                    -0.361346       0.595183
      3 O                    -0.164784       0.010479
      4 O                    -0.158795       0.005783
      5 F                    -0.084974       0.003474
      6 F                    -0.083466       0.003529
      7 F                    -0.058122      -0.013851
  --------------------------------------------------------
  Sum of atomic charges =    -1.000000
  Sum of spin   charges =     2.000000

 -----------------------------------------------------------------
                    Cartesian Multipole Moments
 -----------------------------------------------------------------
    Charge (ESU x 10^10)
                -4.8032
    Dipole Moment (Debye)
         X      -7.8160      Y       3.5645      Z       3.1769
       Tot       9.1590
    Quadrupole Moments (Debye-Ang)
        XX     -65.2818     XY       1.9641     YY     -57.7890
        XZ       6.1983     YZ      -3.6871     ZZ     -60.0548
    Octopole Moments (Debye-Ang^2)
       XXX    -205.6691    XXY     -28.0484    XYY     -66.2589
       YYY     -73.4203    XXZ      -4.5217    XYZ      -3.6185
       YYZ     -14.5119    XZZ     -70.4187    YZZ     -19.5629
       ZZZ     -40.5590
    Hexadecapole Moments (Debye-Ang^3)
      XXXX    -689.5354   XXXY     -79.6367   XXYY    -199.2615
      XYYY     -64.0108   YYYY    -525.6120   XXXZ      15.4818
      XXYZ     -41.8083   XYYZ      -2.0080   YYYZ    -112.3009
      XXZZ    -188.1427   XYZZ     -18.8689   YYZZ    -156.4832
      XZZZ      -4.2004   YZZZ    -123.7317   ZZZZ    -413.2484
 -----------------------------------------------------------------
 Calculating analytic gradient of the SCF energy
 Gradient of SCF Energy
            1           2           3           4           5           6
    1   0.0217020   0.0117621   0.0164047  -0.0513017   0.0024908   0.0203910
    2  -0.0019420  -0.0270455   0.0578604  -0.0119276  -0.0149446   0.0043193
    3   0.0194612  -0.0210706  -0.0188502   0.0394662   0.0141768  -0.0022601
            7
    1  -0.0214490
    2  -0.0063200
    3  -0.0309232
 Max gradient component =       5.786E-02
 RMS gradient           =       2.469E-02
 Computing fast CPCM-SWIG gradient
 Updating gradient with PCM contributions...
 -- total gradient after adding PCM contribution --
---------------------------------------------------
  Atom         X              Y              Z     
---------------------------------------------------
   1       0.043378       0.022006       0.073647
   2      -0.012877       0.000546      -0.014613
   3       0.017204       0.024951      -0.044567
   4      -0.041867      -0.035812       0.006471
   5       0.001162       0.000330       0.002293
   6       0.001974       0.000850       0.001799
   7      -0.008974      -0.012871      -0.025030
---------------------------------------------------
 Number of fixed atoms: 0
 Gradient time:  CPU 52.60 s  wall 4.65 s
 Geometry Optimization Parameters
   NAtoms,    NIC,     NZ,  NCons,   NDum,   NFix, NCnnct, MaxDiis
        7      35       0       0       0       0       0       0


** GEOMETRY OPTIMIZATION IN DELOCALIZED INTERNAL COORDINATES **
   Searching for a Minimum

   Optimization Cycle:   1

                       Coordinates (Angstroms)
     ATOM                X               Y               Z
      1  S         1.1818189572    0.0176443993   -0.2229264878
      2  C         0.8202051049    1.3794765794    1.0078204697
      3  O         1.0280700588   -1.2125689799    0.5335477805
      4  O         2.4963498827    0.3599595113   -0.7318384144
      5  F         0.8639258928    2.5657414574    0.4111060833
      6  F        -0.3799582115    1.2177756073    1.5522175822
      7  F         1.7354899995    1.3526562438    1.9734093063
   Point Group: c1    Number of degrees of freedom:    15


   Energy is   -886.183299004


 Attempting to Generate Delocalized Internal Coordinates

 15 Hessian modes will be used to form the next step
  Hessian Eigenvalues:
     0.002000    0.070129    0.108605    0.111435    0.212451    0.250000
     0.250000    0.250000    0.250000    0.250000    0.593349    0.598352
     0.600414    0.948983    0.956840

 Minimum Search - Taking Simple RFO Step
 Searching for Lamda that Minimizes Along All modes
 Value Taken    Lamda =  -0.04323208
 Calculated Step too Large.  Step scaled by  0.767583
 Step Taken.  Stepsize is  0.300000

                             Maximum     Tolerance    Cnvgd?
         Gradient           0.064668      0.000300      NO
         Displacement       0.160829      0.001200      NO
         Energy change     *********      0.000001      NO


 New Cartesian Coordinates Obtained by Inverse Iteration

 Displacement from previous Coordinates is:  0.433172
 ----------------------------------------------------------------
             Standard Nuclear Orientation (Angstroms)
    I     Atom           X                Y                Z
 ----------------------------------------------------------------
    1      S       1.1447064775    -0.0267076892    -0.3231684236
    2      C       0.8554763700     1.3342912109     0.9928352463
    3      O       0.9757093406    -1.1417120123     0.6216718983
    4      O       2.4827334033     0.4644525403    -0.6842507480
    5      F       0.8855300459     2.5208486507     0.3948997106
    6      F      -0.3513233828     1.1770765150     1.5255389523
    7      F       1.7530694300     1.3524356032     1.9958096840
 ----------------------------------------------------------------
 Nuclear Repulsion Energy =   434.5681500120 hartrees
 There are       34 alpha and       32 beta electrons
 Discretize the solute cavity surface with Lebedev spheres
	Using 194 Lebedev grid points for each H atom
	Using 194 Lebedev grid points for other atoms
	Atomic van der Waals radii will be scaled by 1.10
 Remove points where switching function is < 1.0e-08
 Keep 700 surface tesserae and discard 658 interior tesserae
 Molecular Surface Area = 134.120 Angst**2
 Applying Cartesian multipole field
    Component          Value
    ---------          -----
     (2,0,0)        1.00000E-11
     (0,2,0)        2.00000E-11
     (0,0,2)       -3.00000E-11
 Nucleus-field energy     =     0.0000000042 hartrees
 Requested basis set is 6-311++G(d)
 There are 49 shells and 162 basis functions
 A cutoff of  1.0D-12 yielded   1103 shell pairs
 There are     12592 function pairs (     13697 Cartesian)
 Smallest overlap matrix eigenvalue = 3.78E-04
 Guess MOs from SCF MO coefficient file
 Reading MOs from coefficient file
 Reading MOs from coefficient file

 -----------------------------------------------------------------------
  General SCF calculation program by
  Eric Jon Sundstrom, Paul Horn, Yuezhi Mao, Dmitri Zuev, Alec White,
  David Stuck, Shaama M.S., Shane Yost, Joonho Lee, David Small,
  Daniel Levine, Susi Lehtola, Hugh Burton, Evgeny Epifanovsky
 -----------------------------------------------------------------------
 Exchange:     0.2220 Hartree-Fock + 1.0000 wB97X-D + LR-HF
 Correlation:  1.0000 wB97X-D
 Using SG-3 standard quadrature grid
 Dispersion:   Grimme D
 using 24 threads for integral computing
 -------------------------------------------------------
 OpenMP Integral computing Module                
 Release: version 1.0, May 2013, Q-Chem Inc. Pittsburgh 
 -------------------------------------------------------
 using 24 threads for integral computing
 -------------------------------------------------------
 OpenMP Integral computing Module                
 Release: version 1.0, May 2013, Q-Chem Inc. Pittsburgh 
 -------------------------------------------------------
 -------------------------------------------------------
 OpenMP BLAS3 based DFT computing Module                
 Release: version 1.0, May 2013, Q-Chem Inc. Pittsburgh 
 -------------------------------------------------------
 A unrestricted SCF calculation will be
 performed using Roothaan-Hall, GDM
 SCF converges when RMS gradient is below 1.0e-08
 ---------------------------------------
  Cycle       Energy         DIIS error
 ---------------------------------------
    1    -876.3783519222      1.41e-03  Roothaan Step
 ---------------------------------------
  Cycle       Energy        RMS Gradient
 ---------------------------------------
    1    -886.2010379151      5.30e-02   Normal BFGS step
    2    -886.2088624776      3.87e-02   Normal BFGS step
    3    -886.2136184255      1.44e-02   Normal BFGS step
    4    -886.2150166825      7.89e-03   Normal BFGS step
    5    -886.2155166831      2.86e-03   Normal BFGS step
    6    -886.2156020286      1.69e-03   Normal BFGS step
    7    -886.2156306813      8.70e-04   Normal BFGS step
    8    -886.2156349827      2.69e-04   Normal BFGS step
    9    -886.2156360023      2.86e-04   Normal BFGS step
   10    -886.2156360892      2.33e-04   Normal BFGS step
   11    -886.2156362702      8.68e-05   Normal BFGS step
   12    -886.2156362886      5.54e-05   Normal BFGS step
   13    -886.2156362993      1.57e-05   Normal BFGS step
   14    -886.2156363008      8.13e-06   Normal BFGS step
   15    -886.2156363013      3.69e-06   Normal BFGS step
   16    -886.2156363013      1.62e-06   Normal BFGS step
   17    -886.2156363014      5.89e-07   Normal BFGS step
   18    -886.2156363014      1.88e-07   Normal BFGS step
   19    -886.2156363014      7.34e-08   Normal BFGS step
   20    -886.2156363014      2.67e-08   Normal BFGS step
   21    -886.2156363014      1.33e-08   Normal BFGS step
   22    -886.2156363014      6.83e-09  Convergence criterion met
 ---------------------------------------
 SCF time:   CPU 577.38s  wall 28.00s 
<S^2> =          2.009114948

************** Final PCM Free Energy Summary **************
 G_electrostatic  =      -0.08557085 hartree =     -53.69651785 kcal/mol
 G_cavitation     =       0.00000000 hartree =       0.00000000 kcal/mol
 G_dispersion     =       0.00000000 hartree =       0.00000000 kcal/mol
 G_repulsion      =       0.00000000 hartree =       0.00000000 kcal/mol
 --------------------------------------------------
 Non-electrostatic Free Energy =       0.00000000 hartree =       0.00000000 kcal/mol
 Total                         =      -0.08557085 hartree =     -53.69651785 kcal/mol
 --------------------------------------------------
 SCF Energy (H0 + V/2)                       =    -886.21563630 
 Solute Internal Energy (H0)                 =    -886.13006545 
 Total Free Energy (H0 + V/2 + non-elec)     =    -886.21563630 hartree
                                             = -556108.70512739 kcal/mol
***********************************************************

 SCF   energy in the final basis set =     -886.2156363014
 Total energy in the final basis set =     -886.2156363014
 
 --------------------------------------------------------------
 
                    Orbital Energies (a.u.)
 --------------------------------------------------------------
 
 Alpha MOs
 -- Occupied --
-89.118 -24.840 -24.840 -24.829 -19.233 -19.233 -10.520  -8.151
 -6.100  -6.099  -6.097  -1.427  -1.339  -1.330  -1.188  -1.098
 -0.821  -0.736  -0.690  -0.689  -0.652  -0.568  -0.565  -0.542
 -0.535  -0.527  -0.526  -0.514  -0.502  -0.425  -0.397  -0.391
 -0.331  -0.146
 -- Virtual --
  0.083   0.090   0.098   0.103   0.130   0.132   0.135   0.189
  0.192   0.214   0.236   0.237   0.260   0.285   0.295   0.309
  0.310   0.315   0.333   0.336   0.340   0.355   0.363   0.391
  0.394   0.399   0.406   0.412   0.427   0.442   0.446   0.476
  0.489   0.508   0.523   0.538   0.659   0.706   0.786   0.812
  0.915   0.938   0.961   1.069   1.092   1.144   1.182   1.199
  1.203   1.219   1.238   1.247   1.298   1.301   1.425   1.426
  1.465   1.502   1.520   1.527   1.532   1.561   1.576   1.647
  1.712   1.736   1.820   1.929   1.937   1.976   1.991   2.019
  2.024   2.223   2.822   2.905   2.920   2.930   2.948   2.973
  2.992   3.006   3.142   3.186   3.239   3.540   3.651   3.802
  3.834   3.838   3.839   3.862   3.871   3.875   3.961   3.961
  4.219   4.282   4.286   4.466   5.008   5.022   5.072   5.107
  5.147   5.164   5.205   5.366   6.372   6.382   6.451   6.466
  6.489   6.493   6.510   6.858   6.870   8.213  17.461  17.527
 17.614  23.617  50.003  50.026  66.901  66.903  66.959 189.449
 
 Beta MOs
 -- Occupied --
-89.113 -24.840 -24.840 -24.827 -19.224 -19.224 -10.511  -8.147
 -6.098  -6.092  -6.088  -1.423  -1.337  -1.325  -1.166  -1.074
 -0.803  -0.712  -0.685  -0.681  -0.620  -0.563  -0.561  -0.528
 -0.528  -0.513  -0.501  -0.500  -0.490  -0.378  -0.367  -0.364
 -- Virtual --
 -0.065   0.076   0.092   0.103   0.103   0.124   0.137   0.138
  0.153   0.194   0.209   0.224   0.239   0.249   0.276   0.298
  0.306   0.310   0.316   0.323   0.336   0.338   0.343   0.361
  0.368   0.393   0.400   0.401   0.409   0.412   0.428   0.445
  0.448   0.478   0.496   0.511   0.526   0.540   0.677   0.720
  0.797   0.838   0.940   0.953   0.983   1.077   1.104   1.159
  1.196   1.207   1.218   1.231   1.256   1.259   1.304   1.315
  1.427   1.430   1.467   1.503   1.523   1.533   1.536   1.567
  1.580   1.656   1.730   1.753   1.836   1.940   1.952   1.990
  1.995   2.026   2.042   2.228   2.849   2.929   2.939   2.957
  2.968   2.989   3.014   3.030   3.158   3.201   3.260   3.556
  3.666   3.803   3.835   3.840   3.841   3.864   3.873   3.878
  3.964   3.965   4.223   4.285   4.290   4.472   5.013   5.024
  5.089   5.129   5.174   5.194   5.218   5.376   6.375   6.383
  6.453   6.467   6.490   6.494   6.514   6.862   6.871   8.219
 17.469  17.536  17.618  23.630  50.012  50.034  66.902  66.904
 66.960 189.452
 --------------------------------------------------------------
 
          Ground-State Mulliken Net Atomic Charges

     Atom                 Charge (a.u.)    Spin (a.u.)
  --------------------------------------------------------
      1 S                     0.184932       1.052505
      2 C                    -0.097002       0.473200
      3 O                    -0.374824       0.229340
      4 O                    -0.372608       0.230110
      5 F                    -0.118990       0.010101
      6 F                    -0.118428       0.010486
      7 F                    -0.103081      -0.005743
  --------------------------------------------------------
  Sum of atomic charges =    -1.000000
  Sum of spin   charges =     2.000000

 -----------------------------------------------------------------
                    Cartesian Multipole Moments
 -----------------------------------------------------------------
    Charge (ESU x 10^10)
                -4.8032
    Dipole Moment (Debye)
         X      -7.9551      Y       0.6041      Z      -0.6689
       Tot       8.0060
    Quadrupole Moments (Debye-Ang)
        XX     -64.9142     XY      -1.1890     YY     -55.8113
        XZ       2.4420     YZ      -0.6039     ZZ     -53.9579
    Octopole Moments (Debye-Ang^2)
       XXX    -203.7573    XXY     -36.1585    XYY     -63.6842
       YYY     -88.4181    XXZ     -12.9414    XYZ      -0.2871
       YYZ     -23.7353    XZZ     -63.7369    YZZ     -29.2152
       ZZZ     -65.4283
    Hexadecapole Moments (Debye-Ang^3)
      XXXX    -672.8953   XXXY    -104.4065   XXYY    -186.3142
      XYYY     -86.2963   YYYY    -488.9351   XXXZ      -5.1731
      XXYZ     -31.7193   XYYZ     -13.2300   YYYZ     -92.5225
      XXZZ    -170.3670   XYZZ     -31.2470   YYZZ    -138.7042
      XZZZ     -34.0230   YZZZ    -101.5527   ZZZZ    -348.0556
 -----------------------------------------------------------------
 Calculating analytic gradient of the SCF energy
 Gradient of SCF Energy
            1           2           3           4           5           6
    1   0.0256882   0.0007835   0.0101202  -0.0505744   0.0036133   0.0285503
    2   0.0097007  -0.0066070   0.0428928  -0.0207531  -0.0237424   0.0031613
    3   0.0395915  -0.0074390  -0.0347767   0.0174673   0.0166989  -0.0061921
            7
    1  -0.0181810
    2  -0.0046523
    3  -0.0253499
 Max gradient component =       5.057E-02
 RMS gradient           =       2.348E-02
 Computing fast CPCM-SWIG gradient
 Updating gradient with PCM contributions...
 -- total gradient after adding PCM contribution --
---------------------------------------------------
  Atom         X              Y              Z     
---------------------------------------------------
   1       0.037389       0.030589       0.078026
   2      -0.010235      -0.009931      -0.023846
   3       0.011159       0.028243      -0.040392
   4      -0.042805      -0.028223       0.006365
   5       0.001122      -0.009425       0.002518
   6       0.008983      -0.001202      -0.004425
   7      -0.005612      -0.010052      -0.018246
---------------------------------------------------
 Number of fixed atoms: 0
 Gradient time:  CPU 42.52 s  wall 2.83 s
 Geometry Optimization Parameters
   NAtoms,    NIC,     NZ,  NCons,   NDum,   NFix, NCnnct, MaxDiis
        7      35       0       0       0       0       0       0

 Cartesian Hessian Update
 Hessian Updated using BFGS Update


** GEOMETRY OPTIMIZATION IN DELOCALIZED INTERNAL COORDINATES **
   Searching for a Minimum

   Optimization Cycle:   2

                       Coordinates (Angstroms)
     ATOM                X               Y               Z
      1  S         1.1447064775   -0.0267076892   -0.3231684236
      2  C         0.8554763700    1.3342912109    0.9928352463
      3  O         0.9757093406   -1.1417120123    0.6216718983
      4  O         2.4827334033    0.4644525403   -0.6842507480
      5  F         0.8855300459    2.5208486507    0.3948997106
      6  F        -0.3513233828    1.1770765150    1.5255389523
      7  F         1.7530694300    1.3524356032    1.9958096840
   Point Group: c1    Number of degrees of freedom:    15


   Energy is   -886.215636301

 Hessian Updated using BFGS Update

 12 Hessian modes will be used to form the next step
  Hessian Eigenvalues:
     0.002000    0.048392    0.080431    0.111322    0.114114    0.247447
     0.388155    0.582980    0.599367    0.634240    0.885286    0.952943

 Minimum Search - Taking Simple RFO Step
 Searching for Lamda that Minimizes Along All modes
 Value Taken    Lamda =  -0.06961915
 Calculated Step too Large.  Step scaled by  0.409388
 Step Taken.  Stepsize is  0.300000

                             Maximum     Tolerance    Cnvgd?
         Gradient           0.069261      0.000300      NO
         Displacement       0.172199      0.001200      NO
         Energy change     -0.032337      0.000001      NO


 New Cartesian Coordinates Obtained by Inverse Iteration

 Displacement from previous Coordinates is:  0.375824
 ----------------------------------------------------------------
             Standard Nuclear Orientation (Angstroms)
    I     Atom           X                Y                Z
 ----------------------------------------------------------------
    1      S       1.1311899332    -0.1021063531    -0.4317533798
    2      C       0.8842030550     1.3004871288     0.9846713826
    3      O       0.9324995050    -1.0849996884     0.6834351465
    4      O       2.4663370353     0.5443062154    -0.6515899855
    5      F       0.9041573332     2.4977037274     0.3923626652
    6      F      -0.3312736524     1.1543315630     1.5185309120
    7      F       1.7587884751     1.3709622256     2.0276795788
 ----------------------------------------------------------------
 Nuclear Repulsion Energy =   430.3404094108 hartrees
 There are       34 alpha and       32 beta electrons
 Discretize the solute cavity surface with Lebedev spheres
	Using 194 Lebedev grid points for each H atom
	Using 194 Lebedev grid points for other atoms
	Atomic van der Waals radii will be scaled by 1.10
 Remove points where switching function is < 1.0e-08
 Keep 700 surface tesserae and discard 658 interior tesserae
 Molecular Surface Area = 133.947 Angst**2
 Applying Cartesian multipole field
    Component          Value
    ---------          -----
     (2,0,0)        1.00000E-11
     (0,2,0)        2.00000E-11
     (0,0,2)       -3.00000E-11
 Nucleus-field energy     =     0.0000000038 hartrees
 Requested basis set is 6-311++G(d)
 There are 49 shells and 162 basis functions
 A cutoff of  1.0D-12 yielded   1105 shell pairs
 There are     12640 function pairs (     13759 Cartesian)
 Smallest overlap matrix eigenvalue = 4.20E-04
 Guess MOs from SCF MO coefficient file
 Reading MOs from coefficient file
 Reading MOs from coefficient file

 -----------------------------------------------------------------------
  General SCF calculation program by
  Eric Jon Sundstrom, Paul Horn, Yuezhi Mao, Dmitri Zuev, Alec White,
  David Stuck, Shaama M.S., Shane Yost, Joonho Lee, David Small,
  Daniel Levine, Susi Lehtola, Hugh Burton, Evgeny Epifanovsky
 -----------------------------------------------------------------------
 Exchange:     0.2220 Hartree-Fock + 1.0000 wB97X-D + LR-HF
 Correlation:  1.0000 wB97X-D
 Using SG-3 standard quadrature grid
 Dispersion:   Grimme D
 using 24 threads for integral computing
 -------------------------------------------------------
 OpenMP Integral computing Module                
 Release: version 1.0, May 2013, Q-Chem Inc. Pittsburgh 
 -------------------------------------------------------
 using 24 threads for integral computing
 -------------------------------------------------------
 OpenMP Integral computing Module                
 Release: version 1.0, May 2013, Q-Chem Inc. Pittsburgh 
 -------------------------------------------------------
 -------------------------------------------------------
 OpenMP BLAS3 based DFT computing Module                
 Release: version 1.0, May 2013, Q-Chem Inc. Pittsburgh 
 -------------------------------------------------------
 A unrestricted SCF calculation will be
 performed using Roothaan-Hall, GDM
 SCF converges when RMS gradient is below 1.0e-08
 ---------------------------------------
  Cycle       Energy         DIIS error
 ---------------------------------------
    1    -875.6581848273      1.35e-03  Roothaan Step
 ---------------------------------------
  Cycle       Energy        RMS Gradient
 ---------------------------------------
    1    -886.2250506887      4.16e-02   Normal BFGS step
    2    -886.2301422185      3.82e-02   Normal BFGS step
    3    -886.2343973011      2.75e-02   Normal BFGS step
    4    -886.2355224651      1.23e-02   Normal BFGS step
    5    -886.2361365651      4.70e-03   Normal BFGS step
    6    -886.2363046707      2.28e-03   Normal BFGS step
    7    -886.2363442608      1.10e-03   Normal BFGS step
    8    -886.2363536272      1.10e-03   Normal BFGS step
    9    -886.2363549226      8.53e-04   Normal BFGS step
   10    -886.2363565399      1.26e-04   Normal BFGS step
   11    -886.2363566153      5.95e-05   Normal BFGS step
   12    -886.2363566298      2.35e-05   Normal BFGS step
   13    -886.2363566321      4.23e-06   Normal BFGS step
   14    -886.2363566323      1.98e-06   Normal BFGS step
   15    -886.2363566324      7.99e-07   Normal BFGS step
   16    -886.2363566324      3.86e-07   Normal BFGS step
   17    -886.2363566324      2.99e-07   Normal BFGS step
   18    -886.2363566324      2.10e-07   Normal BFGS step
   19    -886.2363566324      9.92e-08   Normal BFGS step
   20    -886.2363566324      4.30e-08   Normal BFGS step
   21    -886.2363566324      2.38e-08   Normal BFGS step
   22    -886.2363566324      1.14e-08   Normal BFGS step
   23    -886.2363566324      5.91e-09  Convergence criterion met
 ---------------------------------------
 SCF time:   CPU 632.66s  wall 31.00s 
<S^2> =          2.009909170

************** Final PCM Free Energy Summary **************
 G_electrostatic  =      -0.08515342 hartree =     -53.43458049 kcal/mol
 G_cavitation     =       0.00000000 hartree =       0.00000000 kcal/mol
 G_dispersion     =       0.00000000 hartree =       0.00000000 kcal/mol
 G_repulsion      =       0.00000000 hartree =       0.00000000 kcal/mol
 --------------------------------------------------
 Non-electrostatic Free Energy =       0.00000000 hartree =       0.00000000 kcal/mol
 Total                         =      -0.08515342 hartree =     -53.43458049 kcal/mol
 --------------------------------------------------
 SCF Energy (H0 + V/2)                       =    -886.23635663 
 Solute Internal Energy (H0)                 =    -886.15120321 
 Total Free Energy (H0 + V/2 + non-elec)     =    -886.23635663 hartree
                                             = -556121.70733135 kcal/mol
***********************************************************

 SCF   energy in the final basis set =     -886.2363566324
 Total energy in the final basis set =     -886.2363566324
 
 --------------------------------------------------------------
 
                    Orbital Energies (a.u.)
 --------------------------------------------------------------
 
 Alpha MOs
 -- Occupied --
-89.100 -24.836 -24.835 -24.825 -19.230 -19.230 -10.519  -8.135
 -6.085  -6.083  -6.081  -1.419  -1.331  -1.320  -1.169  -1.083
 -0.808  -0.722  -0.683  -0.680  -0.656  -0.561  -0.561  -0.531
 -0.525  -0.522  -0.520  -0.504  -0.496  -0.422  -0.390  -0.375
 -0.331  -0.191
 -- Virtual --
  0.084   0.092   0.098   0.101   0.129   0.132   0.135   0.190
  0.198   0.199   0.234   0.240   0.256   0.268   0.294   0.312
  0.314   0.323   0.334   0.341   0.348   0.352   0.367   0.389
  0.396   0.403   0.410   0.413   0.427   0.439   0.447   0.472
  0.502   0.513   0.522   0.531   0.668   0.734   0.807   0.816
  0.891   0.918   0.967   1.067   1.099   1.154   1.170   1.172
  1.190   1.211   1.227   1.252   1.307   1.326   1.425   1.438
  1.472   1.505   1.525   1.534   1.546   1.566   1.579   1.645
  1.677   1.757   1.815   1.922   1.949   1.961   1.993   2.038
  2.040   2.228   2.812   2.913   2.926   2.933   2.953   2.960
  3.005   3.023   3.125   3.146   3.264   3.496   3.615   3.809
  3.840   3.844   3.845   3.869   3.874   3.879   3.951   3.956
  4.219   4.261   4.272   4.469   4.995   5.018   5.077   5.117
  5.156   5.158   5.206   5.336   6.376   6.385   6.458   6.477
  6.494   6.498   6.509   6.839   6.858   8.185  17.446  17.558
 17.580  23.604  50.012  50.033  66.907  66.911  66.965 189.424
 
 Beta MOs
 -- Occupied --
-89.096 -24.835 -24.834 -24.823 -19.221 -19.221 -10.507  -8.131
 -6.082  -6.077  -6.071  -1.414  -1.328  -1.315  -1.148  -1.059
 -0.789  -0.692  -0.676  -0.669  -0.624  -0.556  -0.554  -0.519
 -0.518  -0.509  -0.494  -0.488  -0.482  -0.369  -0.355  -0.346
 -- Virtual --
 -0.062   0.058   0.088   0.097   0.099   0.110   0.134   0.134
  0.141   0.192   0.210   0.215   0.237   0.261   0.275   0.283
  0.297   0.313   0.318   0.331   0.338   0.344   0.351   0.359
  0.370   0.393   0.400   0.405   0.412   0.414   0.428   0.441
  0.449   0.476   0.505   0.515   0.525   0.533   0.685   0.750
  0.825   0.836   0.918   0.935   0.989   1.074   1.112   1.165
  1.181   1.187   1.201   1.222   1.241   1.265   1.326   1.336
  1.430   1.443   1.474   1.506   1.533   1.540   1.550   1.573
  1.584   1.672   1.686   1.771   1.830   1.939   1.961   1.983
  2.001   2.041   2.060   2.232   2.848   2.941   2.948   2.959
  2.969   2.981   3.031   3.051   3.145   3.160   3.289   3.512
  3.630   3.811   3.842   3.846   3.847   3.871   3.877   3.882
  3.956   3.961   4.224   4.265   4.276   4.476   5.000   5.022
  5.092   5.130   5.174   5.193   5.236   5.348   6.379   6.387
  6.459   6.479   6.496   6.501   6.514   6.844   6.861   8.189
 17.453  17.567  17.583  23.623  50.021  50.041  66.908  66.912
 66.966 189.427
 --------------------------------------------------------------
 
          Ground-State Mulliken Net Atomic Charges

     Atom                 Charge (a.u.)    Spin (a.u.)
  --------------------------------------------------------
      1 S                     0.212894       0.776214
      2 C                     0.024502       0.535624
      3 O                    -0.422487       0.313721
      4 O                    -0.421192       0.315094
      5 F                    -0.133398       0.023615
      6 F                    -0.132818       0.024015
      7 F                    -0.127501       0.011717
  --------------------------------------------------------
  Sum of atomic charges =    -1.000000
  Sum of spin   charges =     2.000000

 -----------------------------------------------------------------
                    Cartesian Multipole Moments
 -----------------------------------------------------------------
    Charge (ESU x 10^10)
                -4.8032
    Dipole Moment (Debye)
         X      -7.8244      Y      -0.3439      Z      -1.6779
       Tot       8.0097
    Quadrupole Moments (Debye-Ang)
        XX     -64.8250     XY      -2.4417     YY     -55.3539
        XZ       0.9857     YZ       0.2130     ZZ     -53.2025
    Octopole Moments (Debye-Ang^2)
       XXX    -203.7502    XXY     -38.0148    XYY     -63.1223
       YYY     -90.1814    XXZ     -15.2272    XYZ       0.8284
       YYZ     -24.8089    XZZ     -62.3782    YZZ     -30.6077
       ZZZ     -67.4770
    Hexadecapole Moments (Debye-Ang^3)
      XXXX    -670.1931   XXXY    -112.1660   XXYY    -183.0895
      XYYY     -92.8371   YYYY    -478.8792   XXXZ     -11.2997
      XXYZ     -29.1381   XYYZ     -14.9485   YYYZ     -90.2868
      XXZZ    -168.0620   XYZZ     -34.1741   YYZZ    -137.9103
      XZZZ     -38.9683   YZZZ     -98.6804   ZZZZ    -348.6323
 -----------------------------------------------------------------
 Calculating analytic gradient of the SCF energy
 Gradient of SCF Energy
            1           2           3           4           5           6
    1   0.0176729  -0.0043523  -0.0001577  -0.0294607   0.0025535   0.0253782
    2   0.0165199  -0.0100003   0.0203366  -0.0107827  -0.0205786   0.0041288
    3   0.0396010  -0.0165595  -0.0236252   0.0019530   0.0159093  -0.0050560
            7
    1  -0.0116339
    2   0.0003762
    3  -0.0122226
 Max gradient component =       3.960E-02
 RMS gradient           =       1.713E-02
 Computing fast CPCM-SWIG gradient
 Updating gradient with PCM contributions...
 -- total gradient after adding PCM contribution --
---------------------------------------------------
  Atom         X              Y              Z     
---------------------------------------------------
   1       0.020576       0.031681       0.061082
   2      -0.002830      -0.034022      -0.043977
   3      -0.001113       0.016627      -0.020052
   4      -0.024873      -0.008645       0.000824
   5       0.001696      -0.004463       0.003637
   6       0.006072       0.000047      -0.000357
   7       0.000472      -0.001225      -0.001156
---------------------------------------------------
 Number of fixed atoms: 0
 Gradient time:  CPU 42.42 s  wall 2.90 s
 Geometry Optimization Parameters
   NAtoms,    NIC,     NZ,  NCons,   NDum,   NFix, NCnnct, MaxDiis
        7      35       0       0       0       0       0       0

 Cartesian Hessian Update
 Hessian Updated using BFGS Update


** GEOMETRY OPTIMIZATION IN DELOCALIZED INTERNAL COORDINATES **
   Searching for a Minimum

   Optimization Cycle:   3

                       Coordinates (Angstroms)
     ATOM                X               Y               Z
      1  S         1.1311899332   -0.1021063531   -0.4317533798
      2  C         0.8842030550    1.3004871288    0.9846713826
      3  O         0.9324995050   -1.0849996884    0.6834351465
      4  O         2.4663370353    0.5443062154   -0.6515899855
      5  F         0.9041573332    2.4977037274    0.3923626652
      6  F        -0.3312736524    1.1543315630    1.5185309120
      7  F         1.7587884751    1.3709622256    2.0276795788
   Point Group: c1    Number of degrees of freedom:    15


   Energy is   -886.236356632

 Hessian Updated using BFGS Update

 13 Hessian modes will be used to form the next step
  Hessian Eigenvalues:
     0.002000    0.066626    0.097626    0.111370    0.126530    0.249750
     0.265882    0.516261    0.599151    0.601194    0.670188    0.836134
     0.952993

 Minimum Search - Taking Simple RFO Step
 Searching for Lamda that Minimizes Along All modes
 Value Taken    Lamda =  -0.02694587
 Calculated Step too Large.  Step scaled by  0.662516
 Step Taken.  Stepsize is  0.300000

                             Maximum     Tolerance    Cnvgd?
         Gradient           0.036908      0.000300      NO
         Displacement       0.163146      0.001200      NO
         Energy change     -0.020720      0.000001      NO


 New Cartesian Coordinates Obtained by Inverse Iteration

 Displacement from previous Coordinates is:  0.265826
 ----------------------------------------------------------------
             Standard Nuclear Orientation (Angstroms)
    I     Atom           X                Y                Z
 ----------------------------------------------------------------
    1      S       1.1198493377    -0.1703824647    -0.5273988324
    2      C       0.9033897479     1.3025075294     1.0093504043
    3      O       0.9281576382    -1.0604484624     0.6941811445
    4      O       2.4540705812     0.5576450792    -0.6406740120
    5      F       0.9078757642     2.4923341369     0.3949751764
    6      F      -0.3265125922     1.1521911592     1.5170804996
    7      F       1.7590712073     1.4068378410     2.0758219394
 ----------------------------------------------------------------
 Nuclear Repulsion Energy =   424.0948243938 hartrees
 There are       34 alpha and       32 beta electrons
 Discretize the solute cavity surface with Lebedev spheres
	Using 194 Lebedev grid points for each H atom
	Using 194 Lebedev grid points for other atoms
	Atomic van der Waals radii will be scaled by 1.10
 Remove points where switching function is < 1.0e-08
 Keep 701 surface tesserae and discard 657 interior tesserae
 Molecular Surface Area = 135.204 Angst**2
 Applying Cartesian multipole field
    Component          Value
    ---------          -----
     (2,0,0)        1.00000E-11
     (0,2,0)        2.00000E-11
     (0,0,2)       -3.00000E-11
 Nucleus-field energy     =     0.0000000034 hartrees
 Requested basis set is 6-311++G(d)
 There are 49 shells and 162 basis functions
 A cutoff of  1.0D-12 yielded   1097 shell pairs
 There are     12596 function pairs (     13715 Cartesian)
 Smallest overlap matrix eigenvalue = 5.13E-04
 Guess MOs from SCF MO coefficient file
 Reading MOs from coefficient file
 Reading MOs from coefficient file

 -----------------------------------------------------------------------
  General SCF calculation program by
  Eric Jon Sundstrom, Paul Horn, Yuezhi Mao, Dmitri Zuev, Alec White,
  David Stuck, Shaama M.S., Shane Yost, Joonho Lee, David Small,
  Daniel Levine, Susi Lehtola, Hugh Burton, Evgeny Epifanovsky
 -----------------------------------------------------------------------
 Exchange:     0.2220 Hartree-Fock + 1.0000 wB97X-D + LR-HF
 Correlation:  1.0000 wB97X-D
 Using SG-3 standard quadrature grid
 Dispersion:   Grimme D
 using 24 threads for integral computing
 -------------------------------------------------------
 OpenMP Integral computing Module                
 Release: version 1.0, May 2013, Q-Chem Inc. Pittsburgh 
 -------------------------------------------------------
 using 24 threads for integral computing
 -------------------------------------------------------
 OpenMP Integral computing Module                
 Release: version 1.0, May 2013, Q-Chem Inc. Pittsburgh 
 -------------------------------------------------------
 -------------------------------------------------------
 OpenMP BLAS3 based DFT computing Module                
 Release: version 1.0, May 2013, Q-Chem Inc. Pittsburgh 
 -------------------------------------------------------
 A unrestricted SCF calculation will be
 performed using Roothaan-Hall, GDM
 SCF converges when RMS gradient is below 1.0e-08
 ---------------------------------------
  Cycle       Energy         DIIS error
 ---------------------------------------
    1    -875.5562868217      9.22e-04  Roothaan Step
 ---------------------------------------
  Cycle       Energy        RMS Gradient
 ---------------------------------------
    1    -886.2447324428      3.69e-02   Normal BFGS step
    2    -886.2479862611      3.24e-02   Normal BFGS step
    3    -886.2509698626      2.36e-02   Normal BFGS step
    4    -886.2517591964      9.48e-03   Normal BFGS step
    5    -886.2521053709      3.00e-03   Normal BFGS step
    6    -886.2521790587      1.00e-03   Normal BFGS step
    7    -886.2521953130      7.78e-04   Normal BFGS step
    8    -886.2521979298      3.87e-04   Normal BFGS step
    9    -886.2521980677      4.84e-04   Normal BFGS step
   10    -886.2521984536      3.30e-05   Normal BFGS step
   11    -886.2521984707      2.05e-05   Normal BFGS step
   12    -886.2521984741      1.09e-05   Normal BFGS step
   13    -886.2521984748      3.91e-06   Normal BFGS step
   14    -886.2521984750      1.47e-06   Normal BFGS step
   15    -886.2521984750      7.97e-07   Normal BFGS step
   16    -886.2521984750      3.80e-07   Normal BFGS step
   17    -886.2521984750      1.96e-07   Normal BFGS step
   18    -886.2521984750      1.12e-07   Normal BFGS step
   19    -886.2521984750      3.34e-08   Normal BFGS step
   20    -886.2521984750      1.53e-08   Normal BFGS step
   21    -886.2521984750      6.05e-09  Convergence criterion met
 ---------------------------------------
 SCF time:   CPU 550.28s  wall 27.00s 
<S^2> =          2.008596323

************** Final PCM Free Energy Summary **************
 G_electrostatic  =      -0.08610504 hartree =     -54.03172758 kcal/mol
 G_cavitation     =       0.00000000 hartree =       0.00000000 kcal/mol
 G_dispersion     =       0.00000000 hartree =       0.00000000 kcal/mol
 G_repulsion      =       0.00000000 hartree =       0.00000000 kcal/mol
 --------------------------------------------------
 Non-electrostatic Free Energy =       0.00000000 hartree =       0.00000000 kcal/mol
 Total                         =      -0.08610504 hartree =     -54.03172758 kcal/mol
 --------------------------------------------------
 SCF Energy (H0 + V/2)                       =    -886.25219848 
 Solute Internal Energy (H0)                 =    -886.16609344 
 Total Free Energy (H0 + V/2 + non-elec)     =    -886.25219848 hartree
                                             = -556131.64823764 kcal/mol
***********************************************************

 SCF   energy in the final basis set =     -886.2521984750
 Total energy in the final basis set =     -886.2521984750
 
 --------------------------------------------------------------
 
                    Orbital Energies (a.u.)
 --------------------------------------------------------------
 
 Alpha MOs
 -- Occupied --
-89.092 -24.837 -24.837 -24.828 -19.226 -19.226 -10.523  -8.128
 -6.077  -6.076  -6.073  -1.417  -1.331  -1.320  -1.154  -1.068
 -0.803  -0.712  -0.681  -0.677  -0.659  -0.561  -0.560  -0.524
 -0.521  -0.518  -0.516  -0.498  -0.497  -0.413  -0.378  -0.368
 -0.325  -0.223
 -- Virtual --
  0.084   0.093   0.096   0.099   0.127   0.130   0.135   0.187
  0.189   0.190   0.233   0.241   0.253   0.264   0.288   0.311
  0.313   0.326   0.333   0.342   0.350   0.351   0.371   0.387
  0.398   0.407   0.410   0.412   0.426   0.434   0.448   0.461
  0.510   0.511   0.521   0.529   0.679   0.755   0.799   0.830
  0.858   0.886   0.949   1.073   1.100   1.146   1.160   1.167
  1.183   1.219   1.226   1.252   1.312   1.343   1.428   1.440
  1.466   1.502   1.523   1.533   1.551   1.567   1.573   1.578
  1.697   1.758   1.820   1.908   1.928   1.960   1.974   2.039
  2.054   2.218   2.815   2.923   2.930   2.932   2.952   2.964
  3.010   3.030   3.099   3.121   3.251   3.458   3.605   3.809
  3.841   3.844   3.845   3.867   3.870   3.878   3.948   3.952
  4.210   4.245   4.264   4.458   4.985   5.010   5.079   5.123
  5.147   5.174   5.213   5.315   6.375   6.384   6.457   6.476
  6.484   6.492   6.501   6.834   6.844   8.154  17.435  17.545
 17.564  23.591  50.019  50.037  66.904  66.910  66.961 189.400
 
 Beta MOs
 -- Occupied --
-89.088 -24.835 -24.835 -24.826 -19.217 -19.217 -10.509  -8.124
 -6.075  -6.070  -6.063  -1.411  -1.326  -1.314  -1.133  -1.045
 -0.783  -0.682  -0.673  -0.662  -0.627  -0.554  -0.553  -0.517
 -0.516  -0.503  -0.495  -0.487  -0.470  -0.360  -0.346  -0.342
 -- Virtual --
 -0.045   0.038   0.087   0.096   0.097   0.105   0.132   0.133
  0.139   0.192   0.197   0.206   0.237   0.267   0.273   0.276
  0.293   0.314   0.317   0.334   0.337   0.347   0.354   0.356
  0.374   0.391   0.400   0.410   0.411   0.416   0.427   0.437
  0.449   0.465   0.512   0.514   0.525   0.530   0.695   0.771
  0.827   0.848   0.878   0.908   0.967   1.079   1.113   1.160
  1.166   1.186   1.196   1.229   1.234   1.264   1.333   1.354
  1.436   1.447   1.469   1.504   1.532   1.542   1.557   1.576
  1.584   1.605   1.707   1.772   1.833   1.934   1.939   1.984
  1.986   2.042   2.072   2.222   2.858   2.945   2.955   2.956
  2.966   2.988   3.036   3.056   3.120   3.137   3.276   3.473
  3.619   3.811   3.844   3.847   3.847   3.870   3.875   3.881
  3.955   3.958   4.217   4.251   4.269   4.466   4.991   5.016
  5.092   5.137   5.157   5.207   5.248   5.327   6.378   6.387
  6.459   6.479   6.488   6.495   6.505   6.839   6.848   8.158
 17.443  17.548  17.572  23.615  50.027  50.045  66.905  66.912
 66.962 189.403
 --------------------------------------------------------------
 
          Ground-State Mulliken Net Atomic Charges

     Atom                 Charge (a.u.)    Spin (a.u.)
  --------------------------------------------------------
      1 S                     0.248971       0.652439
      2 C                     0.090855       0.650002
      3 O                    -0.472657       0.307505
      4 O                    -0.474256       0.306381
      5 F                    -0.130567       0.029688
      6 F                    -0.130029       0.029915
      7 F                    -0.132317       0.024070
  --------------------------------------------------------
  Sum of atomic charges =    -1.000000
  Sum of spin   charges =     2.000000

 -----------------------------------------------------------------
                    Cartesian Multipole Moments
 -----------------------------------------------------------------
    Charge (ESU x 10^10)
                -4.8032
    Dipole Moment (Debye)
         X      -7.8941      Y      -0.5644      Z      -1.9972
       Tot       8.1624
    Quadrupole Moments (Debye-Ang)
        XX     -65.1302     XY      -2.9803     YY     -54.9205
        XZ       0.3877     YZ       0.6884     ZZ     -53.0564
    Octopole Moments (Debye-Ang^2)
       XXX    -204.5969    XXY     -38.6609    XYY     -62.6000
       YYY     -89.2718    XXZ     -15.8134    XYZ       1.5154
       YYZ     -24.4702    XZZ     -62.1273    YZZ     -30.4575
       ZZZ     -66.3183
    Hexadecapole Moments (Debye-Ang^3)
      XXXX    -670.5445   XXXY    -114.4607   XXYY    -182.2895
      XYYY     -93.7008   YYYY    -478.6348   XXXZ     -13.2207
      XXYZ     -29.1450   XYYZ     -15.0904   YYYZ     -93.5879
      XXZZ    -169.5588   XYZZ     -34.8202   YYZZ    -140.2495
      XZZZ     -39.6314   YZZZ    -102.1789   ZZZZ    -361.5110
 -----------------------------------------------------------------
 Calculating analytic gradient of the SCF energy
 Gradient of SCF Energy
            1           2           3           4           5           6
    1   0.0040860  -0.0075551  -0.0033775  -0.0085957   0.0008556   0.0211576
    2   0.0190293  -0.0089746   0.0034277  -0.0025970  -0.0174109   0.0046048
    3   0.0282480  -0.0190268  -0.0092063  -0.0041360   0.0136865  -0.0048545
            7
    1  -0.0065711
    2   0.0019208
    3  -0.0047110
 Max gradient component =       2.825E-02
 RMS gradient           =       1.182E-02
 Computing fast CPCM-SWIG gradient
 Updating gradient with PCM contributions...
 -- total gradient after adding PCM contribution --
---------------------------------------------------
  Atom         X              Y              Z     
---------------------------------------------------
   1       0.003491       0.032273       0.043510
   2       0.000492      -0.043565      -0.051927
   3      -0.005522       0.004779      -0.002847
   4      -0.006352       0.003276      -0.001575
   5      -0.000249      -0.000474       0.002154
   6       0.001580       0.001222       0.000451
   7       0.006560       0.002489       0.010234
---------------------------------------------------
 Number of fixed atoms: 0
 Gradient time:  CPU 53.12 s  wall 3.63 s
 Geometry Optimization Parameters
   NAtoms,    NIC,     NZ,  NCons,   NDum,   NFix, NCnnct, MaxDiis
        7      35       0       0       0       0       0       0

 Cartesian Hessian Update
 Hessian Updated using BFGS Update


** GEOMETRY OPTIMIZATION IN DELOCALIZED INTERNAL COORDINATES **
   Searching for a Minimum

   Optimization Cycle:   4

                       Coordinates (Angstroms)
     ATOM                X               Y               Z
      1  S         1.1198493377   -0.1703824647   -0.5273988324
      2  C         0.9033897479    1.3025075294    1.0093504043
      3  O         0.9281576382   -1.0604484624    0.6941811445
      4  O         2.4540705812    0.5576450792   -0.6406740120
      5  F         0.9078757642    2.4923341369    0.3949751764
      6  F        -0.3265125922    1.1521911592    1.5170804996
      7  F         1.7590712073    1.4068378410    2.0758219394
   Point Group: c1    Number of degrees of freedom:    15


   Energy is   -886.252198475

 Hessian Updated using BFGS Update

 14 Hessian modes will be used to form the next step
  Hessian Eigenvalues:
     0.002000    0.039155    0.078074    0.111320    0.115073    0.249770
     0.250007    0.267051    0.505932    0.599359    0.622583    0.673918
     0.952522    1.019540

 Minimum Search - Taking Simple RFO Step
 Searching for Lamda that Minimizes Along All modes
 Value Taken    Lamda =  -0.03265728
 Calculated Step too Large.  Step scaled by  0.466592
 Step Taken.  Stepsize is  0.300000

                             Maximum     Tolerance    Cnvgd?
         Gradient           0.039934      0.000300      NO
         Displacement       0.194942      0.001200      NO
         Energy change     -0.015842      0.000001      NO


 New Cartesian Coordinates Obtained by Inverse Iteration

 Displacement from previous Coordinates is:  0.261127
 ----------------------------------------------------------------
             Standard Nuclear Orientation (Angstroms)
    I     Atom           X                Y                Z
 ----------------------------------------------------------------
    1      S       1.1171081883    -0.2378275829    -0.6123487876
    2      C       0.9132582264     1.3221271472     1.0450464817
    3      O       0.9355262204    -1.0556081001     0.6791279295
    4      O       2.4450912358     0.5421797701    -0.6438999451
    5      F       0.9120247716     2.4980834495     0.4044761637
    6      F      -0.3249478257     1.1568797415     1.5280642435
    7      F       1.7478408676     1.4548503933     2.1228702341
 ----------------------------------------------------------------
 Nuclear Repulsion Energy =   417.7464430136 hartrees
 There are       34 alpha and       32 beta electrons
 Discretize the solute cavity surface with Lebedev spheres
	Using 194 Lebedev grid points for each H atom
	Using 194 Lebedev grid points for other atoms
	Atomic van der Waals radii will be scaled by 1.10
 Remove points where switching function is < 1.0e-08
 Keep 713 surface tesserae and discard 645 interior tesserae
 Molecular Surface Area = 137.012 Angst**2
 Applying Cartesian multipole field
    Component          Value
    ---------          -----
     (2,0,0)        1.00000E-11
     (0,2,0)        2.00000E-11
     (0,0,2)       -3.00000E-11
 Nucleus-field energy     =     0.0000000031 hartrees
 Requested basis set is 6-311++G(d)
 There are 49 shells and 162 basis functions
 A cutoff of  1.0D-12 yielded   1083 shell pairs
 There are     12461 function pairs (     13564 Cartesian)
 Smallest overlap matrix eigenvalue = 6.46E-04
 Guess MOs from SCF MO coefficient file
 Reading MOs from coefficient file
 Reading MOs from coefficient file

 -----------------------------------------------------------------------
  General SCF calculation program by
  Eric Jon Sundstrom, Paul Horn, Yuezhi Mao, Dmitri Zuev, Alec White,
  David Stuck, Shaama M.S., Shane Yost, Joonho Lee, David Small,
  Daniel Levine, Susi Lehtola, Hugh Burton, Evgeny Epifanovsky
 -----------------------------------------------------------------------
 Exchange:     0.2220 Hartree-Fock + 1.0000 wB97X-D + LR-HF
 Correlation:  1.0000 wB97X-D
 Using SG-3 standard quadrature grid
 Dispersion:   Grimme D
 using 24 threads for integral computing
 -------------------------------------------------------
 OpenMP Integral computing Module                
 Release: version 1.0, May 2013, Q-Chem Inc. Pittsburgh 
 -------------------------------------------------------
 using 24 threads for integral computing
 -------------------------------------------------------
 OpenMP Integral computing Module                
 Release: version 1.0, May 2013, Q-Chem Inc. Pittsburgh 
 -------------------------------------------------------
 -------------------------------------------------------
 OpenMP BLAS3 based DFT computing Module                
 Release: version 1.0, May 2013, Q-Chem Inc. Pittsburgh 
 -------------------------------------------------------
 A unrestricted SCF calculation will be
 performed using Roothaan-Hall, GDM
 SCF converges when RMS gradient is below 1.0e-08
 ---------------------------------------
  Cycle       Energy         DIIS error
 ---------------------------------------
    1    -875.5507488311      6.99e-04  Roothaan Step
 ---------------------------------------
  Cycle       Energy        RMS Gradient
 ---------------------------------------
    1    -886.2606221867      2.51e-02   Normal BFGS step
    2    -886.2623148273      1.68e-02   Normal BFGS step
    3    -886.2643356311      1.24e-02   Normal BFGS step
    4    -886.2645585308      5.96e-03   Normal BFGS step
    5    -886.2646592014      2.32e-03   Normal BFGS step
    6    -886.2646821457      7.96e-04   Normal BFGS step
    7    -886.2646881918      5.37e-04   Normal BFGS step
    8    -886.2646887025      5.33e-04   Normal BFGS step
    9    -886.2646892328      1.02e-04   Normal BFGS step
   10    -886.2646893178      5.59e-05   Normal BFGS step
   11    -886.2646893292      2.03e-05   Normal BFGS step
   12    -886.2646893308      7.67e-06   Normal BFGS step
   13    -886.2646893311      3.07e-06   Normal BFGS step
   14    -886.2646893313      1.02e-06   Normal BFGS step
   15    -886.2646893313      6.38e-07   Normal BFGS step
   16    -886.2646893313      1.90e-07   Normal BFGS step
   17    -886.2646893313      1.22e-07   Normal BFGS step
   18    -886.2646893313      5.65e-08   Normal BFGS step
   19    -886.2646893313      2.03e-08   Normal BFGS step
   20    -886.2646893313      8.96e-09  Convergence criterion met
 ---------------------------------------
 SCF time:   CPU 541.19s  wall 27.00s 
<S^2> =          2.007697908

************** Final PCM Free Energy Summary **************
 G_electrostatic  =      -0.08731672 hartree =     -54.79206894 kcal/mol
 G_cavitation     =       0.00000000 hartree =       0.00000000 kcal/mol
 G_dispersion     =       0.00000000 hartree =       0.00000000 kcal/mol
 G_repulsion      =       0.00000000 hartree =       0.00000000 kcal/mol
 --------------------------------------------------
 Non-electrostatic Free Energy =       0.00000000 hartree =       0.00000000 kcal/mol
 Total                         =      -0.08731672 hartree =     -54.79206894 kcal/mol
 --------------------------------------------------
 SCF Energy (H0 + V/2)                       =    -886.26468933 
 Solute Internal Energy (H0)                 =    -886.17737261 
 Total Free Energy (H0 + V/2 + non-elec)     =    -886.26468933 hartree
                                             = -556139.48636824 kcal/mol
***********************************************************

 SCF   energy in the final basis set =     -886.2646893313
 Total energy in the final basis set =     -886.2646893313
 
 --------------------------------------------------------------
 
                    Orbital Energies (a.u.)
 --------------------------------------------------------------
 
 Alpha MOs
 -- Occupied --
-89.089 -24.838 -24.838 -24.832 -19.221 -19.220 -10.525  -8.126
 -6.075  -6.073  -6.070  -1.418  -1.332  -1.323  -1.141  -1.054
 -0.800  -0.705  -0.682  -0.677  -0.661  -0.561  -0.561  -0.522
 -0.521  -0.515  -0.509  -0.499  -0.495  -0.404  -0.368  -0.367
 -0.320  -0.243
 -- Virtual --
  0.084   0.093   0.094   0.098   0.125   0.129   0.134   0.178
  0.184   0.189   0.233   0.243   0.254   0.262   0.284   0.310
  0.311   0.327   0.332   0.341   0.351   0.352   0.372   0.388
  0.397   0.408   0.411   0.413   0.425   0.431   0.446   0.452
  0.506   0.511   0.521   0.535   0.691   0.768   0.771   0.827
  0.858   0.860   0.921   1.079   1.096   1.135   1.154   1.171
  1.182   1.218   1.235   1.251   1.313   1.354   1.431   1.438
  1.458   1.501   1.507   1.527   1.533   1.565   1.568   1.575
  1.711   1.750   1.817   1.903   1.909   1.943   1.961   2.033
  2.053   2.204   2.824   2.928   2.935   2.938   2.954   2.973
  3.009   3.029   3.083   3.111   3.224   3.433   3.602   3.807
  3.841   3.842   3.843   3.864   3.867   3.874   3.948   3.950
  4.206   4.244   4.263   4.449   4.984   5.007   5.081   5.127
  5.141   5.189   5.220   5.301   6.373   6.383   6.455   6.467
  6.479   6.484   6.491   6.834   6.841   8.134  17.425  17.521
 17.547  23.584  50.025  50.037  66.900  66.908  66.955 189.382
 
 Beta MOs
 -- Occupied --
-89.086 -24.836 -24.836 -24.829 -19.212 -19.212 -10.509  -8.122
 -6.073  -6.068  -6.061  -1.410  -1.326  -1.317  -1.122  -1.033
 -0.781  -0.678  -0.672  -0.660  -0.626  -0.554  -0.554  -0.518
 -0.516  -0.497  -0.496  -0.485  -0.462  -0.351  -0.342  -0.341
 -- Virtual --
 -0.025   0.022   0.087   0.095   0.096   0.103   0.131   0.132
  0.137   0.185   0.191   0.202   0.238   0.269   0.270   0.279
  0.289   0.313   0.316   0.335   0.336   0.347   0.355   0.355
  0.375   0.392   0.400   0.408   0.416   0.417   0.427   0.434
  0.448   0.456   0.509   0.513   0.524   0.537   0.705   0.783
  0.810   0.840   0.875   0.883   0.936   1.086   1.111   1.151
  1.165   1.185   1.199   1.226   1.243   1.262   1.334   1.362
  1.441   1.446   1.464   1.503   1.526   1.542   1.543   1.575
  1.583   1.589   1.720   1.765   1.831   1.914   1.940   1.956
  1.989   2.037   2.068   2.209   2.872   2.948   2.957   2.963
  2.967   2.996   3.033   3.053   3.104   3.129   3.247   3.448
  3.615   3.810   3.844   3.846   3.846   3.869   3.872   3.878
  3.956   3.957   4.213   4.250   4.269   4.459   4.991   5.013
  5.093   5.143   5.149   5.216   5.253   5.312   6.376   6.386
  6.457   6.471   6.484   6.487   6.496   6.840   6.846   8.138
 17.434  17.524  17.553  23.611  50.033  50.045  66.902  66.909
 66.956 189.385
 --------------------------------------------------------------
 
          Ground-State Mulliken Net Atomic Charges

     Atom                 Charge (a.u.)    Spin (a.u.)
  --------------------------------------------------------
      1 S                     0.295165       0.619350
      2 C                     0.134580       0.724663
      3 O                    -0.520656       0.282332
      4 O                    -0.524080       0.279716
      5 F                    -0.123409       0.031366
      6 F                    -0.123022       0.031475
      7 F                    -0.138578       0.031098
  --------------------------------------------------------
  Sum of atomic charges =    -1.000000
  Sum of spin   charges =     2.000000

 -----------------------------------------------------------------
                    Cartesian Multipole Moments
 -----------------------------------------------------------------
    Charge (ESU x 10^10)
                -4.8032
    Dipole Moment (Debye)
         X      -8.0261      Y      -0.5536      Z      -2.1122
       Tot       8.3178
    Quadrupole Moments (Debye-Ang)
        XX     -65.5298     XY      -3.0991     YY     -54.7578
        XZ       0.3589     YZ       1.0317     ZZ     -52.7884
    Octopole Moments (Debye-Ang^2)
       XXX    -205.7284    XXY     -38.3404    XYY     -62.4029
       YYY     -87.4460    XXZ     -15.0147    XYZ       2.0021
       YYZ     -23.9166    XZZ     -61.9887    YZZ     -30.1143
       ZZZ     -64.5095
    Hexadecapole Moments (Debye-Ang^3)
      XXXX    -672.0672   XXXY    -112.9150   XXYY    -182.8926
      XYYY     -92.0556   YYYY    -486.1768   XXXZ     -10.2263
      XXYZ     -30.3298   XYYZ     -14.5118   YYYZ     -99.5291
      XXZZ    -172.1564   XYZZ     -34.7033   YYZZ    -144.0840
      XZZZ     -37.5196   YZZZ    -108.6929   ZZZZ    -376.7432
 -----------------------------------------------------------------
 Calculating analytic gradient of the SCF energy
 Gradient of SCF Energy
            1           2           3           4           5           6
    1  -0.0082052  -0.0077269  -0.0015155   0.0040146   0.0006042   0.0190618
    2   0.0123609  -0.0031091  -0.0023505   0.0029336  -0.0159783   0.0041763
    3   0.0067134  -0.0123874   0.0032203  -0.0008879   0.0122489  -0.0046318
            7
    1  -0.0062329
    2   0.0019671
    3  -0.0042755
 Max gradient component =       1.906E-02
 RMS gradient           =       8.167E-03
 Computing fast CPCM-SWIG gradient
 Updating gradient with PCM contributions...
 -- total gradient after adding PCM contribution --
---------------------------------------------------
  Atom         X              Y              Z     
---------------------------------------------------
   1      -0.011343       0.023894       0.017064
   2       0.003349      -0.041847      -0.046921
   3      -0.003748       0.000872       0.010430
   4       0.005392       0.009785       0.003118
   5      -0.000941       0.000964       0.001126
   6      -0.000460       0.001316       0.000538
   7       0.007752       0.005015       0.014644
---------------------------------------------------
 Number of fixed atoms: 0
 Gradient time:  CPU 41.10 s  wall 2.78 s
 Geometry Optimization Parameters
   NAtoms,    NIC,     NZ,  NCons,   NDum,   NFix, NCnnct, MaxDiis
        7      35       0       0       0       0       0       0

 Cartesian Hessian Update
 Hessian Updated using BFGS Update


** GEOMETRY OPTIMIZATION IN DELOCALIZED INTERNAL COORDINATES **
   Searching for a Minimum

   Optimization Cycle:   5

                       Coordinates (Angstroms)
     ATOM                X               Y               Z
      1  S         1.1171081883   -0.2378275829   -0.6123487876
      2  C         0.9132582264    1.3221271472    1.0450464817
      3  O         0.9355262204   -1.0556081001    0.6791279295
      4  O         2.4450912358    0.5421797701   -0.6438999451
      5  F         0.9120247716    2.4980834495    0.4044761637
      6  F        -0.3249478257    1.1568797415    1.5280642435
      7  F         1.7478408676    1.4548503933    2.1228702341
   Point Group: c1    Number of degrees of freedom:    15


   Energy is   -886.264689331

 Hessian Updated using BFGS Update

 15 Hessian modes will be used to form the next step
  Hessian Eigenvalues:
     0.002000    0.045427    0.091815    0.111297    0.114168    0.250000
     0.250000    0.250984    0.267299    0.500539    0.599359    0.622612
     0.646344    0.952735    1.095178

 Minimum Search - Taking Simple RFO Step
 Searching for Lamda that Minimizes Along All modes
 Value Taken    Lamda =  -0.02468915
 Calculated Step too Large.  Step scaled by  0.547775
 Step Taken.  Stepsize is  0.300000

                             Maximum     Tolerance    Cnvgd?
         Gradient           0.043181      0.000300      NO
         Displacement       0.220449      0.001200      NO
         Energy change     -0.012491      0.000001      NO


 New Cartesian Coordinates Obtained by Inverse Iteration

 Displacement from previous Coordinates is:  0.408356
 ----------------------------------------------------------------
             Standard Nuclear Orientation (Angstroms)
    I     Atom           X                Y                Z
 ----------------------------------------------------------------
    1      S       1.1330837815    -0.2940083060    -0.6626665740
    2      C       0.9129562549     1.3711023388     1.1053596862
    3      O       0.9366230874    -1.1333405977     0.6265404849
    4      O       2.4724930324     0.4884171185    -0.7231489791
    5      F       0.9069887875     2.5252840499     0.4291943788
    6      F      -0.3333180144     1.1834294976     1.5547749634
    7      F       1.7170747551     1.5398007174     2.1932823596
 ----------------------------------------------------------------
 Nuclear Repulsion Energy =   408.0981059615 hartrees
 There are       34 alpha and       32 beta electrons
 Discretize the solute cavity surface with Lebedev spheres
	Using 194 Lebedev grid points for each H atom
	Using 194 Lebedev grid points for other atoms
	Atomic van der Waals radii will be scaled by 1.10
 Remove points where switching function is < 1.0e-08
 Keep 741 surface tesserae and discard 617 interior tesserae
 Molecular Surface Area = 140.337 Angst**2
 Applying Cartesian multipole field
    Component          Value
    ---------          -----
     (2,0,0)        1.00000E-11
     (0,2,0)        2.00000E-11
     (0,0,2)       -3.00000E-11
 Nucleus-field energy     =     0.0000000030 hartrees
 Requested basis set is 6-311++G(d)
 There are 49 shells and 162 basis functions
 A cutoff of  1.0D-12 yielded   1070 shell pairs
 There are     12345 function pairs (     13434 Cartesian)
 Smallest overlap matrix eigenvalue = 8.30E-04
 Guess MOs from SCF MO coefficient file
 Reading MOs from coefficient file
 Reading MOs from coefficient file

 -----------------------------------------------------------------------
  General SCF calculation program by
  Eric Jon Sundstrom, Paul Horn, Yuezhi Mao, Dmitri Zuev, Alec White,
  David Stuck, Shaama M.S., Shane Yost, Joonho Lee, David Small,
  Daniel Levine, Susi Lehtola, Hugh Burton, Evgeny Epifanovsky
 -----------------------------------------------------------------------
 Exchange:     0.2220 Hartree-Fock + 1.0000 wB97X-D + LR-HF
 Correlation:  1.0000 wB97X-D
 Using SG-3 standard quadrature grid
 Dispersion:   Grimme D
 using 24 threads for integral computing
 -------------------------------------------------------
 OpenMP Integral computing Module                
 Release: version 1.0, May 2013, Q-Chem Inc. Pittsburgh 
 -------------------------------------------------------
[...]
    6      F      -0.4704167192     1.4478368307     1.9207753911
    7      F       1.6718873840     1.6147252296     2.2434591152
 ----------------------------------------------------------------
 Nuclear Repulsion Energy =   376.9149597042 hartrees
 There are       34 alpha and       32 beta electrons
 Discretize the solute cavity surface with Lebedev spheres
	Using 194 Lebedev grid points for each H atom
	Using 194 Lebedev grid points for other atoms
	Atomic van der Waals radii will be scaled by 1.10
 Remove points where switching function is < 1.0e-08
 Keep 811 surface tesserae and discard 547 interior tesserae
 Molecular Surface Area = 153.844 Angst**2
 Applying Cartesian multipole field
    Component          Value
    ---------          -----
     (2,0,0)        1.00000E-11
     (0,2,0)        2.00000E-11
     (0,0,2)       -3.00000E-11
 Nucleus-field energy     =     0.0000000021 hartrees
 Requested basis set is 6-311++G(d)
 There are 49 shells and 162 basis functions
 A cutoff of  1.0D-12 yielded   1017 shell pairs
 There are     11739 function pairs (     12748 Cartesian)
 Smallest overlap matrix eigenvalue = 2.00E-03
 Guess MOs from SCF MO coefficient file
 Reading MOs from coefficient file
 Reading MOs from coefficient file

 -----------------------------------------------------------------------
  General SCF calculation program by
  Eric Jon Sundstrom, Paul Horn, Yuezhi Mao, Dmitri Zuev, Alec White,
  David Stuck, Shaama M.S., Shane Yost, Joonho Lee, David Small,
  Daniel Levine, Susi Lehtola, Hugh Burton, Evgeny Epifanovsky
 -----------------------------------------------------------------------
 Exchange:     0.2220 Hartree-Fock + 1.0000 wB97X-D + LR-HF
 Correlation:  1.0000 wB97X-D
 Using SG-3 standard quadrature grid
 Dispersion:   Grimme D
 using 24 threads for integral computing
 -------------------------------------------------------
 OpenMP Integral computing Module                
 Release: version 1.0, May 2013, Q-Chem Inc. Pittsburgh 
 -------------------------------------------------------
 using 24 threads for integral computing
 -------------------------------------------------------
 OpenMP Integral computing Module                
 Release: version 1.0, May 2013, Q-Chem Inc. Pittsburgh 
 -------------------------------------------------------
 -------------------------------------------------------
 OpenMP BLAS3 based DFT computing Module                
 Release: version 1.0, May 2013, Q-Chem Inc. Pittsburgh 
 -------------------------------------------------------
 A unrestricted SCF calculation will be
 performed using Roothaan-Hall, GDM
 SCF converges when RMS gradient is below 1.0e-08
 ---------------------------------------
  Cycle       Energy         DIIS error
 ---------------------------------------
    1    -876.0337823306      2.95e-04  Roothaan Step
 ---------------------------------------
  Cycle       Energy        RMS Gradient
 ---------------------------------------
    1    -886.2928642293      2.27e-02   Normal BFGS step
    2    -886.2937384301      1.82e-02   Normal BFGS step
    3    -886.2949987069      2.04e-03   Normal BFGS step
    4    -886.2950485604      1.53e-03   Normal BFGS step
    5    -886.2950579337      1.27e-03   Normal BFGS step
    6    -886.2950612708      3.60e-04   Normal BFGS step
    7    -886.2950620500      1.94e-04   Normal BFGS step
    8    -886.2950622849      1.01e-04   Normal BFGS step
    9    -886.2950623363      2.98e-05   Normal BFGS step
   10    -886.2950623410      1.23e-05   Normal BFGS step
   11    -886.2950623421      5.91e-06   Normal BFGS step
   12    -886.2950623423      2.72e-06   Normal BFGS step
   13    -886.2950623424      1.72e-06   Normal BFGS step
   14    -886.2950623424      7.73e-07   Normal BFGS step
   15    -886.2950623424      1.54e-07   Normal BFGS step
   16    -886.2950623424      5.63e-08   Normal BFGS step
   17    -886.2950623424      3.08e-08   Normal BFGS step
   18    -886.2950623424      1.24e-08   Normal BFGS step
   19    -886.2950623424      8.03e-09  Convergence criterion met
 ---------------------------------------
 SCF time:   CPU 503.32s  wall 27.00s 
<S^2> =          2.006735617

************** Final PCM Free Energy Summary **************
 G_electrostatic  =      -0.09239421 hartree =     -57.97824373 kcal/mol
 G_cavitation     =       0.00000000 hartree =       0.00000000 kcal/mol
 G_dispersion     =       0.00000000 hartree =       0.00000000 kcal/mol
 G_repulsion      =       0.00000000 hartree =       0.00000000 kcal/mol
 --------------------------------------------------
 Non-electrostatic Free Energy =       0.00000000 hartree =       0.00000000 kcal/mol
 Total                         =      -0.09239421 hartree =     -57.97824373 kcal/mol
 --------------------------------------------------
 SCF Energy (H0 + V/2)                       =    -886.29506234 
 Solute Internal Energy (H0)                 =    -886.20266813 
 Total Free Energy (H0 + V/2 + non-elec)     =    -886.29506234 hartree
                                             = -556158.54572040 kcal/mol
***********************************************************

 SCF   energy in the final basis set =     -886.2950623424
 Total energy in the final basis set =     -886.2950623424
 
 --------------------------------------------------------------
 
                    Orbital Energies (a.u.)
 --------------------------------------------------------------
 
 Alpha MOs
 -- Occupied --
-89.076 -24.863 -24.862 -24.862 -19.206 -19.205 -10.539  -8.113
 -6.062  -6.060  -6.057  -1.449  -1.361  -1.361  -1.128  -1.040
 -0.816  -0.711  -0.710  -0.680  -0.675  -0.584  -0.584  -0.549
 -0.549  -0.524  -0.499  -0.497  -0.488  -0.393  -0.354  -0.352
 -0.336  -0.233
 -- Virtual --
  0.082   0.091   0.093   0.095   0.121   0.124   0.128   0.180
  0.187   0.197   0.237   0.251   0.256   0.264   0.274   0.280
  0.289   0.304   0.324   0.333   0.344   0.351   0.363   0.380
  0.388   0.402   0.411   0.411   0.422   0.429   0.434   0.457
  0.469   0.501   0.509   0.528   0.652   0.715   0.726   0.813
  0.837   0.852   0.897   0.931   1.092   1.134   1.174   1.189
  1.199   1.213   1.221   1.229   1.265   1.283   1.372   1.392
  1.409   1.481   1.493   1.499   1.513   1.541   1.541   1.581
  1.671   1.683   1.766   1.806   1.868   1.912   1.924   1.938
  1.959   2.127   2.762   2.936   2.944   2.944   2.962   2.981
  3.016   3.025   3.033   3.051   3.173   3.433   3.624   3.778
  3.814   3.814   3.815   3.831   3.836   3.837   3.950   3.950
  4.174   4.291   4.293   4.405   4.977   4.985   5.083   5.119
  5.140   5.155   5.200   5.306   6.336   6.337   6.410   6.419
  6.425   6.427   6.433   6.861   6.868   8.126  17.397  17.472
 17.539  23.590  50.024  50.025  66.859  66.865  66.906 189.359
 
 Beta MOs
 -- Occupied --
-89.072 -24.860 -24.860 -24.859 -19.199 -19.198 -10.524  -8.110
 -6.060  -6.055  -6.048  -1.439  -1.353  -1.352  -1.112  -1.024
 -0.798  -0.700  -0.700  -0.651  -0.637  -0.575  -0.574  -0.541
 -0.540  -0.521  -0.486  -0.478  -0.454  -0.343  -0.336  -0.332
 -- Virtual --
 -0.013   0.022   0.086   0.095   0.097   0.098   0.126   0.127
  0.131   0.184   0.194   0.208   0.241   0.261   0.273   0.275
  0.285   0.291   0.297   0.311   0.330   0.338   0.348   0.355
  0.367   0.382   0.390   0.407   0.412   0.416   0.428   0.431
  0.438   0.460   0.472   0.503   0.510   0.531   0.677   0.722
  0.733   0.834   0.861   0.870   0.919   0.947   1.097   1.140
  1.194   1.203   1.209   1.221   1.232   1.241   1.272   1.299
  1.379   1.400   1.414   1.482   1.503   1.510   1.522   1.554
  1.556   1.625   1.680   1.699   1.794   1.814   1.882   1.920
  1.951   1.956   1.963   2.133   2.820   2.958   2.965   2.966
  2.968   3.005   3.033   3.046   3.054   3.073   3.179   3.445
  3.635   3.781   3.819   3.819   3.820   3.839   3.842   3.843
  3.961   3.962   4.184   4.299   4.301   4.415   4.985   4.993
  5.091   5.144   5.148   5.169   5.225   5.313   6.341   6.342
  6.417   6.425   6.428   6.432   6.440   6.868   6.875   8.130
 17.409  17.474  17.541  23.616  50.030  50.032  66.861  66.868
 66.909 189.362
 --------------------------------------------------------------
 
          Ground-State Mulliken Net Atomic Charges

     Atom                 Charge (a.u.)    Spin (a.u.)
  --------------------------------------------------------
      1 S                     0.279076       0.619600
      2 C                     0.196753       0.855325
      3 O                    -0.594020       0.215402
      4 O                    -0.627556       0.197166
      5 F                    -0.084482       0.037765
      6 F                    -0.085662       0.037845
      7 F                    -0.084108       0.036896
  --------------------------------------------------------
  Sum of atomic charges =    -1.000000
  Sum of spin   charges =     2.000000

 -----------------------------------------------------------------
                    Cartesian Multipole Moments
 -----------------------------------------------------------------
    Charge (ESU x 10^10)
                -4.8032
    Dipole Moment (Debye)
         X      -9.3383      Y       1.8514      Z       0.4565
       Tot       9.5310
    Quadrupole Moments (Debye-Ang)
        XX     -71.4342     XY       1.3863     YY     -51.9245
        XZ       5.7857     YZ       1.4375     ZZ     -52.2554
    Octopole Moments (Debye-Ang^2)
       XXX    -236.4687    XXY     -23.8818    XYY     -60.1491
       YYY     -70.0615    XXZ       4.5369    XYZ       1.7543
       YYZ     -16.9185    XZZ     -67.2818    YZZ     -23.1915
       ZZZ     -44.1573
    Hexadecapole Moments (Debye-Ang^3)
      XXXX    -848.3906   XXXY     -27.4825   XXYY    -208.3160
      XYYY     -26.3791   YYYY    -595.8467   XXXZ      99.5570
      XXYZ     -58.4990   XYYZ       7.8912   YYYZ    -169.4919
      XXZZ    -227.7528   XYZZ      -9.6395   YYZZ    -181.4791
      XZZZ      39.6644   YZZZ    -178.7293   ZZZZ    -519.5419
 -----------------------------------------------------------------
 Calculating analytic gradient of the SCF energy
 Gradient of SCF Energy
            1           2           3           4           5           6
    1   0.0037776  -0.0048170   0.0040328  -0.0061324   0.0002922   0.0207770
    2  -0.0042851   0.0215843   0.0011876  -0.0021475  -0.0177332   0.0026448
    3  -0.0020367   0.0206944  -0.0057033   0.0043413   0.0110865  -0.0103998
            7
    1  -0.0179302
    2  -0.0012509
    3  -0.0179823
 Max gradient component =       2.158E-02
 RMS gradient           =       1.133E-02
 Computing fast CPCM-SWIG gradient
 Updating gradient with PCM contributions...
 -- total gradient after adding PCM contribution --
---------------------------------------------------
  Atom         X              Y              Z     
---------------------------------------------------
   1      -0.000118      -0.000007      -0.000020
   2       0.000037      -0.000133       0.000154
   3      -0.000009      -0.000043       0.000022
   4       0.000108       0.000051      -0.000036
   5      -0.000024       0.000089      -0.000053
   6       0.000002       0.000034      -0.000033
   7       0.000004       0.000009      -0.000034
---------------------------------------------------
 Number of fixed atoms: 0
 Gradient time:  CPU 39.76 s  wall 2.79 s
 Geometry Optimization Parameters
   NAtoms,    NIC,     NZ,  NCons,   NDum,   NFix, NCnnct, MaxDiis
        7      35       0       0       0       0       0       0

 Cartesian Hessian Update
 Hessian Updated using BFGS Update


** GEOMETRY OPTIMIZATION IN DELOCALIZED INTERNAL COORDINATES **
   Searching for a Minimum

   Optimization Cycle:  44

                       Coordinates (Angstroms)
     ATOM                X               Y               Z
      1  S         1.3506333222   -0.6120810660   -0.9824761974
      2  C         0.7056134575    1.6149608831    1.3438223702
      3  O         1.0072908142   -1.0955799720    0.4273754284
      4  O         2.7579097398   -0.0291696725   -1.0751029858
      5  F         0.7229836861    2.7399925858    0.6454831980
      6  F        -0.4704167192    1.4478368307    1.9207753911
      7  F         1.6718873840    1.6147252296    2.2434591152
   Point Group: c1    Number of degrees of freedom:    15


   Energy is   -886.295062342

 Hessian Updated using BFGS Update

 15 Hessian modes will be used to form the next step
  Hessian Eigenvalues:
     0.000388    0.003947    0.005948    0.011090    0.016377    0.051926
     0.149391    0.165784    0.312443    0.426221    0.528081    0.591585
     0.634461    0.847328    0.939190

 Minimum Search - Taking Simple RFO Step
 Searching for Lamda that Minimizes Along All modes
 Value Taken    Lamda =   0.00000000
 Step Taken.  Stepsize is  0.008576

                             Maximum     Tolerance    Cnvgd?
         Gradient           0.000113      0.000300     YES
         Displacement       0.004448      0.001200      NO
         Energy change     -0.000001      0.000001     YES


                       Distance Matrix (Angstroms)
             S (  1)   C (  2)   O (  3)   O (  4)   F (  5)   F (  6)
   C (  2)  3.284423
   O (  3)  1.529489  2.877137
   O (  4)  1.526038  3.572994  2.541523
   F (  5)  3.778967  1.324264  3.852274  3.843124
   F (  6)  3.998544  1.320550  3.298914  4.645312  2.172612
   F (  7)  3.933005  1.320239  3.329505  3.859364  2.172596  2.172888

 
 Final energy is   -886.295062342419     


 ******************************
 **  OPTIMIZATION CONVERGED  **
 ******************************

                       Coordinates (Angstroms)
     ATOM                X               Y               Z
      1  S         1.3506333222   -0.6120810660   -0.9824761974
      2  C         0.7056134575    1.6149608831    1.3438223702
      3  O         1.0072908142   -1.0955799720    0.4273754284
      4  O         2.7579097398   -0.0291696725   -1.0751029858
      5  F         0.7229836861    2.7399925858    0.6454831980
      6  F        -0.4704167192    1.4478368307    1.9207753911
      7  F         1.6718873840    1.6147252296    2.2434591152

Z-matrix Print:
$molecule
-1 3
S 
O  1 1.526038
O  1 1.529489 2 112.563764
C  3 2.877137 1 91.107944 2 74.208994 0
F  4 1.320239 3 98.056018 1 -117.765371 0
F  4 1.320550 3 96.506486 1 130.145556 0
F  4 1.324264 3 129.124852 1 7.029915 0
$end

 
 --------------------------------------------------------------
 
                    Orbital Energies (a.u.)
 --------------------------------------------------------------
 
 Alpha MOs
 -- Occupied --
-89.076 -24.863 -24.862 -24.862 -19.206 -19.205 -10.539  -8.113
 -6.062  -6.060  -6.057  -1.449  -1.361  -1.361  -1.128  -1.040
 -0.816  -0.711  -0.710  -0.680  -0.675  -0.584  -0.584  -0.549
 -0.549  -0.524  -0.499  -0.497  -0.488  -0.393  -0.354  -0.352
 -0.336  -0.233
 -- Virtual --
  0.082   0.091   0.093   0.095   0.121   0.124   0.128   0.180
  0.187   0.197   0.237   0.251   0.256   0.264   0.274   0.280
  0.289   0.304   0.324   0.333   0.344   0.351   0.363   0.380
  0.388   0.402   0.411   0.411   0.422   0.429   0.434   0.457
  0.469   0.501   0.509   0.528   0.652   0.715   0.726   0.813
  0.837   0.852   0.897   0.931   1.092   1.134   1.174   1.189
  1.199   1.213   1.221   1.229   1.265   1.283   1.372   1.392
  1.409   1.481   1.493   1.499   1.513   1.541   1.541   1.581
  1.671   1.683   1.766   1.806   1.868   1.912   1.924   1.938
  1.959   2.127   2.762   2.936   2.944   2.944   2.962   2.981
  3.016   3.025   3.033   3.051   3.173   3.433   3.624   3.778
  3.814   3.814   3.815   3.831   3.836   3.837   3.950   3.950
  4.174   4.291   4.293   4.405   4.977   4.985   5.083   5.119
  5.140   5.155   5.200   5.306   6.336   6.337   6.410   6.419
  6.425   6.427   6.433   6.861   6.868   8.126  17.397  17.472
 17.539  23.590  50.024  50.025  66.859  66.865  66.906 189.359
 
 Beta MOs
 -- Occupied --
-89.072 -24.860 -24.860 -24.859 -19.199 -19.198 -10.524  -8.110
 -6.060  -6.055  -6.048  -1.439  -1.353  -1.352  -1.112  -1.024
 -0.798  -0.700  -0.700  -0.651  -0.637  -0.575  -0.574  -0.541
 -0.540  -0.521  -0.486  -0.478  -0.454  -0.343  -0.336  -0.332
 -- Virtual --
 -0.013   0.022   0.086   0.095   0.097   0.098   0.126   0.127
  0.131   0.184   0.194   0.208   0.241   0.261   0.273   0.275
  0.285   0.291   0.297   0.311   0.330   0.338   0.348   0.355
  0.367   0.382   0.390   0.407   0.412   0.416   0.428   0.431
  0.438   0.460   0.472   0.503   0.510   0.531   0.677   0.722
  0.733   0.834   0.861   0.870   0.919   0.947   1.097   1.140
  1.194   1.203   1.209   1.221   1.232   1.241   1.272   1.299
  1.379   1.400   1.414   1.482   1.503   1.510   1.522   1.554
  1.556   1.625   1.680   1.699   1.794   1.814   1.882   1.920
  1.951   1.956   1.963   2.133   2.820   2.958   2.965   2.966
  2.968   3.005   3.033   3.046   3.054   3.073   3.179   3.445
  3.635   3.781   3.819   3.819   3.820   3.839   3.842   3.843
  3.961   3.962   4.184   4.299   4.301   4.415   4.985   4.993
  5.091   5.144   5.148   5.169   5.225   5.313   6.341   6.342
  6.417   6.425   6.428   6.432   6.440   6.868   6.875   8.130
 17.409  17.474  17.541  23.616  50.030  50.032  66.861  66.868
 66.909 189.362
 --------------------------------------------------------------
 
          Ground-State Mulliken Net Atomic Charges

     Atom                 Charge (a.u.)    Spin (a.u.)
  --------------------------------------------------------
      1 S                     0.279076       0.619600
      2 C                     0.196753       0.855325
      3 O                    -0.594020       0.215402
      4 O                    -0.627556       0.197166
      5 F                    -0.084482       0.037765
      6 F                    -0.085662       0.037845
      7 F                    -0.084108       0.036896
  --------------------------------------------------------
  Sum of atomic charges =    -1.000000
  Sum of spin   charges =     2.000000

 -----------------------------------------------------------------
                    Cartesian Multipole Moments
 -----------------------------------------------------------------
    Charge (ESU x 10^10)
                -4.8032
    Dipole Moment (Debye)
         X      -9.3383      Y       1.8514      Z       0.4565
       Tot       9.5310
    Quadrupole Moments (Debye-Ang)
        XX     -71.4342     XY       1.3863     YY     -51.9245
        XZ       5.7857     YZ       1.4375     ZZ     -52.2554
    Octopole Moments (Debye-Ang^2)
       XXX    -236.4687    XXY     -23.8818    XYY     -60.1491
       YYY     -70.0615    XXZ       4.5369    XYZ       1.7543
       YYZ     -16.9185    XZZ     -67.2818    YZZ     -23.1915
       ZZZ     -44.1573
    Hexadecapole Moments (Debye-Ang^3)
      XXXX    -848.3906   XXXY     -27.4825   XXYY    -208.3160
      XYYY     -26.3791   YYYY    -595.8467   XXXZ      99.5570
      XXYZ     -58.4990   XYYZ       7.8912   YYYZ    -169.4919
      XXZZ    -227.7528   XYZZ      -9.6395   YYZZ    -181.4791
      XZZZ      39.6644   YZZZ    -178.7293   ZZZZ    -519.5419
 -----------------------------------------------------------------
Archival summary:
1\1\nid04092\OPT\ProcedureUnspecified\BasisUnspecified\1321(1-,3)\sblau\TueNov1319:12:582018TueNov1319:12:582018\0\\#,OPT,ProcedureUnspecified,BasisUnspecified,\\-1,3\S\O,1,1.52604\O,1,1.52949,2,112.564\C,3,2.87714,1,91.1079,2,74.209,0\F,4,1.32024,3,98.056,1,-117.765,0\F,4,1.32055,3,96.5065,1,130.146,0\F,4,1.32426,3,129.125,1,7.02991,0\\\@

 Total job time:  1288.59s(wall), 24719.53s(cpu) 
 Tue Nov 13 19:12:58 2018

        *************************************************************
        *                                                           *
        *  Thank you very much for using Q-Chem.  Have a nice day.  *
        *                                                           *
        *************************************************************


