  12   12    1    2
  8.6991208e+01   5.0503747e-10   5.0503747e-10   5.0503746e-10   5.0000000e-16
            1.000000e-04
  CAR
 DOS and projected DOS file by LOBSTER. Energy is shifted such that the Fermi level lies at 0 eV. 
     26.72443834     -11.08293766   756       7.34502839       1.00000000
-18.42797   0.00000   0.00000   0.00000   0.00000
-18.37789   0.00000   0.00000   0.00000   0.00000
-18.32781   0.00000   0.00000   0.00000   0.00000
-18.27774   0.00000   0.00000   0.00000   0.00000
-18.22766   0.00000   0.00000   0.00000   0.00000
-18.17759   0.00000   0.00000   0.00000   0.00000
-18.12751   0.00000   0.00000   0.00000   0.00000
-18.07743   0.00000   0.00000   0.00000   0.00000
-18.02736   0.00000   0.00000   0.00000   0.00000
-17.97728   0.00000   0.00000   0.00000   0.00000
-17.92721   0.00000   0.00000   0.00000   0.00000
-17.87713   0.00000   0.00000   0.00000   0.00000
-17.82705   0.00000   0.00000   0.00000   0.00000
-17.77698   0.00000   0.00000   0.00000   0.00000
-17.72690   0.00000   0.00000   0.00000   0.00000
-17.67683   0.00000   0.00000   0.00000   0.00000
-17.62675   0.00000   0.00000   0.00000   0.00000
-17.57667   0.00624   0.00624   0.00031   0.00031
-17.52660   0.08365   0.08365   0.00450   0.00450
-17.47652   0.21620   0.21620   0.01533   0.01533
-17.42645   0.24829   0.24829   0.02776   0.02776
-17.37637   0.30472   0.30472   0.04302   0.04302
-17.32629   0.36580   0.36580   0.06134   0.06134
-17.27622   0.42445   0.42445   0.08259   0.08259
-17.22614   0.48105   0.48105   0.10668   0.10668
-17.17607   0.53448   0.53448   0.13345   0.13345
-17.12599   0.59580   0.59580   0.16328   0.16328
-17.07591   0.67698   0.67698   0.19718   0.19718
-17.02584   0.81881   0.81880   0.23819   0.23819
-16.97576   0.90289   0.90289   0.28340   0.28340
-16.92569   0.91898   0.91898   0.32942   0.32942
-16.87561   1.00267   1.00267   0.37963   0.37963
-16.82553   1.10807   1.10807   0.43511   0.43511
-16.77546   1.27084   1.27084   0.49875   0.49875
-16.72538   1.52114   1.52114   0.57493   0.57493
-16.67531   1.60683   1.60683   0.65539   0.65539
-16.62523   1.68289   1.68289   0.73966   0.73966
-16.57515   1.84216   1.84216   0.83191   0.83191
-16.52508   2.07107   2.07107   0.93562   0.93562
-16.47500   1.22515   1.22515   0.99697   0.99697
-16.42493   0.06053   0.06053   1.00000   1.00000
-16.37485   0.00000   0.00000   1.00000   1.00000
-16.32477   0.00000   0.00000   1.00000   1.00000
-16.27470   0.00000   0.00000   1.00000   1.00000
-16.22462   0.00000   0.00000   1.00000   1.00000
-16.17455   0.00000   0.00000   1.00000   1.00000
-16.12447   0.00000   0.00000   1.00000   1.00000
-16.07439   0.00000   0.00000   1.00000   1.00000
-16.02432   0.00000   0.00000   1.00000   1.00000
-15.97424   0.00000   0.00000   1.00000   1.00000
-15.92417   0.00000   0.00000   1.00000   1.00000
-15.87409   0.00000   0.00000   1.00000   1.00000
-15.82401   0.00000   0.00000   1.00000   1.00000
-15.77394   0.00000   0.00000   1.00000   1.00000
-15.72386   0.00000   0.00000   1.00000   1.00000
-15.67379   0.00000   0.00000   1.00000   1.00000
-15.62371   0.00000   0.00000   1.00000   1.00000
-15.57363   0.00000   0.00000   1.00000   1.00000
-15.52356   0.00000   0.00000   1.00000   1.00000
-15.47348   0.00000   0.00000   1.00000   1.00000
-15.42341   0.00000   0.00000   1.00000   1.00000
-15.37333   0.00000   0.00000   1.00000   1.00000
-15.32325   0.00000   0.00000   1.00000   1.00000
-15.27318   0.00000   0.00000   1.00000   1.00000
-15.22310   0.00000   0.00000   1.00000   1.00000
-15.17303   0.00000   0.00000   1.00000   1.00000
-15.12295   0.00000   0.00000   1.00000   1.00000
-15.07287   0.00000   0.00000   1.00000   1.00000
-15.02280   0.00000   0.00000   1.00000   1.00000
-14.97272   0.00000   0.00000   1.00000   1.00000
-14.92265   0.00000   0.00000   1.00000   1.00000
-14.87257   0.00000   0.00000   1.00000   1.00000
-14.82249   0.00000   0.00000   1.00000   1.00000
-14.77242   0.00000   0.00000   1.00000   1.00000
-14.72234   0.00000   0.00000   1.00000   1.00000
-14.67227   0.00000   0.00000   1.00000   1.00000
-14.62219   0.00241   0.00241   1.00012   1.00012
-14.57211   0.39096   0.39096   1.01970   1.01970
-14.52204   0.35432   0.35432   1.03744   1.03744
-14.47196   0.49628   0.49628   1.06230   1.06230
-14.42189   0.94300   0.94300   1.10952   1.10952
-14.37181   1.29453   1.29453   1.17434   1.17434
-14.32173   1.42577   1.42577   1.24574   1.24574
-14.27166   1.67670   1.67670   1.32970   1.32970
-14.22158   1.50699   1.50699   1.40517   1.40517
-14.17151   1.25987   1.25987   1.46826   1.46825
-14.12143   0.79020   0.79020   1.50783   1.50782
-14.07135   0.69686   0.69686   1.54272   1.54272
-14.02128   0.60047   0.60065   1.57279   1.57280
-13.97120   0.64762   0.64749   1.60522   1.60522
-13.92113   0.65640   0.65639   1.63809   1.63809
-13.87105   0.79523   0.79522   1.67791   1.67791
-13.82097   0.88324   0.88324   1.72214   1.72214
-13.77090   0.94535   0.94536   1.76948   1.76948
-13.72082   0.84227   0.84225   1.81166   1.81166
-13.67075   0.77955   0.77954   1.85069   1.85069
-13.62067   0.72962   0.72961   1.88723   1.88723
-13.57059   0.69953   0.69953   1.92226   1.92226
-13.52052   0.73925   0.73925   1.95928   1.95928
-13.47044   0.95642   0.95642   2.00717   2.00717
-13.42037   1.07991   1.07991   2.06125   2.06125
-13.37029   1.01825   1.01825   2.11224   2.11224
-13.32021   1.06230   1.06230   2.16544   2.16544
-13.27014   1.07365   1.07365   2.21920   2.21920
-13.22006   1.04376   1.04377   2.27147   2.27147
-13.16999   1.01439   1.01440   2.32226   2.32226
-13.11991   0.99714   0.99715   2.37220   2.37220
-13.06983   0.93356   0.93357   2.41895   2.41895
-13.01976   0.86943   0.86944   2.46248   2.46249
-12.96968   1.01838   1.01839   2.51348   2.51348
-12.91961   1.14574   1.14575   2.57085   2.57086
-12.86953   1.28187   1.28188   2.63505   2.63505
-12.81945   1.42031   1.42032   2.70617   2.70617
-12.76938   1.60760   1.60761   2.78667   2.78668
-12.71930   1.90604   1.90605   2.88212   2.88212
-12.66923   1.74226   1.74226   2.96936   2.96937
-12.61915   1.68201   1.68200   3.05359   3.05360
-12.56907   1.65006   1.65005   3.13622   3.13622
-12.51900   1.64558   1.64556   3.21862   3.21863
-12.46892   1.62756   1.62753   3.30013   3.30013
-12.41885   1.60467   1.60464   3.38048   3.38048
-12.36877   1.58746   1.58744   3.45997   3.45997
-12.31869   1.56293   1.56292   3.53824   3.53824
-12.26862   1.53087   1.53088   3.61490   3.61490
-12.21854   1.40693   1.40697   3.68535   3.68536
-12.16847   1.24559   1.24564   3.74773   3.74773
-12.11839   1.04317   1.04324   3.79996   3.79997
-12.06831   0.83814   0.83809   3.84194   3.84194
-12.01824   0.67729   0.67725   3.87585   3.87586
-11.96816   0.59331   0.59327   3.90556   3.90556
-11.91809   0.52734   0.52731   3.93197   3.93197
-11.86801   0.47930   0.47928   3.95597   3.95597
-11.81793   0.39975   0.39974   3.97599   3.97599
-11.76786   0.27392   0.27391   3.98970   3.98970
-11.71778   0.14696   0.14696   3.99706   3.99706
-11.66771   0.05265   0.05265   3.99970   3.99970
-11.61763   0.00619   0.00619   4.00001   4.00001
-11.56755   0.00000   0.00000   4.00001   4.00001
-11.51748   0.00000   0.00000   4.00001   4.00001
-11.46740   0.00194   0.00194   4.00011   4.00011
-11.41733   0.02681   0.02681   4.00145   4.00145
-11.36725   0.05097   0.05097   4.00400   4.00400
-11.31717   0.07736   0.07736   4.00788   4.00788
-11.26710   0.10810   0.10810   4.01329   4.01329
-11.21702   0.14278   0.14278   4.02044   4.02044
-11.16695   0.17923   0.17923   4.02941   4.02941
-11.11687   0.21737   0.21738   4.04030   4.04030
-11.06679   0.26266   0.26268   4.05345   4.05345
-11.01672   0.31454   0.31455   4.06920   4.06920
-10.96664   0.37324   0.37324   4.08789   4.08789
-10.91657   0.47230   0.47232   4.11154   4.11155
-10.86649   0.56074   0.56074   4.13962   4.13963
-10.81641   0.64392   0.64391   4.17187   4.17187
-10.76634   0.73096   0.73094   4.20847   4.20847
-10.71626   0.79440   0.79439   4.24825   4.24825
-10.66619   0.84814   0.84813   4.29072   4.29072
-10.61611   0.91098   0.91098   4.33634   4.33634
-10.56603   0.97731   0.97731   4.38528   4.38528
-10.51596   1.03436   1.03436   4.43708   4.43708
-10.46588   1.08517   1.08517   4.49142   4.49142
-10.41581   1.16794   1.16794   4.54991   4.54991
-10.36573   1.23286   1.23285   4.61164   4.61164
-10.31565   1.21010   1.21010   4.67224   4.67224
-10.26558   1.16808   1.16807   4.73073   4.73073
-10.21550   1.15665   1.15665   4.78865   4.78865
-10.16543   1.13799   1.13799   4.84564   4.84564
-10.11535   1.08572   1.08572   4.90001   4.90001
-10.06527   0.99320   0.99319   4.94974   4.94974
-10.01520   0.89924   0.89924   4.99477   4.99477
 -9.96512   0.90805   0.90805   5.04024   5.04024
 -9.91505   1.04030   1.04030   5.09234   5.09234
 -9.86497   1.31735   1.31735   5.15831   5.15831
 -9.81489   1.70143   1.70143   5.24351   5.24351
 -9.76482   2.13379   2.13378   5.35036   5.35036
 -9.71474   2.13561   2.13560   5.45730   5.45730
 -9.66467   1.87809   1.87807   5.55135   5.55135
 -9.61459   1.60150   1.60148   5.63155   5.63154
 -9.56451   1.44091   1.44090   5.70370   5.70370
 -9.51444   1.41536   1.41535   5.77458   5.77457
 -9.46436   1.45663   1.45663   5.84752   5.84751
 -9.41429   1.49392   1.49394   5.92233   5.92232
 -9.36421   1.27750   1.27753   5.98630   5.98630
 -9.31414   1.10086   1.10088   6.04143   6.04142
 -9.26406   1.03751   1.03751   6.09338   6.09338
 -9.21398   0.96354   0.96354   6.14163   6.14163
 -9.16391   0.92389   0.92388   6.18790   6.18789
 -9.11383   0.84831   0.84830   6.23038   6.23037
 -9.06376   0.96201   0.96201   6.27855   6.27855
 -9.01368   1.54398   1.54393   6.35587   6.35586
 -8.96360   1.62032   1.62035   6.43701   6.43700
 -8.91353   1.77085   1.77085   6.52568   6.52568
 -8.86345   1.78792   1.78793   6.61521   6.61521
 -8.81338   1.69036   1.69037   6.69986   6.69986
 -8.76330   1.48267   1.48268   6.77411   6.77410
 -8.71322   1.24919   1.24924   6.83666   6.83666
 -8.66315   1.38807   1.38819   6.90617   6.90618
 -8.61307   1.45809   1.45818   6.97919   6.97920
 -8.56300   1.40798   1.40793   7.04969   7.04970
 -8.51292   1.25366   1.25360   7.11247   7.11248
 -8.46284   1.16287   1.16285   7.17070   7.17071
 -8.41277   1.18577   1.18577   7.23008   7.23008
 -8.36269   1.45353   1.45355   7.30287   7.30287
 -8.31262   1.73749   1.73760   7.38987   7.38988
 -8.26254   1.77742   1.77740   7.47888   7.47889
 -8.21246   1.73435   1.73430   7.56573   7.56574
 -8.16239   1.62700   1.62696   7.64720   7.64721
 -8.11231   1.53454   1.53451   7.72405   7.72405
 -8.06224   1.50399   1.50397   7.79936   7.79936
 -8.01216   1.49121   1.49121   7.87403   7.87404
 -7.96208   1.47923   1.47923   7.94811   7.94811
 -7.91201   1.38936   1.38935   8.01768   8.01768
 -7.86193   1.35089   1.35089   8.08533   8.08533
 -7.81186   1.30110   1.30110   8.15048   8.15048
 -7.76178   1.24465   1.24465   8.21281   8.21281
 -7.71170   1.18730   1.18730   8.27227   8.27227
 -7.66163   1.12629   1.12630   8.32867   8.32867
 -7.61155   1.14844   1.14844   8.38618   8.38618
 -7.56148   1.43326   1.43326   8.45795   8.45795
 -7.51140   1.45916   1.45916   8.53102   8.53102
 -7.46132   1.46853   1.46853   8.60455   8.60456
 -7.41125   1.64034   1.64036   8.68670   8.68670
 -7.36117   1.74599   1.74605   8.77413   8.77413
 -7.31110   1.78486   1.78481   8.86351   8.86351
 -7.26102   1.72702   1.72692   8.94999   8.94999
 -7.21094   1.63479   1.63478   9.03185   9.03185
 -7.16087   1.62690   1.62690   9.11332   9.11332
 -7.11079   1.74107   1.74116   9.20051   9.20051
 -7.06072   1.95666   1.95674   9.29849   9.29850
 -7.01064   1.80070   1.80069   9.38866   9.38867
 -6.96056   1.83401   1.83395   9.48050   9.48050
 -6.91049   1.87403   1.87395   9.57435   9.57434
 -6.86041   2.33243   2.33237   9.69114   9.69114
 -6.81034   2.23510   2.23509   9.80307   9.80306
 -6.76026   1.82408   1.82408   9.89441   9.89441
 -6.71018   1.98341   1.98340   9.99373   9.99373
 -6.66011   1.88502   1.88498  10.08813  10.08812
 -6.61003   1.50276   1.50277  10.16338  10.16337
 -6.55996   0.79502   0.79504  10.20319  10.20318
 -6.50988   0.60588   0.60589  10.23353  10.23353
 -6.45980   0.62185   0.62186  10.26467  10.26467
 -6.40973   0.64445   0.64446  10.29694  10.29694
 -6.35965   0.66377   0.66378  10.33018  10.33018
 -6.30958   0.74183   0.74184  10.36733  10.36732
 -6.25950   0.67494   0.67495  10.40113  10.40112
 -6.20942   0.66808   0.66809  10.43458  10.43458
 -6.15935   0.66885   0.66886  10.46808  10.46807
 -6.10927   0.66750   0.66751  10.50150  10.50150
 -6.05920   0.66605   0.66606  10.53486  10.53485
 -6.00912   0.67077   0.67077  10.56844  10.56844
 -5.95904   0.68594   0.68594  10.60279  10.60279
 -5.90897   0.70700   0.70700  10.63820  10.63820
 -5.85889   0.73041   0.73041  10.67477  10.67477
 -5.80882   0.78182   0.78181  10.71392  10.71392
 -5.75874   0.90472   0.90469  10.75923  10.75922
 -5.70866   1.04901   1.04903  10.81176  10.81176
 -5.65859   1.27808   1.27809  10.87576  10.87576
 -5.60851   1.63812   1.63811  10.95779  10.95779
 -5.55844   2.02357   2.02354  11.05912  11.05912
 -5.50836   2.30447   2.30445  11.17452  11.17452
 -5.45828   2.29991   2.29990  11.28969  11.28969
 -5.40821   2.40519   2.40517  11.41013  11.41013
 -5.35813   2.57987   2.57986  11.53932  11.53932
 -5.30806   2.66690   2.66689  11.67287  11.67286
 -5.25798   2.76117   2.76117  11.81114  11.81113
 -5.20790   3.18227   3.18226  11.97049  11.97049
 -5.15783   3.21439   3.21440  12.13146  12.13145
 -5.10775   3.04504   3.04505  12.28394  12.28393
 -5.05768   2.13588   2.13588  12.39090  12.39089
 -5.00760   1.73993   1.73993  12.47803  12.47802
 -4.95752   1.93464   1.93468  12.57490  12.57490
 -4.90745   2.23122   2.23138  12.68664  12.68664
 -4.85737   2.45887   2.45895  12.80977  12.80977
 -4.80730   2.44825   2.44830  12.93236  12.93238
 -4.75722   2.36580   2.36579  13.05083  13.05084
 -4.70714   2.30379   2.30373  13.16620  13.16621
 -4.65707   2.13777   2.13770  13.27325  13.27325
 -4.60699   2.33173   2.33166  13.39001  13.39001
 -4.55692   3.16755   3.16749  13.54863  13.54863
 -4.50684   2.88195   2.88192  13.69295  13.69294
 -4.45676   1.94876   1.94875  13.79053  13.79053
 -4.40669   1.53680   1.53679  13.86749  13.86749
 -4.35661   1.21470   1.21469  13.92832  13.92831
 -4.30654   1.17632   1.17632  13.98722  13.98722
 -4.25646   1.07644   1.07643  14.04113  14.04112
 -4.20638   1.11021   1.11021  14.09672  14.09672
 -4.15631   1.43137   1.43137  14.16840  14.16839
 -4.10623   2.10798   2.10798  14.27396  14.27395
 -4.05616   2.55374   2.55374  14.40184  14.40183
 -4.00608   3.01301   3.01301  14.55272  14.55271
 -3.95600   2.84788   2.84788  14.69533  14.69532
 -3.90593   2.49174   2.49174  14.82011  14.82010
 -3.85585   2.20383   2.20386  14.93047  14.93046
 -3.80578   2.83206   2.83214  15.07228  15.07228
 -3.75570   2.80256   2.80258  15.21262  15.21263
 -3.70562   2.64352   2.64351  15.34500  15.34500
 -3.65555   2.62982   2.62975  15.47669  15.47669
 -3.60547   2.29490   2.29489  15.59161  15.59161
 -3.55540   2.25037   2.25037  15.70430  15.70430
 -3.50532   2.41893   2.41895  15.82543  15.82543
 -3.45524   2.12553   2.12556  15.93187  15.93187
 -3.40517   2.63267   2.63272  16.06370  16.06370
 -3.35509   3.33313   3.33322  16.23061  16.23062
 -3.30502   4.26792   4.26791  16.44433  16.44434
 -3.25494   4.11812   4.11807  16.65055  16.65056
 -3.20486   2.84340   2.84335  16.79294  16.79294
 -3.15479   1.92344   1.92340  16.88926  16.88926
 -3.10471   1.64776   1.64775  16.97177  16.97177
 -3.05464   1.46322   1.46321  17.04504  17.04504
 -3.00456   1.38829   1.38830  17.11456  17.11456
 -2.95448   1.30704   1.30701  17.18001  17.18001
 -2.90441   1.21064   1.21063  17.24064  17.24063
 -2.85433   1.14343   1.14342  17.29790  17.29789
 -2.80426   1.05801   1.05801  17.35088  17.35087
 -2.75418   1.03963   1.03962  17.40294  17.40293
 -2.70410   1.04531   1.04529  17.45528  17.45528
 -2.65403   0.98125   0.98124  17.50442  17.50441
 -2.60395   0.95840   0.95840  17.55241  17.55241
 -2.55388   0.94522   0.94522  17.59974  17.59974
 -2.50380   0.93288   0.93288  17.64646  17.64645
 -2.45372   0.91955   0.91955  17.69251  17.69250
 -2.40365   0.91775   0.91775  17.73846  17.73846
 -2.35357   0.95797   0.95797  17.78644  17.78643
 -2.30350   1.00838   1.00838  17.83693  17.83693
 -2.25342   0.85620   0.85620  17.87981  17.87980
 -2.20334   0.69141   0.69141  17.91443  17.91442
 -2.15327   0.53315   0.53315  17.94113  17.94112
 -2.10319   0.35769   0.35769  17.95904  17.95903
 -2.05312   0.20433   0.20433  17.96927  17.96927
 -2.00304   0.13642   0.13642  17.97610  17.97610
 -1.95296   0.11529   0.11529  17.98188  17.98187
 -1.90289   0.09697   0.09697  17.98673  17.98673
 -1.85281   0.07890   0.07890  17.99068  17.99068
 -1.80274   0.06109   0.06109  17.99374  17.99374
 -1.75266   0.04396   0.04396  17.99594  17.99594
 -1.70258   0.03116   0.03116  17.99750  17.99750
 -1.65251   0.02218   0.02218  17.99861  17.99861
 -1.60243   0.01473   0.01473  17.99935  17.99935
 -1.55236   0.00873   0.00873  17.99979  17.99978
 -1.50228   0.00417   0.00417  18.00000  17.99999
 -1.45220   0.00102   0.00102  18.00005  18.00004
 -1.40213   0.00000   0.00000  18.00005  18.00004
 -1.35205   0.00000   0.00000  18.00005  18.00004
 -1.30198   0.00000   0.00000  18.00005  18.00004
 -1.25190   0.00000   0.00000  18.00005  18.00004
 -1.20182   0.00000   0.00000  18.00005  18.00004
 -1.15175   0.00000   0.00000  18.00005  18.00004
 -1.10167   0.00000   0.00000  18.00005  18.00004
 -1.05160   0.00000   0.00000  18.00005  18.00004
 -1.00152   0.00000   0.00000  18.00005  18.00004
 -0.95144   0.00000   0.00000  18.00005  18.00004
 -0.90137   0.00000   0.00000  18.00005  18.00004
 -0.85129   0.00000   0.00000  18.00005  18.00004
 -0.80122   0.00000   0.00000  18.00005  18.00004
 -0.75114   0.00000   0.00000  18.00005  18.00004
 -0.70106   0.00000   0.00000  18.00005  18.00004
 -0.65099   0.00000   0.00000  18.00005  18.00004
 -0.60091   0.00000   0.00000  18.00005  18.00004
 -0.55084   0.00000   0.00000  18.00005  18.00004
 -0.50076   0.00000   0.00000  18.00005  18.00004
 -0.45068   0.00000   0.00000  18.00005  18.00004
 -0.40061   0.00000   0.00000  18.00005  18.00004
 -0.35053   0.00000   0.00000  18.00005  18.00004
 -0.30046   0.00000   0.00000  18.00005  18.00004
 -0.25038   0.00000   0.00000  18.00005  18.00004
 -0.20030   0.00000   0.00000  18.00005  18.00004
 -0.15023   0.00000   0.00000  18.00005  18.00004
 -0.10015   0.00000   0.00000  18.00005  18.00004
 -0.05008   0.00000   0.00000  18.00005  18.00004
  0.00000   0.00000   0.00000  18.00005  18.00004
  0.05008   0.03482   0.03482  18.00179  18.00179
  0.10015   0.21734   0.21734  18.01268  18.01267
  0.15023   0.56634   0.56635  18.04104  18.04103
  0.20030   0.91077   0.91079  18.08664  18.08664
  0.25038   1.54012   1.54014  18.16377  18.16376
  0.30046   2.55448   2.55449  18.29169  18.29168
  0.35053   2.25909   2.25909  18.40481  18.40481
  0.40061   1.43461   1.43461  18.47665  18.47665
  0.45068   1.32455   1.32455  18.54298  18.54298
  0.50076   1.20988   1.20988  18.60356  18.60356
  0.55084   1.13554   1.13553  18.66043  18.66042
  0.60091   1.04466   1.04464  18.71274  18.71274
  0.65099   0.99381   0.99377  18.76251  18.76250
  0.70106   0.87755   0.87751  18.80645  18.80644
  0.75114   0.74868   0.74866  18.84394  18.84393
  0.80122   0.65826   0.65825  18.87691  18.87689
  0.85129   0.57381   0.57380  18.90564  18.90563
  0.90137   0.49030   0.49030  18.93019  18.93018
  0.95144   0.39876   0.39877  18.95016  18.95015
  1.00152   0.29981   0.29982  18.96517  18.96516
  1.05160   0.40657   0.40657  18.98553  18.98552
  1.10167   0.75431   0.75431  19.02331  19.02329
  1.15175   0.78285   0.78285  19.06251  19.06250
  1.20182   0.63995   0.63995  19.09455  19.09454
  1.25190   0.58557   0.58558  19.12388  19.12387
  1.30198   0.65531   0.65531  19.15669  19.15668
  1.35205   0.72240   0.72240  19.19287  19.19286
  1.40213   0.83719   0.83719  19.23479  19.23478
  1.45220   1.19264   1.19234  19.29451  19.29449
  1.50228   1.81170   1.81162  19.38524  19.38521
  1.55236   2.37791   2.37775  19.50431  19.50427
  1.60243   1.86091   1.86095  19.59750  19.59746
  1.65251   1.74098   1.74121  19.68468  19.68466
  1.70258   2.09735   2.09750  19.78971  19.78969
  1.75266   2.16284   2.16289  19.89801  19.89800
  1.80274   2.18722   2.18724  20.00754  20.00753
  1.85281   1.98749   1.98751  20.10707  20.10705
  1.90289   1.83616   1.83616  20.19901  20.19900
  1.95296   1.78348   1.78348  20.28832  20.28831
  2.00304   1.58205   1.58205  20.36755  20.36753
  2.05312   1.44897   1.44897  20.44010  20.44009
  2.10319   1.20607   1.20606  20.50050  20.50049
  2.15327   1.11167   1.11167  20.55617  20.55616
  2.20334   1.07169   1.07170  20.60983  20.60982
  2.25342   1.14049   1.14050  20.66694  20.66693
  2.30350   1.09534   1.09534  20.72179  20.72178
  2.35357   1.09105   1.09105  20.77643  20.77642
  2.40365   1.20918   1.20918  20.83698  20.83697
  2.45372   1.66093   1.66091  20.92015  20.92014
  2.50380   1.72644   1.72638  21.00661  21.00659
  2.55388   1.70959   1.70948  21.09222  21.09220
  2.60395   1.84591   1.84576  21.18465  21.18462
  2.65403   1.60609   1.60596  21.26508  21.26504
  2.70410   1.20877   1.20870  21.32561  21.32557
  2.75418   1.09096   1.09094  21.38024  21.38020
  2.80426   1.08519   1.08519  21.43458  21.43454
  2.85433   1.13658   1.13657  21.49150  21.49146
  2.90441   1.15224   1.15223  21.54920  21.54916
  2.95448   1.12220   1.12219  21.60539  21.60535
  3.00456   1.17156   1.17155  21.66406  21.66402
  3.05464   1.30755   1.30754  21.72954  21.72949
  3.10471   1.26084   1.26083  21.79267  21.79263
  3.15479   1.25601   1.25600  21.85557  21.85553
  3.20486   1.30938   1.30937  21.92114  21.92110
  3.25494   1.38376   1.38374  21.99043  21.99039
  3.30502   1.33268   1.33266  22.05717  22.05712
  3.35509   1.20666   1.20663  22.11759  22.11754
  3.40517   1.22090   1.22093  22.17873  22.17868
  3.45524   1.54776   1.54779  22.25623  22.25619
  3.50532   1.71212   1.71215  22.34197  22.34193
  3.55540   1.99148   1.99148  22.44170  22.44165
  3.60547   2.14949   2.14944  22.54933  22.54929
  3.65555   1.82067   1.82072  22.64051  22.64046
  3.70562   2.06547   2.06550  22.74394  22.74390
  3.75570   2.48472   2.48475  22.86836  22.86832
  3.80578   2.12712   2.12717  22.97488  22.97484
  3.85585   1.91771   1.91771  23.07091  23.07087
  3.90593   1.60156   1.60154  23.15111  23.15107
  3.95600   1.43128   1.43126  23.22278  23.22274
  4.00608   1.35414   1.35401  23.29059  23.29055
  4.05616   1.43998   1.43986  23.36270  23.36265
  4.10623   1.43921   1.43918  23.43477  23.43472
  4.15631   1.43834   1.43834  23.50680  23.50674
  4.20638   1.50310   1.50312  23.58207  23.58201
  4.25646   1.73026   1.73031  23.66871  23.66866
  4.30654   1.75564   1.75571  23.75663  23.75658
  4.35661   1.72287   1.72292  23.84290  23.84286
  4.40669   1.70469   1.70464  23.92827  23.92822
  4.45676   1.54660   1.54656  24.00571  24.00566
  4.50684   1.38404   1.38404  24.07502  24.07497
  4.55692   1.30163   1.30163  24.14020  24.14015
  4.60699   1.38541   1.38541  24.20958  24.20953
  4.65707   1.39662   1.39662  24.27951  24.27947
  4.70714   1.17904   1.17905  24.33855  24.33851
  4.75722   1.05109   1.05110  24.39119  24.39114
  4.80730   0.98264   0.98265  24.44040  24.44035
  4.85737   1.08166   1.08167  24.49456  24.49452
  4.90745   1.23448   1.23448  24.55638  24.55633
  4.95752   1.44259   1.44260  24.62862  24.62857
  5.00760   1.81744   1.81745  24.71963  24.71958
  5.05768   1.71633   1.71634  24.80557  24.80553
  5.10775   1.55758   1.55760  24.88357  24.88353
  5.15783   1.56894   1.56896  24.96214  24.96210
  5.20790   1.55517   1.55519  25.04001  25.03997
  5.25798   1.58845   1.58847  25.11956  25.11952
  5.30806   1.64430   1.64431  25.20190  25.20186
  5.35813   1.68440   1.68441  25.28625  25.28621
  5.40821   1.59144   1.59144  25.36594  25.36590
  5.45828   1.43484   1.43480  25.43779  25.43775
  5.50836   1.30431   1.30427  25.50310  25.50306
  5.55844   1.27059   1.27058  25.56673  25.56669
  5.60851   1.27576   1.27575  25.63061  25.63057
  5.65859   1.31737   1.31737  25.69658  25.69654
  5.70866   1.83137   1.83143  25.78829  25.78825
  5.75874   2.46491   2.46497  25.91172  25.91169
  5.80882   2.59592   2.59591  26.04172  26.04168
  5.85889   2.32131   2.32130  26.15796  26.15792
  5.90897   2.17459   2.17460  26.26685  26.26682
  5.95904   2.06132   2.06129  26.37008  26.37004
  6.00912   2.03764   2.03764  26.47211  26.47207
  6.05920   2.07552   2.07553  26.57605  26.57601
  6.10927   1.91129   1.91130  26.67176  26.67172
  6.15935   1.89635   1.89637  26.76672  26.76668
  6.20942   2.01460   2.01460  26.86760  26.86757
  6.25950   2.00578   2.00577  26.96804  26.96801
  6.30958   1.88873   1.88871  27.06262  27.06259
  6.35965   1.94495   1.94491  27.16002  27.15998
  6.40973   2.02287   2.02281  27.26131  27.26127
  6.45980   1.81883   1.81878  27.35239  27.35235
  6.50988   1.47350   1.47347  27.42618  27.42614
  6.55996   1.32369   1.32367  27.49247  27.49242
  6.61003   1.50942   1.50942  27.56805  27.56801
  6.66011   1.84105   1.84100  27.66024  27.66020
  6.71018   1.87439   1.87435  27.75411  27.75406
  6.76026   1.49071   1.49066  27.82876  27.82870
  6.81034   0.99832   0.99826  27.87875  27.87869
  6.86041   0.74805   0.74804  27.91621  27.91615
  6.91049   0.67781   0.67784  27.95015  27.95009
  6.96056   0.59565   0.59567  27.97998  27.97992
  7.01064   0.61354   0.61353  28.01070  28.01064
  7.06072   0.69640   0.69639  28.04557  28.04552
  7.11079   0.82557   0.82557  28.08691  28.08686
  7.16087   0.92696   0.92697  28.13333  28.13328
  7.21094   0.98397   0.98397  28.18261  28.18255
  7.26102   1.02177   1.02177  28.23377  28.23372
  7.31110   1.03881   1.03880  28.28579  28.28574
  7.36117   1.08133   1.08132  28.33994  28.33988
  7.41125   1.14897   1.14895  28.39748  28.39742
  7.46132   1.22701   1.22701  28.45892  28.45886
  7.51140   1.35061   1.35063  28.52655  28.52650
  7.56148   1.57500   1.57503  28.60542  28.60537
  7.61155   1.68842   1.68838  28.68997  28.68992
  7.66163   1.65086   1.65075  28.77264  28.77258
  7.71170   1.76106   1.76100  28.86083  28.86076
  7.76178   1.84117   1.84111  28.95303  28.95296
  7.81186   1.93981   1.93977  29.05016  29.05009
  7.86193   2.08219   2.08221  29.15443  29.15436
  7.91201   2.50545   2.50547  29.27989  29.27983
  7.96208   2.18311   2.18308  29.38922  29.38915
  8.01216   1.90372   1.90366  29.48455  29.48447
  8.06224   1.95098   1.95097  29.58224  29.58217
  8.11231   2.01363   2.01364  29.68308  29.68301
  8.16239   2.17926   2.17931  29.79221  29.79214
  8.21246   2.62323   2.62330  29.92357  29.92350
  8.26254   2.61319   2.61323  30.05442  30.05436
  8.31262   2.53149   2.53150  30.18119  30.18113
  8.36269   2.53379   2.53384  30.30807  30.30801
  8.41277   2.75793   2.75796  30.44618  30.44612
  8.46284   2.51369   2.51385  30.57206  30.57200
  8.51292   1.95362   1.95386  30.66988  30.66985
  8.56300   1.81904   1.81912  30.76098  30.76094
  8.61307   2.07965   2.07959  30.86512  30.86508
  8.66315   2.41044   2.41031  30.98582  30.98578
  8.71322   2.86776   2.86759  31.12943  31.12937
  8.76330   2.78184   2.78180  31.26873  31.26868
  8.81338   2.36559   2.36560  31.38719  31.38714
  8.86345   2.19951   2.19969  31.49733  31.49729
  8.91353   1.92978   1.92988  31.59397  31.59393
  8.96360   2.16802   2.16810  31.70253  31.70250
  9.01368   2.47604   2.47611  31.82652  31.82649
  9.06376   2.76945   2.76952  31.96521  31.96518
  9.11383   2.74901   2.74910  32.10287  32.10284
  9.16391   2.49810   2.49816  32.22796  32.22794
  9.21398   2.23899   2.23913  32.34008  32.34007
  9.26406   2.08713   2.08729  32.44460  32.44459
  9.31414   2.04023   2.04032  32.54676  32.54676
  9.36421   1.86392   1.86402  32.64010  32.64010
  9.41429   1.66406   1.66413  32.72343  32.72344
  9.46436   1.60027   1.60029  32.80356  32.80357
  9.51444   1.64101   1.64101  32.88574  32.88575
  9.56451   1.80118   1.80119  32.97594  32.97594
  9.61459   2.03192   2.03195  33.07769  33.07769
  9.66467   2.17368   2.17371  33.18653  33.18655
  9.71474   2.39200   2.39201  33.30632  33.30633
  9.76482   2.42136   2.42137  33.42757  33.42758
  9.81489   2.00289   2.00289  33.52787  33.52788
  9.86497   1.87276   1.87278  33.62165  33.62166
  9.91505   2.22510   2.22512  33.73307  33.73308
  9.96512   2.47204   2.47182  33.85686  33.85686
 10.01520   2.48380   2.48354  33.98124  33.98123
 10.06527   2.51068   2.51027  34.10696  34.10693
 10.11535   2.50583   2.50529  34.23244  34.23239
 10.16543   2.18803   2.18764  34.34201  34.34194
 10.21550   1.91693   1.91674  34.43800  34.43792
 10.26558   1.91355   1.91347  34.53383  34.53374
 10.31565   2.05896   2.05911  34.63693  34.63685
 10.36573   2.29377   2.29383  34.75179  34.75171
 10.41581   2.38267   2.38264  34.87111  34.87103
 10.46588   2.38763   2.38761  34.99067  34.99059
 10.51596   2.51912   2.51916  35.11682  35.11674
 10.56603   2.78551   2.78549  35.25631  35.25622
 10.61611   2.51910   2.51901  35.38245  35.38237
 10.66619   2.25894   2.25893  35.49557  35.49548
 10.71626   2.41062   2.41067  35.61629  35.61620
 10.76634   2.64162   2.64174  35.74857  35.74849
 10.81641   2.46804   2.46791  35.87216  35.87207
 10.86649   2.21622   2.21614  35.98314  35.98305
 10.91657   2.00592   2.00587  36.08358  36.08349
 10.96664   2.02586   2.02578  36.18503  36.18494
 11.01672   2.21414   2.21393  36.29591  36.29580
 11.06679   2.35820   2.35754  36.41400  36.41386
 11.11687   2.55116   2.55021  36.54175  36.54156
 11.16695   2.37950   2.37889  36.66090  36.66069
 11.21702   2.12198   2.12183  36.76716  36.76694