  COHP#       atomMU       atomNU     distance     translation      ICOHP (at) eF   for spin  1
      1          Li1          Li1      5.77484       0   0  -2           -0.00013 
      1       Li1_1s       Li1_1s      5.77484       0   0  -2           -0.00000 
      1       Li1_2s       Li1_1s      5.77484       0   0  -2           -0.00004 
      1       Li1_1s       Li1_2s      5.77484       0   0  -2           -0.00004 
      1       Li1_2s       Li1_2s      5.77484       0   0  -2           -0.00004 
      2          Li1          Li1      5.00116       1   0  -2           -0.00024 
      2       Li1_1s       Li1_1s      5.00116       1   0  -2           -0.00002 
      2       Li1_2s       Li1_1s      5.00116       1   0  -2           -0.00011 
      2       Li1_1s       Li1_2s      5.00116       1   0  -2           -0.00011 
      2       Li1_2s       Li1_2s      5.00116       1   0  -2           -0.00001 
      3          Li1          Li1      5.77484       2   0  -2           -0.00013 
      3       Li1_1s       Li1_1s      5.77484       2   0  -2           -0.00000 
      3       Li1_2s       Li1_1s      5.77484       2   0  -2           -0.00004 
      3       Li1_1s       Li1_2s      5.77484       2   0  -2           -0.00004 
      3       Li1_2s       Li1_2s      5.77484       2   0  -2           -0.00004 
      4          Li1          Li1      5.00116       0   1  -2           -0.00024 
      4       Li1_1s       Li1_1s      5.00116       0   1  -2           -0.00002 
      4       Li1_2s       Li1_1s      5.00116       0   1  -2           -0.00011 
      4       Li1_1s       Li1_2s      5.00116       0   1  -2           -0.00011 
      4       Li1_2s       Li1_2s      5.00116       0   1  -2           -0.00001 
      5          Li1          Li1      5.00116       1   1  -2           -0.00024 
      5       Li1_1s       Li1_1s      5.00116       1   1  -2           -0.00002 
      5       Li1_2s       Li1_1s      5.00116       1   1  -2           -0.00011 
      5       Li1_1s       Li1_2s      5.00116       1   1  -2           -0.00011 
      5       Li1_2s       Li1_2s      5.00116       1   1  -2           -0.00001 
      6          Li1          Li1      5.77484       0   2  -2           -0.00013 
      6       Li1_1s       Li1_1s      5.77484       0   2  -2           -0.00000 
      6       Li1_2s       Li1_1s      5.77484       0   2  -2           -0.00004 
      6       Li1_1s       Li1_2s      5.77484       0   2  -2           -0.00004 
      6       Li1_2s       Li1_2s      5.77484       0   2  -2           -0.00004 
      7          Li1          Li1      5.00116       0  -1  -1           -0.00023 
      7       Li1_1s       Li1_1s      5.00116       0  -1  -1           -0.00002 
      7       Li1_2s       Li1_1s      5.00116       0  -1  -1           -0.00011 
      7       Li1_1s       Li1_2s      5.00116       0  -1  -1           -0.00011 
      7       Li1_2s       Li1_2s      5.00116       0  -1  -1           -0.00001 
      8          Li1          Li1      4.08343       1  -1  -1           -0.00336 
      8       Li1_1s       Li1_1s      4.08343       1  -1  -1           -0.00003 
      8       Li1_2s       Li1_1s      4.08343       1  -1  -1           -0.00166 
      8       Li1_1s       Li1_2s      4.08343       1  -1  -1           -0.00166 
      8       Li1_2s       Li1_2s      4.08343       1  -1  -1            0.00000 
      9          Li1          Li1      5.00116       2  -1  -1           -0.00024 
      9       Li1_1s       Li1_1s      5.00116       2  -1  -1           -0.00002 
      9       Li1_2s       Li1_1s      5.00116       2  -1  -1           -0.00011 
      9       Li1_1s       Li1_2s      5.00116       2  -1  -1           -0.00011 
      9       Li1_2s       Li1_2s      5.00116       2  -1  -1           -0.00001 
     10          Li1          Li1      5.00116      -1   0  -1           -0.00023 
     10       Li1_1s       Li1_1s      5.00116      -1   0  -1           -0.00002 
     10       Li1_2s       Li1_1s      5.00116      -1   0  -1           -0.00011 
     10       Li1_1s       Li1_2s      5.00116      -1   0  -1           -0.00011 
     10       Li1_2s       Li1_2s      5.00116      -1   0  -1           -0.00001 
     11          Li1          Li1      2.88742       0   0  -1           -0.04141 
     11       Li1_1s       Li1_1s      2.88742       0   0  -1           -0.00009 
     11       Li1_2s       Li1_1s      2.88742       0   0  -1           -0.00993 
     11       Li1_1s       Li1_2s      2.88742       0   0  -1           -0.00993 
     11       Li1_2s       Li1_2s      2.88742       0   0  -1           -0.02145 
     12          Li1          Li1      2.88742       1   0  -1           -0.04139 
     12       Li1_1s       Li1_1s      2.88742       1   0  -1           -0.00009 
     12       Li1_2s       Li1_1s      2.88742       1   0  -1           -0.00992 
     12       Li1_1s       Li1_2s      2.88742       1   0  -1           -0.00992 
     12       Li1_2s       Li1_2s      2.88742       1   0  -1           -0.02145 
     13          Li1          Li1      5.00116       2   0  -1           -0.00024 
     13       Li1_1s       Li1_1s      5.00116       2   0  -1           -0.00002 
     13       Li1_2s       Li1_1s      5.00116       2   0  -1           -0.00011 
     13       Li1_1s       Li1_2s      5.00116       2   0  -1           -0.00011 
     13       Li1_2s       Li1_2s      5.00116       2   0  -1           -0.00001 
     14          Li1          Li1      4.08343      -1   1  -1           -0.00336 
     14       Li1_1s       Li1_1s      4.08343      -1   1  -1           -0.00003 
     14       Li1_2s       Li1_1s      4.08343      -1   1  -1           -0.00166 
     14       Li1_1s       Li1_2s      4.08343      -1   1  -1           -0.00166 
     14       Li1_2s       Li1_2s      4.08343      -1   1  -1            0.00000 
     15          Li1          Li1      2.88742       0   1  -1           -0.04139 
     15       Li1_1s       Li1_1s      2.88742       0   1  -1           -0.00009 
     15       Li1_2s       Li1_1s      2.88742       0   1  -1           -0.00992 
     15       Li1_1s       Li1_2s      2.88742       0   1  -1           -0.00992 
     15       Li1_2s       Li1_2s      2.88742       0   1  -1           -0.02145 
     16          Li1          Li1      4.08343       1   1  -1           -0.00336 
     16       Li1_1s       Li1_1s      4.08343       1   1  -1           -0.00003 
     16       Li1_2s       Li1_1s      4.08343       1   1  -1           -0.00166 
     16       Li1_1s       Li1_2s      4.08343       1   1  -1           -0.00166 
     16       Li1_2s       Li1_2s      4.08343       1   1  -1            0.00000 
     17          Li1          Li1      5.00116      -1   2  -1           -0.00024 
     17       Li1_1s       Li1_1s      5.00116      -1   2  -1           -0.00002 
     17       Li1_2s       Li1_1s      5.00116      -1   2  -1           -0.00011 
     17       Li1_1s       Li1_2s      5.00116      -1   2  -1           -0.00011 
     17       Li1_2s       Li1_2s      5.00116      -1   2  -1           -0.00001 
     18          Li1          Li1      5.00116       0   2  -1           -0.00024 
     18       Li1_1s       Li1_1s      5.00116       0   2  -1           -0.00002 
     18       Li1_2s       Li1_1s      5.00116       0   2  -1           -0.00011 
     18       Li1_1s       Li1_2s      5.00116       0   2  -1           -0.00011 
     18       Li1_2s       Li1_2s      5.00116       0   2  -1           -0.00001 
     19          Li1          Li1      5.77484       0  -2   0           -0.00013 
     19       Li1_1s       Li1_1s      5.77484       0  -2   0           -0.00000 
     19       Li1_2s       Li1_1s      5.77484       0  -2   0           -0.00004 
     19       Li1_1s       Li1_2s      5.77484       0  -2   0           -0.00004 
     19       Li1_2s       Li1_2s      5.77484       0  -2   0           -0.00004 
     20          Li1          Li1      5.00116       1  -2   0           -0.00024 
     20       Li1_1s       Li1_1s      5.00116       1  -2   0           -0.00002 
     20       Li1_2s       Li1_1s      5.00116       1  -2   0           -0.00011 
     20       Li1_1s       Li1_2s      5.00116       1  -2   0           -0.00011 
     20       Li1_2s       Li1_2s      5.00116       1  -2   0           -0.00001 
     21          Li1          Li1      5.77484       2  -2   0           -0.00013 
     21       Li1_1s       Li1_1s      5.77484       2  -2   0           -0.00000 
     21       Li1_2s       Li1_1s      5.77484       2  -2   0           -0.00004 
     21       Li1_1s       Li1_2s      5.77484       2  -2   0           -0.00004 
     21       Li1_2s       Li1_2s      5.77484       2  -2   0           -0.00004 
     22          Li1          Li1      5.00116      -1  -1   0           -0.00023 
     22       Li1_1s       Li1_1s      5.00116      -1  -1   0           -0.00002 
     22       Li1_2s       Li1_1s      5.00116      -1  -1   0           -0.00011 
     22       Li1_1s       Li1_2s      5.00116      -1  -1   0           -0.00011 
     22       Li1_2s       Li1_2s      5.00116      -1  -1   0           -0.00001 
     23          Li1          Li1      2.88742       0  -1   0           -0.04141 
     23       Li1_1s       Li1_1s      2.88742       0  -1   0           -0.00009 
     23       Li1_2s       Li1_1s      2.88742       0  -1   0           -0.00993 
     23       Li1_1s       Li1_2s      2.88742       0  -1   0           -0.00993 
     23       Li1_2s       Li1_2s      2.88742       0  -1   0           -0.02145 
     24          Li1          Li1      2.88742       1  -1   0           -0.04139 
     24       Li1_1s       Li1_1s      2.88742       1  -1   0           -0.00009 
     24       Li1_2s       Li1_1s      2.88742       1  -1   0           -0.00992 
     24       Li1_1s       Li1_2s      2.88742       1  -1   0           -0.00992 
     24       Li1_2s       Li1_2s      2.88742       1  -1   0           -0.02145 
     25          Li1          Li1      5.00116       2  -1   0           -0.00024 
     25       Li1_1s       Li1_1s      5.00116       2  -1   0           -0.00002 
     25       Li1_2s       Li1_1s      5.00116       2  -1   0           -0.00011 
     25       Li1_1s       Li1_2s      5.00116       2  -1   0           -0.00011 
     25       Li1_2s       Li1_2s      5.00116       2  -1   0           -0.00001 
     26          Li1          Li1      5.77484      -2   0   0           -0.00013 
     26       Li1_1s       Li1_1s      5.77484      -2   0   0           -0.00000 
     26       Li1_2s       Li1_1s      5.77484      -2   0   0           -0.00004 
     26       Li1_1s       Li1_2s      5.77484      -2   0   0           -0.00004 
     26       Li1_2s       Li1_2s      5.77484      -2   0   0           -0.00004 
     27          Li1          Li1      2.88742      -1   0   0           -0.04141 
     27       Li1_1s       Li1_1s      2.88742      -1   0   0           -0.00009 
     27       Li1_2s       Li1_1s      2.88742      -1   0   0           -0.00993 
     27       Li1_1s       Li1_2s      2.88742      -1   0   0           -0.00993 
     27       Li1_2s       Li1_2s      2.88742      -1   0   0           -0.02145 
     28          Li1          Li1      2.88742       1   0   0           -0.04141 
     28       Li1_1s       Li1_1s      2.88742       1   0   0           -0.00009 
     28       Li1_2s       Li1_1s      2.88742       1   0   0           -0.00993 
     28       Li1_1s       Li1_2s      2.88742       1   0   0           -0.00993 
     28       Li1_2s       Li1_2s      2.88742       1   0   0           -0.02145 
     29          Li1          Li1      5.77484       2   0   0           -0.00013 
     29       Li1_1s       Li1_1s      5.77484       2   0   0           -0.00000 
     29       Li1_2s       Li1_1s      5.77484       2   0   0           -0.00004 
     29       Li1_1s       Li1_2s      5.77484       2   0   0           -0.00004 
     29       Li1_2s       Li1_2s      5.77484       2   0   0           -0.00004 
     30          Li1          Li1      5.00116      -2   1   0           -0.00024 
     30       Li1_1s       Li1_1s      5.00116      -2   1   0           -0.00002 
     30       Li1_2s       Li1_1s      5.00116      -2   1   0           -0.00011 
     30       Li1_1s       Li1_2s      5.00116      -2   1   0           -0.00011 
     30       Li1_2s       Li1_2s      5.00116      -2   1   0           -0.00001 
     31          Li1          Li1      2.88742      -1   1   0           -0.04139 
     31       Li1_1s       Li1_1s      2.88742      -1   1   0           -0.00009 
     31       Li1_2s       Li1_1s      2.88742      -1   1   0           -0.00992 
     31       Li1_1s       Li1_2s      2.88742      -1   1   0           -0.00992 
     31       Li1_2s       Li1_2s      2.88742      -1   1   0           -0.02145 
     32          Li1          Li1      2.88742       0   1   0           -0.04141 
     32       Li1_1s       Li1_1s      2.88742       0   1   0           -0.00009 
     32       Li1_2s       Li1_1s      2.88742       0   1   0           -0.00993 
     32       Li1_1s       Li1_2s      2.88742       0   1   0           -0.00993 
     32       Li1_2s       Li1_2s      2.88742       0   1   0           -0.02145 
     33          Li1          Li1      5.00116       1   1   0           -0.00023 
     33       Li1_1s       Li1_1s      5.00116       1   1   0           -0.00002 
     33       Li1_2s       Li1_1s      5.00116       1   1   0           -0.00011 
     33       Li1_1s       Li1_2s      5.00116       1   1   0           -0.00011 
     33       Li1_2s       Li1_2s      5.00116       1   1   0           -0.00001 
     34          Li1          Li1      5.77484      -2   2   0           -0.00013 
     34       Li1_1s       Li1_1s      5.77484      -2   2   0           -0.00000 
     34       Li1_2s       Li1_1s      5.77484      -2   2   0           -0.00004 
     34       Li1_1s       Li1_2s      5.77484      -2   2   0           -0.00004 
     34       Li1_2s       Li1_2s      5.77484      -2   2   0           -0.00004 
     35          Li1          Li1      5.00116      -1   2   0           -0.00024 
     35       Li1_1s       Li1_1s      5.00116      -1   2   0           -0.00002 
     35       Li1_2s       Li1_1s      5.00116      -1   2   0           -0.00011 
     35       Li1_1s       Li1_2s      5.00116      -1   2   0           -0.00011 
     35       Li1_2s       Li1_2s      5.00116      -1   2   0           -0.00001 
     36          Li1          Li1      5.77484       0   2   0           -0.00013 
     36       Li1_1s       Li1_1s      5.77484       0   2   0           -0.00000 
     36       Li1_2s       Li1_1s      5.77484       0   2   0           -0.00004 
     36       Li1_1s       Li1_2s      5.77484       0   2   0           -0.00004 
     36       Li1_2s       Li1_2s      5.77484       0   2   0           -0.00004 
     37          Li1          Li1      5.00116       0  -2   1           -0.00024 
     37       Li1_1s       Li1_1s      5.00116       0  -2   1           -0.00002 
     37       Li1_2s       Li1_1s      5.00116       0  -2   1           -0.00011 
     37       Li1_1s       Li1_2s      5.00116       0  -2   1           -0.00011 
     37       Li1_2s       Li1_2s      5.00116       0  -2   1           -0.00001 
     38          Li1          Li1      5.00116       1  -2   1           -0.00024 
     38       Li1_1s       Li1_1s      5.00116       1  -2   1           -0.00002 
     38       Li1_2s       Li1_1s      5.00116       1  -2   1           -0.00011 
     38       Li1_1s       Li1_2s      5.00116       1  -2   1           -0.00011 
     38       Li1_2s       Li1_2s      5.00116       1  -2   1           -0.00001 
     39          Li1          Li1      4.08343      -1  -1   1           -0.00336 
     39       Li1_1s       Li1_1s      4.08343      -1  -1   1           -0.00003 
     39       Li1_2s       Li1_1s      4.08343      -1  -1   1           -0.00166 
     39       Li1_1s       Li1_2s      4.08343      -1  -1   1           -0.00166 
     39       Li1_2s       Li1_2s      4.08343      -1  -1   1            0.00000 
     40          Li1          Li1      2.88742       0  -1   1           -0.04139 
     40       Li1_1s       Li1_1s      2.88742       0  -1   1           -0.00009 
     40       Li1_2s       Li1_1s      2.88742       0  -1   1           -0.00992 
     40       Li1_1s       Li1_2s      2.88742       0  -1   1           -0.00992 
     40       Li1_2s       Li1_2s      2.88742       0  -1   1           -0.02145 
     41          Li1          Li1      4.08343       1  -1   1           -0.00336 
     41       Li1_1s       Li1_1s      4.08343       1  -1   1           -0.00003 
     41       Li1_2s       Li1_1s      4.08343       1  -1   1           -0.00166 
     41       Li1_1s       Li1_2s      4.08343       1  -1   1           -0.00166 
     41       Li1_2s       Li1_2s      4.08343       1  -1   1            0.00000 
     42          Li1          Li1      5.00116      -2   0   1           -0.00024 
     42       Li1_1s       Li1_1s      5.00116      -2   0   1           -0.00002 
     42       Li1_2s       Li1_1s      5.00116      -2   0   1           -0.00011 
     42       Li1_1s       Li1_2s      5.00116      -2   0   1           -0.00011 
     42       Li1_2s       Li1_2s      5.00116      -2   0   1           -0.00001 
     43          Li1          Li1      2.88742      -1   0   1           -0.04139 
     43       Li1_1s       Li1_1s      2.88742      -1   0   1           -0.00009 
     43       Li1_2s       Li1_1s      2.88742      -1   0   1           -0.00992 
     43       Li1_1s       Li1_2s      2.88742      -1   0   1           -0.00992 
     43       Li1_2s       Li1_2s      2.88742      -1   0   1           -0.02145 
     44          Li1          Li1      2.88742       0   0   1           -0.04141 
     44       Li1_1s       Li1_1s      2.88742       0   0   1           -0.00009 
     44       Li1_2s       Li1_1s      2.88742       0   0   1           -0.00993 
     44       Li1_1s       Li1_2s      2.88742       0   0   1           -0.00993 
     44       Li1_2s       Li1_2s      2.88742       0   0   1           -0.02145 
     45          Li1          Li1      5.00116       1   0   1           -0.00023 
     45       Li1_1s       Li1_1s      5.00116       1   0   1           -0.00002 
     45       Li1_2s       Li1_1s      5.00116       1   0   1           -0.00011 
     45       Li1_1s       Li1_2s      5.00116       1   0   1           -0.00011 
     45       Li1_2s       Li1_2s      5.00116       1   0   1           -0.00001 
     46          Li1          Li1      5.00116      -2   1   1           -0.00024 
     46       Li1_1s       Li1_1s      5.00116      -2   1   1           -0.00002 
     46       Li1_2s       Li1_1s      5.00116      -2   1   1           -0.00011 
     46       Li1_1s       Li1_2s      5.00116      -2   1   1           -0.00011 
     46       Li1_2s       Li1_2s      5.00116      -2   1   1           -0.00001 
     47          Li1          Li1      4.08343      -1   1   1           -0.00336 
     47       Li1_1s       Li1_1s      4.08343      -1   1   1           -0.00003 
     47       Li1_2s       Li1_1s      4.08343      -1   1   1           -0.00166 
     47       Li1_1s       Li1_2s      4.08343      -1   1   1           -0.00166 
     47       Li1_2s       Li1_2s      4.08343      -1   1   1            0.00000 
     48          Li1          Li1      5.00116       0   1   1           -0.00023 
     48       Li1_1s       Li1_1s      5.00116       0   1   1           -0.00002 
     48       Li1_2s       Li1_1s      5.00116       0   1   1           -0.00011 
     48       Li1_1s       Li1_2s      5.00116       0   1   1           -0.00011 
     48       Li1_2s       Li1_2s      5.00116       0   1   1           -0.00001 
     49          Li1          Li1      5.77484       0  -2   2           -0.00013 
     49       Li1_1s       Li1_1s      5.77484       0  -2   2           -0.00000 
     49       Li1_2s       Li1_1s      5.77484       0  -2   2           -0.00004 
     49       Li1_1s       Li1_2s      5.77484       0  -2   2           -0.00004 
     49       Li1_2s       Li1_2s      5.77484       0  -2   2           -0.00004 
     50          Li1          Li1      5.00116      -1  -1   2           -0.00024 
     50       Li1_1s       Li1_1s      5.00116      -1  -1   2           -0.00002 
     50       Li1_2s       Li1_1s      5.00116      -1  -1   2           -0.00011 
     50       Li1_1s       Li1_2s      5.00116      -1  -1   2           -0.00011 
     50       Li1_2s       Li1_2s      5.00116      -1  -1   2           -0.00001 
     51          Li1          Li1      5.00116       0  -1   2           -0.00024 
     51       Li1_1s       Li1_1s      5.00116       0  -1   2           -0.00002 
     51       Li1_2s       Li1_1s      5.00116       0  -1   2           -0.00011 
     51       Li1_1s       Li1_2s      5.00116       0  -1   2           -0.00011 
     51       Li1_2s       Li1_2s      5.00116       0  -1   2           -0.00001 
     52          Li1          Li1      5.77484      -2   0   2           -0.00013 
     52       Li1_1s       Li1_1s      5.77484      -2   0   2           -0.00000 
     52       Li1_2s       Li1_1s      5.77484      -2   0   2           -0.00004 
     52       Li1_1s       Li1_2s      5.77484      -2   0   2           -0.00004 
     52       Li1_2s       Li1_2s      5.77484      -2   0   2           -0.00004 
     53          Li1          Li1      5.00116      -1   0   2           -0.00024 
     53       Li1_1s       Li1_1s      5.00116      -1   0   2           -0.00002 
     53       Li1_2s       Li1_1s      5.00116      -1   0   2           -0.00011 
     53       Li1_1s       Li1_2s      5.00116      -1   0   2           -0.00011 
     53       Li1_2s       Li1_2s      5.00116      -1   0   2           -0.00001 
     54          Li1          Li1      5.77484       0   0   2           -0.00013 
     54       Li1_1s       Li1_1s      5.77484       0   0   2           -0.00000 
     54       Li1_2s       Li1_1s      5.77484       0   0   2           -0.00004 
     54       Li1_1s       Li1_2s      5.77484       0   0   2           -0.00004 
     54       Li1_2s       Li1_2s      5.77484       0   0   2           -0.00004 
     55           F2          Li1      4.56541       1   0  -1           -0.00403 
     55        F2_2s       Li1_1s      4.56541       1   0  -1           -0.00020 
     55      F2_2p_y       Li1_1s      4.56541       1   0  -1           -0.00003 
     55      F2_2p_z       Li1_1s      4.56541       1   0  -1           -0.00000 
     55      F2_2p_x       Li1_1s      4.56541       1   0  -1           -0.00011 
     55        F2_2s       Li1_2s      4.56541       1   0  -1           -0.00091 
     55      F2_2p_y       Li1_2s      4.56541       1   0  -1           -0.00065 
     55      F2_2p_z       Li1_2s      4.56541       1   0  -1           -0.00000 
     55      F2_2p_x       Li1_2s      4.56541       1   0  -1           -0.00214 
     56           F2          Li1      4.56541       2   0  -1           -0.00403 
     56        F2_2s       Li1_1s      4.56541       2   0  -1           -0.00020 
     56      F2_2p_y       Li1_1s      4.56541       2   0  -1           -0.00000 
     56      F2_2p_z       Li1_1s      4.56541       2   0  -1           -0.00003 
     56      F2_2p_x       Li1_1s      4.56541       2   0  -1           -0.00011 
     56        F2_2s       Li1_2s      4.56541       2   0  -1           -0.00091 
     56      F2_2p_y       Li1_2s      4.56541       2   0  -1           -0.00000 
     56      F2_2p_z       Li1_2s      4.56541       2   0  -1           -0.00064 
     56      F2_2p_x       Li1_2s      4.56541       2   0  -1           -0.00214 
     57           F2          Li1      4.56541       0   1  -1           -0.00403 
     57        F2_2s       Li1_1s      4.56541       0   1  -1           -0.00020 
     57      F2_2p_y       Li1_1s      4.56541       0   1  -1           -0.00011 
     57      F2_2p_z       Li1_1s      4.56541       0   1  -1           -0.00000 
     57      F2_2p_x       Li1_1s      4.56541       0   1  -1           -0.00003 
     57        F2_2s       Li1_2s      4.56541       0   1  -1           -0.00091 
     57      F2_2p_y       Li1_2s      4.56541       0   1  -1           -0.00214 
     57      F2_2p_z       Li1_2s      4.56541       0   1  -1           -0.00000 
     57      F2_2p_x       Li1_2s      4.56541       0   1  -1           -0.00065 
     58           F2          Li1      3.53635       1   1  -1           -0.00612 
     58        F2_2s       Li1_1s      3.53635       1   1  -1           -0.00090 
     58      F2_2p_y       Li1_1s      3.53635       1   1  -1           -0.00000 
     58      F2_2p_z       Li1_1s      3.53635       1   1  -1           -0.00000 
     58      F2_2p_x       Li1_1s      3.53635       1   1  -1           -0.00000 
     58        F2_2s       Li1_2s      3.53635       1   1  -1           -0.00020 
     58      F2_2p_y       Li1_2s      3.53635       1   1  -1           -0.00167 
     58      F2_2p_z       Li1_2s      3.53635       1   1  -1           -0.00167 
     58      F2_2p_x       Li1_2s      3.53635       1   1  -1           -0.00167 
     59           F2          Li1      4.56541       2   1  -1           -0.00403 
     59        F2_2s       Li1_1s      4.56541       2   1  -1           -0.00020 
     59      F2_2p_y       Li1_1s      4.56541       2   1  -1           -0.00000 
     59      F2_2p_z       Li1_1s      4.56541       2   1  -1           -0.00011 
     59      F2_2p_x       Li1_1s      4.56541       2   1  -1           -0.00003 
     59        F2_2s       Li1_2s      4.56541       2   1  -1           -0.00091 
     59      F2_2p_y       Li1_2s      4.56541       2   1  -1           -0.00000 
     59      F2_2p_z       Li1_2s      4.56541       2   1  -1           -0.00214 
     59      F2_2p_x       Li1_2s      4.56541       2   1  -1           -0.00064 
     60           F2          Li1      4.56541       0   2  -1           -0.00403 
     60        F2_2s       Li1_1s      4.56541       0   2  -1           -0.00020 
     60      F2_2p_y       Li1_1s      4.56541       0   2  -1           -0.00011 
     60      F2_2p_z       Li1_1s      4.56541       0   2  -1           -0.00003 
     60      F2_2p_x       Li1_1s      4.56541       0   2  -1           -0.00000 
     60        F2_2s       Li1_2s      4.56541       0   2  -1           -0.00091 
     60      F2_2p_y       Li1_2s      4.56541       0   2  -1           -0.00214 
     60      F2_2p_z       Li1_2s      4.56541       0   2  -1           -0.00064 
     60      F2_2p_x       Li1_2s      4.56541       0   2  -1           -0.00000 
     61           F2          Li1      4.56541       1   2  -1           -0.00403 
     61        F2_2s       Li1_1s      4.56541       1   2  -1           -0.00020 
     61      F2_2p_y       Li1_1s      4.56541       1   2  -1           -0.00003 
     61      F2_2p_z       Li1_1s      4.56541       1   2  -1           -0.00011 
     61      F2_2p_x       Li1_1s      4.56541       1   2  -1           -0.00000 
     61        F2_2s       Li1_2s      4.56541       1   2  -1           -0.00091 
     61      F2_2p_y       Li1_2s      4.56541       1   2  -1           -0.00064 
     61      F2_2p_z       Li1_2s      4.56541       1   2  -1           -0.00214 
     61      F2_2p_x       Li1_2s      4.56541       1   2  -1           -0.00000 
     62           F2          Li1      4.56541       1  -1   0           -0.00403 
     62        F2_2s       Li1_1s      4.56541       1  -1   0           -0.00020 
     62      F2_2p_y       Li1_1s      4.56541       1  -1   0           -0.00000 
     62      F2_2p_z       Li1_1s      4.56541       1  -1   0           -0.00003 
     62      F2_2p_x       Li1_1s      4.56541       1  -1   0           -0.00011 
     62        F2_2s       Li1_2s      4.56541       1  -1   0           -0.00091 
     62      F2_2p_y       Li1_2s      4.56541       1  -1   0           -0.00000 
     62      F2_2p_z       Li1_2s      4.56541       1  -1   0           -0.00065 
     62      F2_2p_x       Li1_2s      4.56541       1  -1   0           -0.00214 
     63           F2          Li1      4.56541       2  -1   0           -0.00403 
     63        F2_2s       Li1_1s      4.56541       2  -1   0           -0.00020 
     63      F2_2p_y       Li1_1s      4.56541       2  -1   0           -0.00003 
     63      F2_2p_z       Li1_1s      4.56541       2  -1   0           -0.00000 
     63      F2_2p_x       Li1_1s      4.56541       2  -1   0           -0.00011 
     63        F2_2s       Li1_2s      4.56541       2  -1   0           -0.00091 
     63      F2_2p_y       Li1_2s      4.56541       2  -1   0           -0.00064 
     63      F2_2p_z       Li1_2s      4.56541       2  -1   0           -0.00000 
     63      F2_2p_x       Li1_2s      4.56541       2  -1   0           -0.00214 
     64           F2          Li1      3.53635       0   0   0           -0.00613 
     64        F2_2s       Li1_1s      3.53635       0   0   0           -0.00090 
     64      F2_2p_y       Li1_1s      3.53635       0   0   0           -0.00000 
     64      F2_2p_z       Li1_1s      3.53635       0   0   0           -0.00000 
     64      F2_2p_x       Li1_1s      3.53635       0   0   0           -0.00000 
     64        F2_2s       Li1_2s      3.53635       0   0   0           -0.00020 
     64      F2_2p_y       Li1_2s      3.53635       0   0   0           -0.00167 
     64      F2_2p_z       Li1_2s      3.53635       0   0   0           -0.00167 
     64      F2_2p_x       Li1_2s      3.53635       0   0   0           -0.00167 