Process 0 of 1 is on n0106.savio1 - thread support 0
initial socket setup ...start
initial socket setup ...done 
now start server 0 ... 
n0106.savio1 10.0.1
Q-Chem Developer Version! Running on 10.0.1.*
                  Welcome to Q-Chem
     A Quantum Leap Into The Future Of Chemistry


 Q-Chem 5.1, Q-Chem, Inc., Pleasanton, CA (2018)

 Yihan Shao,  Zhengting Gan,  E. Epifanovsky,  A. T. B. Gilbert,  M. Wormit,  
 J. Kussmann,  A. W. Lange,  A. Behn,  Jia Deng,  Xintian Feng,  D. Ghosh,  
 M. Goldey,  P. R. Horn,  L. D. Jacobson,  I. Kaliman,  T. Kus,  A. Landau,  
 Jie Liu,  E. I. Proynov,  R. M. Richard,  R. P. Steele,  E. J. Sundstrom,  
 H. L. Woodcock III,  P. M. Zimmerman,  D. Zuev,  B. Albrecht,  E. Alguire,  
 S. A. Baeppler,  D. Barton,  Z. Benda,  Y. A. Bernard,  E. J. Berquist,  
 K. B. Bravaya,  H. Burton,  D. Casanova,  Chun-Min Chang,  Yunqing Chen,  
 A. Chien,  K. D. Closser,  M. P. Coons,  S. Coriani,  S. Dasgupta,  
 A. L. Dempwolff,  M. Diedenhofen,  Hainam Do,  R. G. Edgar,  Po-Tung Fang,  
 S. Faraji,  S. Fatehi,  Qingguo Feng,  K. D. Fenk,  J. Fosso-Tande,  
 Qinghui Ge,  A. Ghysels,  G. Gidofalvi,  J. Gomes,  J. Gonthier,  A. Gunina,  
 M. W. D. Hanson-Heine,  P. H. P. Harbach,  A. W. Hauser,  J. E. Herr,  
 E. G. Hohenstein,  Z. C. Holden,  Kerwin Hui,  T.-C. Jagau,  Hyunjun Ji,  
 B. Kaduk,  K. Khistyaev,  Jaehoon Kim,  P. Klunzinger,  K. Koh,  
 D. Kosenkov,  L. Koulias,  T. Kowalczyk,  C. M. Krauter,  A. Kunitsa,  
 Ka Un Lao,  A. Laurent,  K. V. Lawler,  Joonho Lee,  D. Lefrancois,  
 S. Lehtola,  D. S. Levine,  Yi-Pei Li,  You-Sheng Lin,  Fenglai Liu,  
 E. Livshits,  A. Luenser,  P. Manohar,  E. Mansoor,  S. F. Manzer,  
 Shan-Ping Mao,  Yuezhi Mao,  N. Mardirossian,  A. V. Marenich,  
 T. Markovich,  L. A. Martinez-Martinez,  S. A. Maurer,  N. J. Mayhall,  
 S. C. McKenzie,  J.-M. Mewes,  A. F. Morrison,  J. W. Mullinax,  K. Nanda,  
 T. S. Nguyen-Beck,  R. Olivares-Amaya,  J. A. Parkhill,  T. M. Perrine,  
 F. Plasser,  P. Pokhilko,  S. Prager,  A. Prociuk,  E. Ramos,  D. R. Rehn,  
 F. Rob,  M. Schneider,  N. Sergueev,  S. M. Sharada,  S. Sharma,  
 D. W. Small,  T. Stauch,  T. Stein,  Yu-Chuan Su,  A. J. W. Thom,  
 A. Tkatchenko,  T. Tsuchimochi,  N. M. Tubman,  L. Vogt,  M. L. Vidal,  
 O. Vydrov,  M. A. Watson,  J. Wenzel,  M. de Wergifosse,  T. A. Wesolowski,  
 A. White,  J. Witte,  A. Yamada,  Jun Yang,  K. Yao,  S. Yeganeh,  
 S. R. Yost,  Zhi-Qiang You,  A. Zech,  Igor Ying Zhang,  Xing Zhang,  
 Yan Zhao,  Ying Zhu,  B. R. Brooks,  G. K. L. Chan,  C. J. Cramer,  
 M. S. Gordon,  W. J. Hehre,  A. Klamt,  M. W. Schmidt,  C. D. Sherrill,  
 D. G. Truhlar,  A. Aspuru-Guzik,  R. Baer,  A. T. Bell,  N. A. Besley,  
 Jeng-Da Chai,  R. A. DiStasio Jr.,  A. Dreuw,  B. D. Dunietz,  
 T. R. Furlani,  Chao-Ping Hsu,  Yousung Jung,  Jing Kong,  D. S. Lambrecht,  
 WanZhen Liang,  C. Ochsenfeld,  V. A. Rassolov,  L. V. Slipchenko,  
 J. E. Subotnik,  T. Van Voorhis,  J. M. Herbert,  A. I. Krylov,  
 P. M. W. Gill,  M. Head-Gordon

 Contributors to earlier versions of Q-Chem not listed above: 
 R. D. Adamson,  B. Austin,  J. Baker,  G. J. O. Beran,  K. Brandhorst,  
 S. T. Brown,  E. F. C. Byrd,  A. K. Chakraborty,  C.-L. Cheng,  
 Siu Hung Chien,  D. M. Chipman,  D. L. Crittenden,  H. Dachsel,  
 R. J. Doerksen,  A. D. Dutoi,  L. Fusti-Molnar,  W. A. Goddard III,  
 A. Golubeva-Zadorozhnaya,  S. R. Gwaltney,  G. Hawkins,  A. Heyden,  
 S. Hirata,  G. Kedziora,  F. J. Keil,  C. Kelley,  Jihan Kim,  R. A. King,  
 R. Z. Khaliullin,  P. P. Korambath,  W. Kurlancheek,  A. M. Lee,  M. S. Lee,  
 S. V. Levchenko,  Ching Yeh Lin,  D. Liotard,  R. C. Lochan,  I. Lotan,  
 P. E. Maslen,  N. Nair,  D. P. O'Neill,  D. Neuhauser,  E. Neuscamman,  
 C. M. Oana,  R. Olson,  B. Peters,  R. Peverati,  P. A. Pieniazek,  
 Y. M. Rhee,  J. Ritchie,  M. A. Rohrdanz,  E. Rosta,  N. J. Russ,  
 H. F. Schaefer III,  N. E. Schultz,  N. Shenvi,  A. C. Simmonett,  A. Sodt,  
 D. Stuck,  K. S. Thanthiriwatte,  V. Vanovschi,  Tao Wang,  A. Warshel,  
 C. F. Williams,  Q. Wu,  X. Xu,  W. Zhang

 Please cite Q-Chem as follows:
 Y. Shao et al., Mol. Phys. 113, 184-215 (2015)
 DOI: 10.1080/00268976.2014.952696

 Q-Chem 5.1.0 for Intel X86 EM64T Linux

 Parts of Q-Chem use Armadillo 8.300.2 (Tropical Shenanigans).
 http://arma.sourceforge.net/

 Q-Chem begins on Mon Mar 26 16:17:24 2018  

Host: n0106.savio1
0

     Scratch files written to /global/scratch/smblau/qctest/qchem39338//
 Parallel job on  1  processors

Checking the input file for inconsistencies... 	...done.

--------------------------------------------------------------
User input:
--------------------------------------------------------------
$comment
 4_phenyl_7_trifluoromethyl_1_3_dihydro_2_1_3_benzothiadiazole singlet
neutral B3lYP/6-31+G* geometry optimization
$end


$molecule
 0  1
 C          -5.28239800       -0.40413700        0.02520900
 C          -4.59429700       -1.30752400       -0.78969900
 C          -4.56124100        0.44649800        0.86754700
 C          -3.19965800       -1.35498600       -0.76789500
 C          -3.16561500        0.39930400        0.89078500
 C          -0.31705000       -1.83196900        0.09419600
 C           1.06379900       -1.92703000        0.08538200
 C          -2.45934200       -0.50148400        0.07102400
 C          -0.97947400       -0.57824100        0.10360900
 C           1.86207600       -0.76386400        0.06226000
 C          -0.18067400        0.56927800        0.10481300
 C           1.23090700        0.48341100        0.06734000
 C           3.35207700       -0.84612600        0.04326800
 F           3.89906600       -0.11325700       -0.98124100
 F           3.81148500       -2.11003700       -0.09026600
 F           3.91939400       -0.33859300        1.17778300
 N          -0.62246900        1.89304400        0.07031500
 N           1.82023900        1.72673300       -0.02037400
 S           0.67721300        3.03856900       -0.20051700
 H          -6.36499000       -0.36510000        0.00564100
 H          -5.14213600       -1.97139300       -1.44835800
 H          -5.08371200        1.13867200        1.51766800
 H          -2.67534300       -2.04416700       -1.41908400
 H          -2.62015800        1.03179400        1.58123800
 H          -0.91918900       -2.73031000        0.13353800
 H           1.54825200       -2.89292600        0.10502700
 H          -1.51460200        2.11843200       -0.34832800
 H           2.78387300        1.88145700       -0.27215000
$end


$rem
         jobtype = opt
        exchange = b3lyp
           basis = 6-31+g*
  max_scf_cycles = 200
      mem_static = 3000
       mem_total = 28000
   scf_algorithm = rca_diis
       scf_guess = sad
$end

--------------------------------------------------------------
 ----------------------------------------------------------------
             Standard Nuclear Orientation (Angstroms)
    I     Atom           X                Y                Z
 ----------------------------------------------------------------
    1      C       5.2870008258     0.4003735453     0.0019619536
    2      C       4.5985955941     1.3357108964    -0.7757966098
    3      C       4.5663818211    -0.4798801815     0.8137761287
    4      C       3.2041587723     1.3856865600    -0.7476118763
    5      C       3.1709619153    -0.4302243779     0.8433869002
    6      C       0.3255473879     1.8365717915     0.1414559288
    7      C      -1.0550764547     1.9352410582     0.1408062135
    8      C       2.4643626919     0.5027440898     0.0607400806
    9      C       0.9848066107     0.5817905398     0.1010907704
   10      C      -1.8563797713     0.7757272069     0.0761798848
   11      C       0.1830979584    -0.5630099307     0.0613684281
   12      C      -1.2283727393    -0.4723655548     0.0318327923
   13      C      -3.3462198359     0.8622573663     0.0652333678
   14      F      -3.8983475585     0.1701393133    -0.9845476603
   15      F      -3.8028361003     2.1314351953    -0.0187147166
   16      F      -3.9111921935     0.3133921276     1.1815289356
   17      N       0.6214113176    -1.8855773126    -0.0248074161
   18      N      -1.8211434384    -1.7100308559    -0.1010696095
   19      S      -0.6820407280    -3.0168447144    -0.3346422584
   20      H       6.3694218442     0.3594872246    -0.0226404865
   21      H       5.1460107970     2.0227798147    -1.4105833413
   22      H       5.0891683421    -1.1975002235     1.4354302411
   23      H       2.6795172347     2.1003607798    -1.3704407454
   24      H       2.6261102746    -1.0871498647     1.5111277770
   25      H       0.9300925658     2.7313113088     0.2128845277
   26      H      -1.5370053824     2.9008646652     0.1986964229
   27      H       1.5116236277    -2.0970674759    -0.4546410530
   28      H      -2.7859687981    -1.8527514023    -0.3553608348
 ----------------------------------------------------------------
 Molecular Point Group                 C1    NOp =  1
 Largest Abelian Subgroup              C1    NOp =  1
 Nuclear Repulsion Energy =  1526.5913848268 hartrees
 There are       72 alpha and       72 beta electrons
 Requested basis set is 6-31+G(d)
 There are 114 shells and 383 basis functions

 Total QAlloc Memory Limit  28000 MB
 Mega-Array Size      2933 MB
 MEM_STATIC part      3000 MB
 A cutoff of  1.0D-12 yielded   5105 shell pairs
 There are     61084 function pairs
 
 -------------------------------------------------------
 OpenMP Integral Computing Module                       
 Release: version 1.0, May 2013, Q-Chem Inc. Pittsburgh 
 -------------------------------------------------------
 Integral Job Info:
 Integral job number is                      11
 Integral operator is                         1
 short-range coefficients                     0
 long-range coefficients              100000000
 Omega coefficients                           0
 if combine SR and LR in K                    0
 Integral screening is                        0
 Integral computing path is                   2
 max size of driver memory is            800000
 size of driver memory is                593474
 size of scratch memory is             15267112
 max col of scratch BK array               1296
 max len of scratch array in speh3          155
 max len of scratch index in speh4           18
 max int batch size is                      520
 min int batch size is                       52
 fixed nKL is                                52
 max L of basis functions is                  2
 order of int derivative is                   0
 number of shells is                        114
 number of basis is                         383
 number of cartesian basis is               383
 number of contracted shell pairs          5105
 number of primitive shell pairs          16525
 maxK2 (contraction) of shell pair           36
 max number of K2 of shell pair               1
 max number of CS2 of shell pair            770
 max number of PS2 of shell pair           4308
 mem total for path MDJ                  658860
 -------------------------------------------------------
 Smallest overlap matrix eigenvalue = 3.39E-07
 Linear dependence detected in AO basis
 Number of orthogonalized atomic orbitals = 380
 Maximum deviation from orthogonality = 1.357E-10

 Scale SEOQF with 1.000000e-02/1.000000e-01/1.000000e-01

 Standard Electronic Orientation quadrupole field applied
 Nucleus-field energy     =     0.0000000245 hartrees
 Guess from superposition of atomic densities
 Warning:  Energy on first SCF cycle will be non-variational
 SAD guess density has 144.000000 electrons
 A restricted hybrid HF-DFT SCF calculation will be
 performed using Relaxed Constraint Minimization + Pulay DIIS
 Exchange:     0.2000 Hartree-Fock + 0.0800 Slater + 0.7200 B88
 Correlation:  0.1900 VWN1RPA + 0.8100 LYP
 Using SG-1 standard quadrature grid
 SCF converges when DIIS error is below 1.0E-08
 using 12 threads for integral computing
 -------------------------------------------------------
 OpenMP Integral computing Module                
 Release: version 2.0, May 2017, Q-Chem Inc. Pleasanton 
 -------------------------------------------------------
 -------------------------------------------------------
 OpenMP BLAS3 based DFT computing Module                
 Release: version 1.0, May 2013, Q-Chem Inc. Pittsburgh 
 -------------------------------------------------------
 -------------------------------------------------------
 OpenMP BLAS3 based DFT computing Module                
 Release: version 1.0, May 2013, Q-Chem Inc. Pittsburgh 
 -------------------------------------------------------
 ---------------------------------------
  Cycle       Energy         DIIS Error
 ---------------------------------------
    1   -1312.3747027023      3.63E-02
    2   -1307.7403064440      3.94E-03
    3   -1307.8509150327      9.54E-04 Done RCA. Switching to DIIS
    4   -1308.0043233600      8.01E-04
    5   -1308.0129510950      4.05E-04
    6   -1308.0158849972      1.03E-04
    7   -1308.0160507741      4.21E-05
    8   -1308.0160815960      1.05E-05
    9   -1308.0160836678      2.71E-06
   10   -1308.0160837924      1.26E-06
   11   -1308.0160838216      4.82E-07
   12   -1308.0160838261      2.10E-07
   13   -1308.0160838270      6.04E-08
   14   -1308.0160838271      2.05E-08
   15   -1308.0160838271      9.00E-09 Convergence criterion met
 ---------------------------------------
 SCF time:  CPU 407.52 s  wall 34.00 s
 SCF   energy in the final basis set = -1308.01608383
 Total energy in the final basis set = -1308.01608383
 
 --------------------------------------------------------------
 
                    Orbital Energies (a.u.)
 --------------------------------------------------------------
 
 Alpha MOs
 -- Occupied --
-88.966 -24.751 -24.748 -24.743 -14.396 -14.393 -10.451 -10.265
-10.256 -10.222 -10.220 -10.218 -10.208 -10.208 -10.207 -10.207
-10.207 -10.207 -10.200  -8.018  -5.986  -5.981  -5.970  -1.317
 -1.234  -1.226  -1.011  -0.921  -0.882  -0.864  -0.804  -0.775
 -0.762  -0.759  -0.707  -0.694  -0.659  -0.639  -0.619  -0.613
 -0.594  -0.593  -0.593  -0.547  -0.528  -0.505  -0.493  -0.492
 -0.477  -0.475  -0.471  -0.462  -0.456  -0.449  -0.437  -0.434
 -0.431  -0.424  -0.417  -0.409  -0.394  -0.384  -0.381  -0.363
 -0.359  -0.353  -0.346  -0.284  -0.277  -0.269  -0.240  -0.177
 -- Virtual --
 -0.065  -0.052  -0.027  -0.009  -0.007  -0.004   0.004   0.007
  0.014   0.024   0.025   0.034   0.042   0.045   0.047   0.055
  0.058   0.066   0.068   0.074   0.083   0.083   0.089   0.092
  0.099   0.100   0.104   0.109   0.115   0.120   0.123   0.125
  0.128   0.131   0.132   0.143   0.147   0.149   0.153   0.163
  0.164   0.171   0.176   0.178   0.185   0.186   0.188   0.193
  0.195   0.200   0.201   0.208   0.209   0.214   0.216   0.221
  0.225   0.228   0.234   0.237   0.239   0.242   0.245   0.250
  0.254   0.254   0.260   0.263   0.271   0.274   0.276   0.276
  0.281   0.287   0.292   0.298   0.300   0.307   0.309   0.317
  0.320   0.325   0.329   0.335   0.340   0.345   0.351   0.356
  0.362   0.365   0.369   0.375   0.387   0.395   0.401   0.405
  0.407   0.418   0.433   0.442   0.450   0.467   0.479   0.490
  0.498   0.528   0.539   0.559   0.569   0.596   0.622   0.630
  0.644   0.660   0.676   0.689   0.691   0.699   0.704   0.712
  0.714   0.720   0.726   0.727   0.736   0.740   0.746   0.753
  0.761   0.769   0.780   0.788   0.802   0.806   0.818   0.825
  0.840   0.849   0.854   0.874   0.883   0.899   0.905   0.921
  0.933   0.940   0.943   0.969   0.979   0.991   0.996   1.011
  1.016   1.021   1.035   1.056   1.061   1.075   1.084   1.096
  1.103   1.107   1.131   1.141   1.151   1.160   1.164   1.173
  1.179   1.197   1.204   1.232   1.245   1.256   1.263   1.275
  1.283   1.310   1.332   1.340   1.362   1.388   1.410   1.428
  1.435   1.455   1.457   1.471   1.481   1.483   1.497   1.513
  1.521   1.550   1.576   1.608   1.619   1.637   1.643   1.659
  1.670   1.671   1.686   1.695   1.705   1.715   1.729   1.758
  1.777   1.790   1.791   1.802   1.821   1.823   1.838   1.855
  1.860   1.864   1.876   1.885   1.889   1.914   1.933   1.952
  1.958   1.963   1.980   2.001   2.008   2.040   2.046   2.052
  2.064   2.072   2.081   2.097   2.120   2.134   2.136   2.146
  2.158   2.176   2.195   2.204   2.210   2.223   2.248   2.260
  2.278   2.292   2.299   2.304   2.328   2.349   2.364   2.415
  2.423   2.442   2.461   2.468   2.519   2.554   2.595   2.613
  2.618   2.633   2.655   2.676   2.708   2.720   2.726   2.744
  2.746   2.754   2.782   2.806   2.840   2.887   2.896   2.951
  2.986   3.067   3.105   3.147   3.239   3.247   3.312   3.363
  3.462   3.943   4.097   4.212   4.240   4.260   4.287   4.325
  4.339   4.380   4.394   4.446   4.464   4.509   4.627   4.698
  4.846   5.628   6.081   6.935
 --------------------------------------------------------------
 
          Ground-State Mulliken Net Atomic Charges

     Atom                 Charge (a.u.)
  ----------------------------------------
      1 C                    -0.280958
      2 C                    -0.228438
      3 C                    -0.060433
      4 C                    -0.546302
      5 C                    -0.257085
      6 C                    -0.760839
      7 C                    -0.903281
      8 C                     0.406195
      9 C                    -0.021074
     10 C                    -0.905457
     11 C                     0.608134
     12 C                     0.999546
     13 C                     1.482491
     14 F                    -0.311910
     15 F                    -0.336106
     16 F                    -0.274909
     17 N                    -0.718752
     18 N                    -0.754489
     19 S                     0.646655
     20 H                     0.181910
     21 H                     0.182660
     22 H                     0.182823
     23 H                     0.187397
     24 H                     0.211015
     25 H                     0.186890
     26 H                     0.205431
     27 H                     0.432585
     28 H                     0.446300
  ----------------------------------------
  Sum of atomic charges =     0.000000

 -----------------------------------------------------------------
                    Cartesian Multipole Moments
 -----------------------------------------------------------------
    Charge (ESU x 10^10)
                 0.0000
    Dipole Moment (Debye)
         X       3.2806      Y      -1.2608      Z      -1.0426
       Tot       3.6659
    Quadrupole Moments (Debye-Ang)
        XX    -112.2854     XY       3.7057     YY    -108.8256
        XZ       0.4139     YZ      -0.5882     ZZ    -120.1367
    Octopole Moments (Debye-Ang^2)
       XXX       9.8018    XXY     -24.8494    XYY     -25.1905
       YYY       4.2264    XXZ      -8.0755    XYZ     -16.8519
       YYZ     -10.1351    XZZ     -22.8598    YZZ       3.7411
       ZZZ       1.1351
    Hexadecapole Moments (Debye-Ang^3)
      XXXX   -5539.7402   XXXY      40.2476   XXYY   -1216.1166
      XYYY     -51.2497   YYYY   -1709.4436   XXXZ       3.2246
      XXYZ     -55.0760   XYYZ     -14.6828   YYYZ      18.5054
      XXZZ   -1053.1891   XYZZ     -26.0790   YYZZ    -366.5975
      XZZZ      -3.0310   YZZZ     -13.2678   ZZZZ    -343.4251
 -----------------------------------------------------------------
 Calculating analytic gradient of the SCF energy
 Gradient of SCF Energy
            1           2           3           4           5           6
    1   0.0022469   0.0010936   0.0009632  -0.0008133  -0.0012020   0.0020321
    2   0.0001068   0.0013870  -0.0016598   0.0019206  -0.0020447   0.0015467
    3  -0.0000304  -0.0010703   0.0011304  -0.0008704   0.0004992  -0.0012103
            7           8           9          10          11          12
    1  -0.0016833  -0.0017462   0.0013322  -0.0002868   0.0020599  -0.0014267
    2   0.0020880  -0.0001141   0.0005694  -0.0002235  -0.0052241  -0.0018081
    3  -0.0007154  -0.0005818  -0.0002107  -0.0007490   0.0053811   0.0051296
           13          14          15          16          17          18
    1   0.0006582   0.0002333  -0.0002875   0.0001317  -0.0025454   0.0007100
    2  -0.0004566  -0.0005536   0.0015369  -0.0003585   0.0046044   0.0021845
    3  -0.0008237   0.0003959   0.0001725   0.0000070  -0.0126022  -0.0088202
           19          20          21          22          23          24
    1   0.0006924  -0.0023480  -0.0011802  -0.0011340   0.0009464   0.0010676
    2   0.0031533   0.0000190  -0.0014591   0.0016048  -0.0015818   0.0018853
    3   0.0033348   0.0000118   0.0014474  -0.0013681   0.0013779  -0.0009022
           25          26          27          28
    1  -0.0007427   0.0004092  -0.0001376   0.0009572
    2  -0.0023448  -0.0023715  -0.0013491  -0.0010576
    3   0.0001432   0.0001689   0.0064672   0.0042876
 Max gradient component =       1.260E-02
 RMS gradient           =       2.532E-03
 Gradient time:  CPU 172.85 s  wall 18.05 s
 Geometry Optimization Parameters
   NAtoms,    NIC,     NZ,  NCons,   NDum,   NFix, NCnnct, MaxDiis
       28     205       0       0       0       0       0       0


** GEOMETRY OPTIMIZATION IN DELOCALIZED INTERNAL COORDINATES **
   Searching for a Minimum

   Optimization Cycle:   1

                       Coordinates (Angstroms)
     ATOM                X               Y               Z
      1  C         5.2870008258    0.4003735453    0.0019619536
      2  C         4.5985955941    1.3357108964   -0.7757966098
      3  C         4.5663818211   -0.4798801815    0.8137761287
      4  C         3.2041587723    1.3856865600   -0.7476118763
      5  C         3.1709619153   -0.4302243779    0.8433869002
      6  C         0.3255473879    1.8365717915    0.1414559288
      7  C        -1.0550764547    1.9352410582    0.1408062135
      8  C         2.4643626919    0.5027440898    0.0607400806
      9  C         0.9848066107    0.5817905398    0.1010907704
     10  C        -1.8563797713    0.7757272069    0.0761798848
     11  C         0.1830979584   -0.5630099307    0.0613684281
     12  C        -1.2283727393   -0.4723655548    0.0318327923
     13  C        -3.3462198359    0.8622573663    0.0652333678
     14  F        -3.8983475585    0.1701393133   -0.9845476603
     15  F        -3.8028361003    2.1314351953   -0.0187147166
     16  F        -3.9111921935    0.3133921276    1.1815289356
     17  N         0.6214113176   -1.8855773126   -0.0248074161
     18  N        -1.8211434384   -1.7100308559   -0.1010696095
     19  S        -0.6820407280   -3.0168447144   -0.3346422584
     20  H         6.3694218442    0.3594872246   -0.0226404865
     21  H         5.1460107970    2.0227798147   -1.4105833413
     22  H         5.0891683421   -1.1975002235    1.4354302411
     23  H         2.6795172347    2.1003607798   -1.3704407454
     24  H         2.6261102746   -1.0871498647    1.5111277770
     25  H         0.9300925658    2.7313113088    0.2128845277
     26  H        -1.5370053824    2.9008646652    0.1986964229
     27  H         1.5116236277   -2.0970674759   -0.4546410530
     28  H        -2.7859687981   -1.8527514023   -0.3553608348
   Point Group: c1    Number of degrees of freedom:    78


   Energy is  -1308.016083827


 Attempting to Generate Delocalized Internal Coordinates

 78 Hessian modes will be used to form the next step
  Hessian Eigenvalues:
     0.009684    0.010185    0.011531    0.015756    0.016984    0.018207
     0.018361    0.019259    0.019734    0.020908    0.021391    0.021586
     0.022101    0.022150    0.022253    0.022574    0.022606    0.022718
     0.022777    0.022799    0.022862    0.023080    0.023940    0.105328
     0.108663    0.135612    0.151704    0.159817    0.159872    0.159967
     0.159986    0.159994    0.159996    0.160000    0.220000    0.220009
     0.224638    0.233283    0.234679    0.241590    0.245119    0.249167
     0.249864    0.249929    0.249991    0.250000    0.250000    0.250000
     0.294813    0.299780    0.331889    0.343172    0.355327    0.355358
     0.355572    0.355774    0.355780    0.357310    0.359030    0.390671
     0.407298    0.412361    0.414842    0.430268    0.439466    0.448230
     0.450346    0.453339    0.453777    0.458185    0.460609    0.462800
     0.463210    0.475362    0.480352    0.503504    0.517095    0.547186

 Minimum Search - Taking Simple RFO Step
 Searching for Lamda that Minimizes Along All modes
 Value Taken    Lamda =  -0.00314578
 Calculated Step too Large.  Step scaled by  0.865555
 Step Taken.  Stepsize is  0.300000

                             Maximum     Tolerance    Cnvgd?
         Gradient           0.005522      0.000300      NO
         Displacement       0.193180      0.001200      NO
         Energy change     *********      0.000001      NO


 New Cartesian Coordinates Obtained by Inverse Iteration

 Displacement from previous Coordinates is:  0.358767
 ----------------------------------------------------------------
             Standard Nuclear Orientation (Angstroms)
    I     Atom           X                Y                Z
 ----------------------------------------------------------------
    1      C       5.2905045940     0.4035939425     0.0144890599
    2      C       4.6020133036     1.3149139297    -0.7915208238
    3      C       4.5695499580    -0.4566279437     0.8473256380
    4      C       3.2072667392     1.3629826412    -0.7677068213
    5      C       3.1736731359    -0.4109706176     0.8701523609
    6      C       0.3242625656     1.8327976161     0.1453879993
    7      C      -1.0551245303     1.9310130075     0.1499586245
    8      C       2.4668237811     0.5007578543     0.0624768429
    9      C       0.9842093296     0.5779868104     0.0952136043
   10      C      -1.8569251020     0.7716589631     0.0814929173
   11      C       0.1822562114    -0.5672574667     0.0538416207
   12      C      -1.2288960539    -0.4768440173     0.0287187661
   13      C      -3.3477756258     0.8585226793     0.0829883142
   14      F      -3.9093893192     0.1792668011    -0.9702977080
   15      F      -3.8034398258     2.1274380203     0.0112817491
   16      F      -3.9069167928     0.3031715455     1.1989072541
   17      N       0.6266206159    -1.8939886919    -0.0192023750
   18      N      -1.8254569116    -1.7165613159    -0.0831318160
   19      S      -0.6827281306    -3.0102949437    -0.3810719447
   20      H       6.3761046330     0.3651262224    -0.0055828944
   21      H       5.1510330919     1.9869945477    -1.4458372688
   22      H       5.0934563558    -1.1600703155     1.4892561538
   23      H       2.6823783396     2.0616345033    -1.4131894361
   24      H       2.6270399739    -1.0614385607     1.5473347592
   25      H       0.9270815387     2.7323188174     0.2165344337
   26      H      -1.5346332828     2.9008804576     0.2110994555
   27      H       1.4751422803    -2.0659015784    -0.5461070836
   28      H      -2.7744442917    -1.8376313184    -0.4061676366
 ----------------------------------------------------------------
 Molecular Point Group                 C1    NOp =  1
 Largest Abelian Subgroup              C1    NOp =  1
 Nuclear Repulsion Energy =  1525.6971590726 hartrees
 There are       72 alpha and       72 beta electrons
 Applying Cartesian multipole field
    Component          Value
    ---------          -----
     (2,0,0)        1.00000E-12
     (0,2,0)        2.00000E-11
     (0,0,2)       -3.00000E-11
 Nucleus-field energy     =     0.0000000241 hartrees
 Requested basis set is 6-31+G(d)
 There are 114 shells and 383 basis functions
 A cutoff of  1.0D-12 yielded   5101 shell pairs
 There are     61019 function pairs
 Smallest overlap matrix eigenvalue = 3.47E-07
 Linear dependence detected in AO basis
 Number of orthogonalized atomic orbitals = 380
 Maximum deviation from orthogonality = 5.148E-10
 Guess MOs from SCF MO coefficient file
 Reading MOs from coefficient file
 Reading MOs from coefficient file
 A restricted hybrid HF-DFT SCF calculation will be
 performed using Relaxed Constraint Minimization + Pulay DIIS
 Exchange:     0.2000 Hartree-Fock + 0.0800 Slater + 0.7200 B88
 Correlation:  0.1900 VWN1RPA + 0.8100 LYP
 Using SG-1 standard quadrature grid
 SCF converges when DIIS error is below 1.0E-08
 Geometry optimization detected.  Setting ReadMinima to 0
 Setting SaveMinima to 0
 using 12 threads for integral computing
 -------------------------------------------------------
 OpenMP Integral computing Module                
 Release: version 2.0, May 2017, Q-Chem Inc. Pleasanton 
 -------------------------------------------------------
 -------------------------------------------------------
 OpenMP BLAS3 based DFT computing Module                
 Release: version 1.0, May 2013, Q-Chem Inc. Pittsburgh 
 -------------------------------------------------------
 -------------------------------------------------------
 OpenMP BLAS3 based DFT computing Module                
 Release: version 1.0, May 2013, Q-Chem Inc. Pittsburgh 
 -------------------------------------------------------
 ---------------------------------------
  Cycle       Energy         DIIS Error
 ---------------------------------------
    1   -1308.0007954517      8.65E-04 Done RCA. Switching to DIIS
    2   -1308.0183287961      1.18E-04
    3   -1308.0178920132      1.92E-04
    4   -1308.0186128540      4.10E-05
    5   -1308.0186421880      1.42E-05
    6   -1308.0186450635      6.34E-06
    7   -1308.0186457200      1.39E-06
    8   -1308.0186457509      6.13E-07
    9   -1308.0186457573      1.54E-07
   10   -1308.0186457576      8.71E-08
   11   -1308.0186457577      3.08E-08
   12   -1308.0186457577      8.52E-09 Convergence criterion met
 ---------------------------------------
 SCF time:  CPU 333.24 s  wall 27.79 s
 SCF   energy in the final basis set = -1308.01864576
 Total energy in the final basis set = -1308.01864576
 
 --------------------------------------------------------------
 
                    Orbital Energies (a.u.)
 --------------------------------------------------------------
 
 Alpha MOs
 -- Occupied --
-88.963 -24.752 -24.748 -24.743 -14.396 -14.393 -10.452 -10.266
-10.256 -10.224 -10.221 -10.220 -10.209 -10.209 -10.209 -10.208
-10.208 -10.207 -10.202  -8.016  -5.983  -5.979  -5.968  -1.318
 -1.235  -1.226  -1.010  -0.921  -0.883  -0.865  -0.805  -0.775
 -0.762  -0.760  -0.708  -0.693  -0.659  -0.638  -0.618  -0.613
 -0.595  -0.594  -0.593  -0.547  -0.526  -0.505  -0.493  -0.490
 -0.477  -0.475  -0.471  -0.462  -0.456  -0.448  -0.436  -0.434
 -0.431  -0.425  -0.418  -0.408  -0.395  -0.384  -0.381  -0.363
 -0.359  -0.352  -0.346  -0.284  -0.277  -0.269  -0.241  -0.181
 -- Virtual --
 -0.065  -0.053  -0.026  -0.010  -0.008  -0.006   0.004   0.006
  0.013   0.024   0.025   0.034   0.041   0.044   0.048   0.055
  0.058   0.066   0.068   0.074   0.082   0.083   0.090   0.091
  0.099   0.099   0.104   0.109   0.114   0.119   0.123   0.125
  0.127   0.131   0.132   0.143   0.148   0.149   0.152   0.161
  0.164   0.171   0.174   0.177   0.183   0.186   0.188   0.192
  0.195   0.200   0.201   0.208   0.209   0.214   0.215   0.222
  0.225   0.228   0.232   0.236   0.237   0.241   0.244   0.249
  0.254   0.254   0.259   0.262   0.271   0.273   0.275   0.277
  0.280   0.287   0.292   0.297   0.299   0.306   0.309   0.316
  0.322   0.323   0.326   0.334   0.341   0.342   0.351   0.356
  0.361   0.363   0.369   0.374   0.384   0.396   0.400   0.405
  0.405   0.416   0.429   0.442   0.451   0.465   0.477   0.487
  0.497   0.528   0.539   0.558   0.568   0.596   0.620   0.629
  0.642   0.659   0.675   0.688   0.690   0.698   0.701   0.712
  0.714   0.720   0.726   0.727   0.736   0.740   0.746   0.753
  0.760   0.770   0.779   0.786   0.801   0.808   0.819   0.825
  0.840   0.847   0.853   0.871   0.882   0.899   0.904   0.919
  0.930   0.938   0.940   0.970   0.979   0.990   0.995   1.011
  1.015   1.019   1.033   1.053   1.062   1.071   1.082   1.097
  1.099   1.106   1.124   1.143   1.151   1.157   1.163   1.173
  1.177   1.196   1.204   1.229   1.242   1.255   1.258   1.273
  1.281   1.309   1.332   1.341   1.363   1.383   1.408   1.427
  1.433   1.451   1.455   1.468   1.480   1.481   1.488   1.500
  1.513   1.553   1.576   1.606   1.618   1.631   1.644   1.658
  1.670   1.671   1.686   1.693   1.702   1.715   1.725   1.759
  1.775   1.787   1.790   1.801   1.822   1.825   1.841   1.856
  1.862   1.867   1.877   1.887   1.889   1.913   1.944   1.949
  1.954   1.962   1.977   1.997   2.008   2.043   2.049   2.059
  2.064   2.073   2.081   2.097   2.117   2.132   2.137   2.146
  2.159   2.174   2.192   2.202   2.214   2.221   2.251   2.259
  2.272   2.289   2.298   2.309   2.326   2.351   2.364   2.406
  2.427   2.438   2.460   2.467   2.518   2.550   2.594   2.610
  2.616   2.630   2.656   2.672   2.705   2.720   2.725   2.742
  2.744   2.756   2.781   2.803   2.835   2.883   2.894   2.947
  2.984   3.067   3.101   3.146   3.236   3.243   3.305   3.361
  3.458   3.942   4.098   4.217   4.240   4.260   4.287   4.325
  4.336   4.380   4.393   4.445   4.461   4.508   4.625   4.697
  4.842   5.630   6.079   6.939
 --------------------------------------------------------------
 
          Ground-State Mulliken Net Atomic Charges

     Atom                 Charge (a.u.)
  ----------------------------------------
      1 C                    -0.268514
      2 C                    -0.213072
      3 C                    -0.058628
      4 C                    -0.525243
      5 C                    -0.182209
      6 C                    -0.778692
      7 C                    -0.882030
      8 C                     0.292767
      9 C                    -0.023248
     10 C                    -0.865822
     11 C                     0.568521
     12 C                     0.964583
     13 C                     1.463790
     14 F                    -0.314534
     15 F                    -0.335717
     16 F                    -0.273051
     17 N                    -0.684287
     18 N                    -0.735780
     19 S                     0.638687
     20 H                     0.182368
     21 H                     0.182931
     22 H                     0.183612
     23 H                     0.187705
     24 H                     0.210725
     25 H                     0.188617
     26 H                     0.206689
     27 H                     0.430258
     28 H                     0.439575
  ----------------------------------------
  Sum of atomic charges =     0.000000

 -----------------------------------------------------------------
                    Cartesian Multipole Moments
 -----------------------------------------------------------------
    Charge (ESU x 10^10)
                 0.0000
    Dipole Moment (Debye)
         X       3.2884      Y      -0.9776      Z      -1.2550
       Tot       3.6530
    Quadrupole Moments (Debye-Ang)
        XX    -112.4630     XY       3.6067     YY    -109.6276
        XZ       0.6076     YZ      -0.0482     ZZ    -119.6712
    Octopole Moments (Debye-Ang^2)
       XXX      11.0040    XXY     -23.2854    XYY     -26.2751
       YYY       7.2416    XXZ      -8.9518    XYZ     -17.1439
       YYZ     -11.4226    XZZ     -22.0735    YZZ       3.4658
       ZZZ       1.0728
    Hexadecapole Moments (Debye-Ang^3)
      XXXX   -5544.2545   XXXY      36.4751   XXYY   -1223.4943
      XYYY     -53.9138   YYYY   -1706.6457   XXXZ       8.9738
      XXYZ     -55.3633   XYYZ     -13.9658   YYYZ      16.2360
      XXZZ   -1051.4629   XYZZ     -26.5196   YYZZ    -364.4046
      XZZZ      -2.2010   YZZZ     -21.1894   ZZZZ    -353.7454
 -----------------------------------------------------------------
 Calculating analytic gradient of the SCF energy
 Gradient of SCF Energy
            1           2           3           4           5           6
    1   0.0004515  -0.0001125   0.0002633   0.0003325   0.0002208  -0.0010939
    2  -0.0000410   0.0001656  -0.0003164   0.0006644  -0.0007602   0.0008263
    3   0.0001331  -0.0001593   0.0002291   0.0000345  -0.0005791  -0.0007878
            7           8           9          10          11          12
    1   0.0011232  -0.0016047   0.0010320  -0.0002369   0.0041938  -0.0028770
    2   0.0012538   0.0002001   0.0005093  -0.0004609  -0.0065210  -0.0022539
    3  -0.0003744  -0.0000015  -0.0011845  -0.0010284   0.0045597   0.0046005
           13          14          15          16          17          18
    1   0.0013588  -0.0002601  -0.0002451  -0.0005824  -0.0067149   0.0039806
    2  -0.0003794   0.0002122   0.0001827  -0.0003068   0.0048042   0.0021787
    3  -0.0008958   0.0002515   0.0000257   0.0006606  -0.0098107  -0.0095165
           19          20          21          22          23          24
    1   0.0009774  -0.0002843  -0.0001171  -0.0000683   0.0001715   0.0002581
    2   0.0024231  -0.0000493  -0.0001490   0.0001608  -0.0003534   0.0005729
    3   0.0033700  -0.0000197   0.0002143  -0.0001836   0.0001831   0.0004648
           25          26          27          28
    1  -0.0001214  -0.0000453   0.0000196  -0.0000193
    2  -0.0003401  -0.0003482  -0.0008224  -0.0010522
    3   0.0002704   0.0001632   0.0048752   0.0045055
 Max gradient component =       9.811E-03
 RMS gradient           =       2.377E-03
 Gradient time:  CPU 171.49 s  wall 17.74 s
 Geometry Optimization Parameters
   NAtoms,    NIC,     NZ,  NCons,   NDum,   NFix, NCnnct, MaxDiis
       28     205       0       0       0       0       0       0

 Cartesian Hessian Update
 Hessian Updated using BFGS Update


** GEOMETRY OPTIMIZATION IN DELOCALIZED INTERNAL COORDINATES **
   Searching for a Minimum

   Optimization Cycle:   2

                       Coordinates (Angstroms)
     ATOM                X               Y               Z
      1  C         5.2905045940    0.4035939425    0.0144890599
      2  C         4.6020133036    1.3149139297   -0.7915208238
      3  C         4.5695499580   -0.4566279437    0.8473256380
      4  C         3.2072667392    1.3629826412   -0.7677068213
      5  C         3.1736731359   -0.4109706176    0.8701523609
      6  C         0.3242625656    1.8327976161    0.1453879993
      7  C        -1.0551245303    1.9310130075    0.1499586245
      8  C         2.4668237811    0.5007578543    0.0624768429
      9  C         0.9842093296    0.5779868104    0.0952136043
     10  C        -1.8569251020    0.7716589631    0.0814929173
     11  C         0.1822562114   -0.5672574667    0.0538416207
     12  C        -1.2288960539   -0.4768440173    0.0287187661
     13  C        -3.3477756258    0.8585226793    0.0829883142
     14  F        -3.9093893192    0.1792668011   -0.9702977080
     15  F        -3.8034398258    2.1274380203    0.0112817491
     16  F        -3.9069167928    0.3031715455    1.1989072541
     17  N         0.6266206159   -1.8939886919   -0.0192023750
     18  N        -1.8254569116   -1.7165613159   -0.0831318160
     19  S        -0.6827281306   -3.0102949437   -0.3810719447
     20  H         6.3761046330    0.3651262224   -0.0055828944
     21  H         5.1510330919    1.9869945477   -1.4458372688
     22  H         5.0934563558   -1.1600703155    1.4892561538
     23  H         2.6823783396    2.0616345033   -1.4131894361
     24  H         2.6270399739   -1.0614385607    1.5473347592
     25  H         0.9270815387    2.7323188174    0.2165344337
     26  H        -1.5346332828    2.9008804576    0.2110994555
     27  H         1.4751422803   -2.0659015784   -0.5461070836
     28  H        -2.7744442917   -1.8376313184   -0.4061676366
   Point Group: c1    Number of degrees of freedom:    78


   Energy is  -1308.018645758

 Hessian Updated using BFGS Update

 77 Hessian modes will be used to form the next step
  Hessian Eigenvalues:
     0.002070    0.009771    0.010199    0.012525    0.017039    0.017495
     0.018360    0.019096    0.019990    0.020955    0.021233    0.021552
     0.021907    0.022138    0.022258    0.022440    0.022590    0.022718
     0.022777    0.022796    0.022861    0.023084    0.023527    0.105369
     0.109939    0.135151    0.151031    0.159797    0.159928    0.159969
     0.159984    0.159996    0.159999    0.161255    0.220000    0.220020
     0.224663    0.234591    0.239800    0.244833    0.246824    0.249060
     0.249857    0.249926    0.249980    0.249997    0.263339    0.292108
     0.297702    0.331971    0.344026    0.355342    0.355471    0.355656
     0.355772    0.356991    0.358613    0.390509    0.395289    0.408822
     0.414608    0.415755    0.430947    0.441689    0.448308    0.450283
     0.453381    0.456027    0.460413    0.462231    0.462767    0.468388
     0.475432    0.503429    0.509580    0.529354    0.569276

 Minimum Search - Taking Simple RFO Step
 Searching for Lamda that Minimizes Along All modes
 Value Taken    Lamda =  -0.00721011
 Calculated Step too Large.  Step scaled by  0.346134
 Step Taken.  Stepsize is  0.300000

                             Maximum     Tolerance    Cnvgd?
         Gradient           0.005242      0.000300      NO
         Displacement       0.193080      0.001200      NO
         Energy change     -0.002562      0.000001      NO


 New Cartesian Coordinates Obtained by Inverse Iteration

 Displacement from previous Coordinates is:  0.232672
 ----------------------------------------------------------------
             Standard Nuclear Orientation (Angstroms)
    I     Atom           X                Y                Z
 ----------------------------------------------------------------
    1      C       5.2907999358     0.4057720189     0.0214233385
    2      C       4.6022618719     1.3068129080    -0.7960378010
    3      C       4.5700593453    -0.4482670009     0.8610327005
    4      C       3.2072754167     1.3522681353    -0.7746998484
    5      C       3.1740912949    -0.4059428678     0.8806512924
    6      C       0.3240816095     1.8288209844     0.1445514666
    7      C      -1.0550697292     1.9265047916     0.1500834426
    8      C       2.4679260351     0.4977631119     0.0641013717
    9      C       0.9833385477     0.5742823407     0.0950238602
   10      C      -1.8567468369     0.7676313522     0.0863415190
   11      C       0.1819671516    -0.5708940886     0.0579374071
   12      C      -1.2286737155    -0.4817414624     0.0369631443
   13      C      -3.3483359777     0.8556336215     0.0922225434
   14      F      -3.9119808465     0.1741389570    -0.9588006138
   15      F      -3.8024724170     2.1240058461     0.0163335388
   16      F      -3.9045804527     0.3052479131     1.2111320539
   17      N       0.6407157862    -1.9018672059     0.0055954448
   18      N      -1.8324118203    -1.7232521167    -0.0456026672
   19      S      -0.6798983642    -2.9963295615    -0.4124875277
   20      H       6.3782699090     0.3697261593     0.0040937291
   21      H       5.1518654179     1.9740663763    -1.4576689260
   22      H       5.0947755020    -1.1473873587     1.5099219068
   23      H       2.6814583512     2.0456190122    -1.4282190733
   24      H       2.6256363475    -1.0600146077     1.5553987516
   25      H       0.9260923412     2.7316163020     0.2078933482
   26      H      -1.5328465810     2.8994691347     0.2052840300
   27      H       1.4416319883    -2.0323343439    -0.6071163557
   28      H      -2.7555435300    -1.8178767616    -0.4487083310
 ----------------------------------------------------------------
 Molecular Point Group                 C1    NOp =  1
 Largest Abelian Subgroup              C1    NOp =  1
 Nuclear Repulsion Energy =  1525.6924952228 hartrees
 There are       72 alpha and       72 beta electrons
 Applying Cartesian multipole field
    Component          Value
    ---------          -----
     (2,0,0)        1.00000E-12
     (0,2,0)        2.00000E-11
     (0,0,2)       -3.00000E-11
 Nucleus-field energy     =     0.0000000238 hartrees
 Requested basis set is 6-31+G(d)
 There are 114 shells and 383 basis functions
 A cutoff of  1.0D-12 yielded   5099 shell pairs
 There are     60989 function pairs
 Smallest overlap matrix eigenvalue = 3.48E-07
 Linear dependence detected in AO basis
 Number of orthogonalized atomic orbitals = 380
 Maximum deviation from orthogonality = 3.301E-10
 Guess MOs from SCF MO coefficient file
 Reading MOs from coefficient file
 Reading MOs from coefficient file
 A restricted hybrid HF-DFT SCF calculation will be
 performed using Relaxed Constraint Minimization + Pulay DIIS
 Exchange:     0.2000 Hartree-Fock + 0.0800 Slater + 0.7200 B88
 Correlation:  0.1900 VWN1RPA + 0.8100 LYP
 Using SG-1 standard quadrature grid
 SCF converges when DIIS error is below 1.0E-08
 Geometry optimization detected.  Setting ReadMinima to 0
 Setting SaveMinima to 0
 using 12 threads for integral computing
 -------------------------------------------------------
 OpenMP Integral computing Module                
 Release: version 2.0, May 2017, Q-Chem Inc. Pleasanton 
 -------------------------------------------------------
 -------------------------------------------------------
 OpenMP BLAS3 based DFT computing Module                
 Release: version 1.0, May 2013, Q-Chem Inc. Pittsburgh 
 -------------------------------------------------------
 -------------------------------------------------------
 OpenMP BLAS3 based DFT computing Module                
 Release: version 1.0, May 2013, Q-Chem Inc. Pittsburgh 
 -------------------------------------------------------
 ---------------------------------------
  Cycle       Energy         DIIS Error
 ---------------------------------------
    1   -1308.0011332581      7.59E-04 Done RCA. Switching to DIIS
    2   -1308.0203753453      1.45E-04
    3   -1308.0192338553      2.80E-04
    4   -1308.0208239868      4.01E-05
    5   -1308.0208515196      1.19E-05
    6   -1308.0208535154      5.29E-06
    7   -1308.0208539956      1.63E-06
    8   -1308.0208540435      6.51E-07
    9   -1308.0208540510      1.86E-07
   10   -1308.0208540516      7.67E-08
   11   -1308.0208540517      2.47E-08
   12   -1308.0208540517      9.61E-09 Convergence criterion met
 ---------------------------------------
 SCF time:  CPU 333.24 s  wall 27.79 s
 SCF   energy in the final basis set = -1308.02085405
 Total energy in the final basis set = -1308.02085405
 
 --------------------------------------------------------------
 
                    Orbital Energies (a.u.)
 --------------------------------------------------------------
 
 Alpha MOs
 -- Occupied --
-88.959 -24.753 -24.750 -24.744 -14.395 -14.394 -10.453 -10.266
-10.256 -10.226 -10.224 -10.221 -10.212 -10.210 -10.209 -10.209
-10.209 -10.208 -10.205  -8.013  -5.980  -5.976  -5.964  -1.319
 -1.236  -1.228  -1.009  -0.921  -0.884  -0.866  -0.806  -0.774
 -0.762  -0.760  -0.709  -0.691  -0.659  -0.638  -0.618  -0.613
 -0.596  -0.594  -0.592  -0.546  -0.524  -0.505  -0.493  -0.488
 -0.478  -0.476  -0.472  -0.463  -0.456  -0.448  -0.437  -0.435
 -0.431  -0.426  -0.419  -0.406  -0.395  -0.385  -0.381  -0.364
 -0.360  -0.352  -0.346  -0.285  -0.276  -0.269  -0.243  -0.185
 -- Virtual --
 -0.064  -0.055  -0.027  -0.012  -0.009  -0.007   0.004   0.006
  0.013   0.023   0.025   0.034   0.041   0.044   0.048   0.055
  0.058   0.066   0.068   0.074   0.082   0.083   0.090   0.090
  0.098   0.099   0.104   0.108   0.114   0.119   0.122   0.125
  0.127   0.130   0.132   0.143   0.148   0.149   0.151   0.160
  0.164   0.171   0.174   0.176   0.182   0.185   0.188   0.190
  0.195   0.199   0.201   0.207   0.209   0.214   0.215   0.222
  0.225   0.228   0.232   0.236   0.236   0.240   0.243   0.250
  0.253   0.254   0.259   0.261   0.272   0.273   0.274   0.277
  0.280   0.286   0.290   0.295   0.298   0.306   0.309   0.315
  0.321   0.322   0.324   0.334   0.340   0.342   0.353   0.355
  0.362   0.362   0.369   0.374   0.382   0.396   0.399   0.404
  0.405   0.413   0.425   0.442   0.450   0.464   0.476   0.485
  0.496   0.527   0.539   0.558   0.567   0.595   0.618   0.628
  0.641   0.659   0.674   0.686   0.689   0.697   0.699   0.712
  0.714   0.718   0.725   0.727   0.736   0.740   0.745   0.753
  0.759   0.770   0.777   0.784   0.800   0.808   0.820   0.825
  0.839   0.846   0.852   0.870   0.881   0.897   0.903   0.917
  0.929   0.937   0.939   0.970   0.978   0.988   0.994   1.013
  1.016   1.021   1.032   1.051   1.063   1.070   1.081   1.094
  1.097   1.107   1.118   1.143   1.152   1.156   1.163   1.173
  1.176   1.197   1.203   1.228   1.237   1.252   1.256   1.270
  1.280   1.306   1.332   1.341   1.362   1.376   1.402   1.423
  1.432   1.441   1.453   1.468   1.479   1.480   1.483   1.492
  1.512   1.559   1.576   1.604   1.617   1.620   1.648   1.660
  1.670   1.671   1.687   1.691   1.701   1.717   1.723   1.756
  1.772   1.784   1.789   1.798   1.822   1.826   1.843   1.855
  1.862   1.869   1.878   1.887   1.891   1.912   1.943   1.949
  1.952   1.960   1.976   1.995   2.008   2.043   2.048   2.062
  2.067   2.074   2.081   2.099   2.114   2.130   2.139   2.146
  2.160   2.171   2.190   2.202   2.215   2.223   2.253   2.256
  2.266   2.287   2.297   2.312   2.329   2.352   2.364   2.394
  2.429   2.438   2.458   2.467   2.516   2.545   2.592   2.607
  2.615   2.626   2.657   2.669   2.703   2.719   2.724   2.742
  2.744   2.756   2.781   2.802   2.833   2.878   2.892   2.942
  2.981   3.066   3.096   3.145   3.232   3.240   3.298   3.359
  3.456   3.939   4.099   4.223   4.239   4.260   4.286   4.325
  4.332   4.378   4.393   4.444   4.458   4.507   4.622   4.696
  4.838   5.636   6.075   6.941
 --------------------------------------------------------------
 
          Ground-State Mulliken Net Atomic Charges

     Atom                 Charge (a.u.)
  ----------------------------------------
      1 C                    -0.263865
      2 C                    -0.211624
      3 C                    -0.057063
      4 C                    -0.516284
      5 C                    -0.141920
      6 C                    -0.785008
      7 C                    -0.878645
      8 C                     0.240577
      9 C                     0.005945
     10 C                    -0.825202
     11 C                     0.529638
     12 C                     0.909588
     13 C                     1.456275
     14 F                    -0.317257
     15 F                    -0.334949
     16 F                    -0.270318
     17 N                    -0.665840
     18 N                    -0.713194
     19 S                     0.624975
     20 H                     0.182762
     21 H                     0.183204
     22 H                     0.184268
     23 H                     0.187545
     24 H                     0.212421
     25 H                     0.189798
     26 H                     0.207831
     27 H                     0.432521
     28 H                     0.433822
  ----------------------------------------
  Sum of atomic charges =    -0.000000

 -----------------------------------------------------------------
                    Cartesian Multipole Moments
 -----------------------------------------------------------------
    Charge (ESU x 10^10)
                -0.0000
    Dipole Moment (Debye)
         X       3.3063      Y      -0.5993      Z      -1.4413
       Tot       3.6562
    Quadrupole Moments (Debye-Ang)
        XX    -112.5386     XY       3.3853     YY    -110.4740
        XZ       0.8170     YZ       0.3910     ZZ    -119.3643
    Octopole Moments (Debye-Ang^2)
       XXX      12.1845    XXY     -21.1352    XYY     -26.5229
       YYY      11.2877    XXZ      -9.8727    XYZ     -17.5136
       YYZ     -12.7678    XZZ     -21.9393    YZZ       3.2183
       ZZZ       0.3816
    Hexadecapole Moments (Debye-Ang^3)
      XXXX   -5538.2959   XXXY      32.4865   XXYY   -1227.7966
      XYYY     -55.5160   YYYY   -1706.7729   XXXZ      13.3072
      XXYZ     -54.3974   XYYZ     -12.9926   YYYZ      16.9210
      XXZZ   -1049.8911   XYZZ     -26.5225   YYZZ    -361.6450
      XZZZ      -1.3981   YZZZ     -23.6811   ZZZZ    -358.7781
 -----------------------------------------------------------------
 Calculating analytic gradient of the SCF energy
 Gradient of SCF Energy
            1           2           3           4           5           6
    1  -0.0006270  -0.0006746  -0.0002708   0.0008346   0.0007704  -0.0028712
    2  -0.0000364  -0.0005130   0.0004422  -0.0003537   0.0002504   0.0003352
    3   0.0001301   0.0004667  -0.0003814   0.0005346  -0.0011054  -0.0003149
            7           8           9          10          11          12
    1   0.0028090  -0.0008955   0.0001812  -0.0006260   0.0057449  -0.0047365
    2   0.0006034   0.0001428  -0.0001966  -0.0007161  -0.0066808  -0.0032469
    3  -0.0001962   0.0002825  -0.0015583  -0.0011324   0.0027604   0.0038080
           13          14          15          16          17          18
    1   0.0016843  -0.0004161  -0.0001158  -0.0008662  -0.0071256   0.0057485
    2   0.0001458   0.0003045  -0.0004343  -0.0004641   0.0032702   0.0024118
    3  -0.0011180   0.0001845   0.0000014   0.0010479  -0.0046618  -0.0091649
           19          20          21          22          23          24
    1   0.0012538   0.0008959   0.0004809   0.0004824  -0.0003770  -0.0003952
    2   0.0036173  -0.0000620   0.0005986  -0.0006456   0.0004618  -0.0003563
    3   0.0029140  -0.0000369  -0.0005222   0.0005330  -0.0005271   0.0010176
           25          26          27          28
    1   0.0003549  -0.0002780  -0.0002758  -0.0006896
    2   0.0008302   0.0008027   0.0001791  -0.0006900
    3   0.0002239   0.0001433   0.0023750   0.0042967
 Max gradient component =       9.165E-03
 RMS gradient           =       2.255E-03
 Gradient time:  CPU 172.17 s  wall 17.93 s
 Geometry Optimization Parameters
   NAtoms,    NIC,     NZ,  NCons,   NDum,   NFix, NCnnct, MaxDiis
       28     205       0       0       0       0       0       0

 Cartesian Hessian Update
 Hessian Updated using BFGS Update


** GEOMETRY OPTIMIZATION IN DELOCALIZED INTERNAL COORDINATES **
   Searching for a Minimum

   Optimization Cycle:   3

                       Coordinates (Angstroms)
     ATOM                X               Y               Z
      1  C         5.2907999358    0.4057720189    0.0214233385
      2  C         4.6022618719    1.3068129080   -0.7960378010
      3  C         4.5700593453   -0.4482670009    0.8610327005
      4  C         3.2072754167    1.3522681353   -0.7746998484
      5  C         3.1740912949   -0.4059428678    0.8806512924
      6  C         0.3240816095    1.8288209844    0.1445514666
      7  C        -1.0550697292    1.9265047916    0.1500834426
      8  C         2.4679260351    0.4977631119    0.0641013717
      9  C         0.9833385477    0.5742823407    0.0950238602
     10  C        -1.8567468369    0.7676313522    0.0863415190
     11  C         0.1819671516   -0.5708940886    0.0579374071
     12  C        -1.2286737155   -0.4817414624    0.0369631443
     13  C        -3.3483359777    0.8556336215    0.0922225434
     14  F        -3.9119808465    0.1741389570   -0.9588006138
     15  F        -3.8024724170    2.1240058461    0.0163335388
     16  F        -3.9045804527    0.3052479131    1.2111320539
     17  N         0.6407157862   -1.9018672059    0.0055954448
     18  N        -1.8324118203   -1.7232521167   -0.0456026672
     19  S        -0.6798983642   -2.9963295615   -0.4124875277
     20  H         6.3782699090    0.3697261593    0.0040937291
     21  H         5.1518654179    1.9740663763   -1.4576689260
     22  H         5.0947755020   -1.1473873587    1.5099219068
     23  H         2.6814583512    2.0456190122   -1.4282190733
     24  H         2.6256363475   -1.0600146077    1.5553987516
     25  H         0.9260923412    2.7316163020    0.2078933482
     26  H        -1.5328465810    2.8994691347    0.2052840300
     27  H         1.4416319883   -2.0323343439   -0.6071163557
     28  H        -2.7555435300   -1.8178767616   -0.4487083310
   Point Group: c1    Number of degrees of freedom:    78


   Energy is  -1308.020854052

 Hessian Updated using BFGS Update

 78 Hessian modes will be used to form the next step
  Hessian Eigenvalues:
     0.005307    0.009837    0.010200    0.012798    0.017091    0.017786
     0.018360    0.019199    0.020008    0.021045    0.021396    0.021595
     0.022119    0.022197    0.022282    0.022579    0.022670    0.022719
     0.022777    0.022798    0.022865    0.023088    0.028935    0.105357
     0.109937    0.135546    0.150339    0.159800    0.159927    0.159975
     0.159986    0.159996    0.160000    0.161269    0.219994    0.220010
     0.224626    0.234585    0.239777    0.244824    0.246119    0.248863
     0.249913    0.249965    0.249993    0.250000    0.250288    0.261867
     0.282438    0.296761    0.332020    0.344010    0.355343    0.355475
     0.355646    0.355780    0.356990    0.358625    0.390585    0.394879
     0.408392    0.414320    0.415170    0.427770    0.440996    0.448301
     0.449793    0.453388    0.454225    0.460408    0.461958    0.462757
     0.469203    0.474991    0.503501    0.510511    0.530220    0.576959

 Minimum Search - Taking Simple RFO Step
 Searching for Lamda that Minimizes Along All modes
 Value Taken    Lamda =  -0.00426178
 Calculated Step too Large.  Step scaled by  0.466915
 Step Taken.  Stepsize is  0.300000

                             Maximum     Tolerance    Cnvgd?
         Gradient           0.004409      0.000300      NO
         Displacement       0.193123      0.001200      NO
         Energy change     -0.002208      0.000001      NO


 New Cartesian Coordinates Obtained by Inverse Iteration

 Displacement from previous Coordinates is:  0.242528
 ----------------------------------------------------------------
             Standard Nuclear Orientation (Angstroms)
    I     Atom           X                Y                Z
 ----------------------------------------------------------------
    1      C       5.2911725406     0.4113247284     0.0271863202
    2      C       4.6005390007     1.3000257639    -0.8017942484
    3      C       4.5729299608    -0.4364266358     0.8753247485
    4      C       3.2053347578     1.3409640203    -0.7812927922
    5      C       3.1768653936    -0.4002521116     0.8927968196
    6      C       0.3257693050     1.8221127251     0.1458797442
    7      C      -1.0539012784     1.9201208187     0.1507058207
    8      C       2.4691848424     0.4929730108     0.0665691373
    9      C       0.9828079445     0.5680481715     0.0970475873
   10      C      -1.8556081651     0.7630370652     0.0912607866
   11      C       0.1796872398    -0.5760368429     0.0589434953
   12      C      -1.2290863565    -0.4881687023     0.0444621765
   13      C      -3.3482043793     0.8546466253     0.1017486045
   14      F      -3.9141008631     0.1724333653    -0.9478403929
   15      F      -3.7985329662     2.1234992608     0.0219295799
   16      F      -3.9019351066     0.3101653126     1.2230354921
   17      N       0.6515750311    -1.9128435292     0.0172702910
   18      N      -1.8481074620    -1.7312354353    -0.0032108834
   19      S      -0.6871010545    -2.9857044097    -0.4383883111
   20      H       6.3796813137     0.3795799061     0.0117855553
   21      H       5.1486703483     1.9618106363    -1.4714852375
   22      H       5.1000520967    -1.1279863991     1.5317221616
   23      H       2.6773986160     2.0266287244    -1.4427277066
   24      H       2.6292638646    -1.0557928839     1.5677137556
   25      H       0.9274093171     2.7265519931     0.2036086737
   26      H      -1.5297355514     2.8953153357     0.2005993130
   27      H       1.4084383019    -2.0116503740    -0.6599430148
   28      H      -2.7267801105    -1.7896685503    -0.5062637308
 ----------------------------------------------------------------
 Molecular Point Group                 C1    NOp =  1
 Largest Abelian Subgroup              C1    NOp =  1
 Nuclear Repulsion Energy =  1525.3700688255 hartrees
 There are       72 alpha and       72 beta electrons
 Applying Cartesian multipole field
    Component          Value
    ---------          -----
     (2,0,0)        1.00000E-12
     (0,2,0)        2.00000E-11
     (0,0,2)       -3.00000E-11
 Nucleus-field energy     =     0.0000000236 hartrees
 Requested basis set is 6-31+G(d)
 There are 114 shells and 383 basis functions
 A cutoff of  1.0D-12 yielded   5099 shell pairs
 There are     60977 function pairs
 Smallest overlap matrix eigenvalue = 3.51E-07
 Linear dependence detected in AO basis
 Number of orthogonalized atomic orbitals = 381
 Maximum deviation from orthogonality = 4.650E-10
 No. of orbitals has changed due to linear dependencies.  Generating new SCF guess.
 Guess from superposition of atomic densities
 Warning:  Energy on first SCF cycle will be non-variational
 SAD guess density has 144.000000 electrons
 A restricted hybrid HF-DFT SCF calculation will be
 performed using Relaxed Constraint Minimization + Pulay DIIS
 Exchange:     0.2000 Hartree-Fock + 0.0800 Slater + 0.7200 B88
 Correlation:  0.1900 VWN1RPA + 0.8100 LYP
 Using SG-1 standard quadrature grid
 SCF converges when DIIS error is below 1.0E-08
 Geometry optimization detected.  Setting ReadMinima to 0
 Setting SaveMinima to 0
 using 12 threads for integral computing
 -------------------------------------------------------
 OpenMP Integral computing Module                
 Release: version 2.0, May 2017, Q-Chem Inc. Pleasanton 
 -------------------------------------------------------
 -------------------------------------------------------
 OpenMP BLAS3 based DFT computing Module                
 Release: version 1.0, May 2013, Q-Chem Inc. Pittsburgh 
 -------------------------------------------------------
 -------------------------------------------------------
 OpenMP BLAS3 based DFT computing Module                
 Release: version 1.0, May 2013, Q-Chem Inc. Pittsburgh 
 -------------------------------------------------------
 ---------------------------------------
  Cycle       Energy         DIIS Error
 ---------------------------------------
    1   -1312.2934986039      3.60E-02
    2   -1307.7652060864      3.85E-03
    3   -1307.8696006405      8.90E-04 Done RCA. Switching to DIIS
    4   -1308.0141714505      6.61E-04
    5   -1308.0199478443      3.61E-04
    6   -1308.0222578354      1.07E-04
    7   -1308.0224557142      4.02E-05
    8   -1308.0224850078      1.04E-05
    9   -1308.0224870419      2.51E-06
   10   -1308.0224871430      1.17E-06
   11   -1308.0224871682      3.81E-07
   12   -1308.0224871710      1.64E-07
   13   -1308.0224871715      4.61E-08
   14   -1308.0224871716      1.60E-08
   15   -1308.0224871716      6.29E-09 Convergence criterion met
 ---------------------------------------
 SCF time:  CPU 405.62 s  wall 33.83 s
 SCF   energy in the final basis set = -1308.02248717
 Total energy in the final basis set = -1308.02248717
 
 --------------------------------------------------------------
 
                    Orbital Energies (a.u.)
 --------------------------------------------------------------
 
 Alpha MOs
 -- Occupied --
-88.955 -24.755 -24.751 -24.745 -14.395 -14.394 -10.454 -10.265
-10.256 -10.229 -10.226 -10.222 -10.215 -10.210 -10.210 -10.210
-10.209 -10.208 -10.208  -8.009  -5.976  -5.972  -5.961  -1.321
 -1.238  -1.229  -1.007  -0.921  -0.885  -0.867  -0.807  -0.773
 -0.763  -0.761  -0.710  -0.688  -0.659  -0.638  -0.618  -0.612
 -0.598  -0.595  -0.592  -0.546  -0.522  -0.506  -0.494  -0.487
 -0.479  -0.477  -0.472  -0.463  -0.457  -0.447  -0.437  -0.436
 -0.432  -0.427  -0.420  -0.404  -0.396  -0.387  -0.382  -0.365
 -0.360  -0.352  -0.346  -0.287  -0.276  -0.270  -0.245  -0.191
 -- Virtual --
 -0.063  -0.057  -0.027  -0.014  -0.010  -0.008   0.004   0.006
  0.012   0.022   0.024   0.034   0.040   0.043   0.049   0.054
  0.058   0.065   0.068   0.074   0.081   0.084   0.089   0.090
  0.097   0.098   0.103   0.108   0.113   0.119   0.122   0.124
  0.127   0.129   0.132   0.142   0.147   0.148   0.151   0.158
  0.163   0.170   0.173   0.174   0.180   0.185   0.188   0.189
  0.193   0.197   0.201   0.207   0.208   0.213   0.213   0.222
  0.223   0.226   0.228   0.234   0.235   0.240   0.242   0.244
  0.252   0.253   0.257   0.259   0.264   0.272   0.274   0.275
  0.278   0.281   0.286   0.293   0.295   0.298   0.305   0.311
  0.315   0.321   0.323   0.329   0.337   0.341   0.346   0.354
  0.360   0.363   0.365   0.373   0.378   0.391   0.398   0.403
  0.405   0.408   0.410   0.421   0.449   0.452   0.465   0.479
  0.487   0.496   0.526   0.542   0.557   0.567   0.596   0.617
  0.626   0.639   0.660   0.673   0.685   0.689   0.697   0.699
  0.711   0.715   0.716   0.726   0.728   0.736   0.742   0.745
  0.758   0.761   0.771   0.774   0.783   0.799   0.813   0.821
  0.826   0.840   0.845   0.852   0.869   0.882   0.896   0.907
  0.915   0.929   0.936   0.939   0.969   0.976   0.986   0.995
  1.012   1.022   1.027   1.035   1.055   1.064   1.074   1.081
  1.090   1.098   1.108   1.114   1.148   1.152   1.160   1.165
  1.173   1.177   1.200   1.216   1.228   1.235   1.248   1.257
  1.270   1.279   1.301   1.333   1.339   1.358   1.381   1.395
  1.422   1.433   1.444   1.452   1.467   1.477   1.479   1.482
  1.489   1.511   1.567   1.577   1.603   1.608   1.617   1.651
  1.667   1.670   1.679   1.687   1.689   1.707   1.720   1.725
  1.753   1.770   1.782   1.791   1.798   1.822   1.828   1.843
  1.854   1.860   1.870   1.878   1.887   1.896   1.911   1.935
  1.949   1.953   1.964   1.975   1.994   2.009   2.043   2.044
  2.060   2.069   2.079   2.082   2.099   2.116   2.129   2.142
  2.146   2.161   2.166   2.186   2.204   2.215   2.233   2.251
  2.256   2.261   2.285   2.296   2.311   2.338   2.352   2.368
  2.383   2.422   2.441   2.459   2.467   2.516   2.538   2.592
  2.602   2.614   2.621   2.655   2.670   2.702   2.719   2.724
  2.741   2.743   2.756   2.781   2.802   2.831   2.873   2.891
  2.939   2.979   3.066   3.091   3.144   3.229   3.239   3.293
  3.359   3.454   3.937   4.099   4.234   4.243   4.271   4.287
  4.326   4.335   4.377   4.397   4.443   4.457   4.510   4.621
  4.696   4.834   5.644   6.127   6.977
 --------------------------------------------------------------
 
          Ground-State Mulliken Net Atomic Charges

     Atom                 Charge (a.u.)
  ----------------------------------------
      1 C                    -0.266774
      2 C                    -0.175908
      3 C                    -0.005934
      4 C                    -0.564158
      5 C                    -0.163922
      6 C                    -0.559473
      7 C                    -0.868158
      8 C                     0.432570
      9 C                    -0.273843
     10 C                    -1.382012
     11 C                     0.809943
     12 C                     1.021788
     13 C                     1.371931
     14 F                    -0.317854
     15 F                    -0.334639
     16 F                    -0.264933
     17 N                    -0.636961
     18 N                    -0.656956
     19 S                     0.612952
     20 H                     0.183081
     21 H                     0.183446
     22 H                     0.184412
     23 H                     0.187544
     24 H                     0.213926
     25 H                     0.191232
     26 H                     0.208975
     27 H                     0.436336
     28 H                     0.433391
  ----------------------------------------
  Sum of atomic charges =    -0.000000

 -----------------------------------------------------------------
                    Cartesian Multipole Moments
 -----------------------------------------------------------------
    Charge (ESU x 10^10)
                -0.0000
    Dipole Moment (Debye)
         X       3.3760      Y      -0.1912      Z      -1.6068
       Tot       3.7438
    Quadrupole Moments (Debye-Ang)
        XX    -112.7163     XY       3.0013     YY    -111.3595
        XZ       1.1006     YZ       0.7910     ZZ    -119.0013
    Octopole Moments (Debye-Ang^2)
       XXX      14.3666    XXY     -18.4259    XYY     -26.0870
       YYY      15.4841    XXZ     -10.7781    XYZ     -18.0050
       YYZ     -14.0184    XZZ     -21.6060    YZZ       3.0246
       ZZZ      -0.5226
    Hexadecapole Moments (Debye-Ang^3)
      XXXX   -5533.1831   XXXY      25.4584   XXYY   -1233.7478
      XYYY     -59.8405   YYYY   -1709.2090   XXXZ      17.8046
      XXYZ     -53.3687   XYYZ     -12.0122   YYYZ      17.4250
      XXZZ   -1047.9944   XYZZ     -27.1284   YYZZ    -359.2661
      XZZZ      -0.5605   YZZZ     -25.7923   ZZZZ    -363.7349
 -----------------------------------------------------------------
 Calculating analytic gradient of the SCF energy
 Gradient of SCF Energy
            1           2           3           4           5           6
    1  -0.0012448  -0.0009475  -0.0005332   0.0010317   0.0010588  -0.0036453
    2  -0.0000759  -0.0008503   0.0009020  -0.0008177   0.0007128   0.0003220
    3   0.0001148   0.0007499  -0.0006921   0.0008439  -0.0011734   0.0000739
            7           8           9          10          11          12
    1   0.0037352  -0.0002099  -0.0005871  -0.0009234   0.0054764  -0.0058514
    2  -0.0001108   0.0001359  -0.0009089  -0.0002931  -0.0041517  -0.0046994
    3  -0.0000079   0.0003170  -0.0015133  -0.0011987   0.0011182   0.0015235
           13          14          15          16          17          18
    1   0.0020093  -0.0005646  -0.0000030  -0.0010584  -0.0053258   0.0063309
    2   0.0006856   0.0002886  -0.0009593  -0.0005729   0.0004457   0.0021285
    3  -0.0011994   0.0000303   0.0000061   0.0013126   0.0011331  -0.0057597
           19          20          21          22          23          24
    1   0.0004368   0.0014835   0.0007720   0.0007546  -0.0006204  -0.0006186
    2   0.0040391  -0.0000471   0.0009400  -0.0010141   0.0008584  -0.0007810
    3   0.0012607  -0.0000359  -0.0009111   0.0009019  -0.0009003   0.0011737
           25          26          27          28
    1   0.0005474  -0.0003754  -0.0006639  -0.0004639
    2   0.0014073   0.0014035   0.0010424  -0.0000296
    3   0.0001369   0.0001208  -0.0004791   0.0030534
 Max gradient component =       6.331E-03
 RMS gradient           =       1.935E-03
 Gradient time:  CPU 171.65 s  wall 17.87 s
 Geometry Optimization Parameters
   NAtoms,    NIC,     NZ,  NCons,   NDum,   NFix, NCnnct, MaxDiis
       28     205       0       0       0       0       0       0

 Cartesian Hessian Update
 Hessian Updated using BFGS Update


** GEOMETRY OPTIMIZATION IN DELOCALIZED INTERNAL COORDINATES **
   Searching for a Minimum

   Optimization Cycle:   4

                       Coordinates (Angstroms)
     ATOM                X               Y               Z
      1  C         5.2911725406    0.4113247284    0.0271863202
      2  C         4.6005390007    1.3000257639   -0.8017942484
      3  C         4.5729299608   -0.4364266358    0.8753247485
      4  C         3.2053347578    1.3409640203   -0.7812927922
      5  C         3.1768653936   -0.4002521116    0.8927968196
      6  C         0.3257693050    1.8221127251    0.1458797442
      7  C        -1.0539012784    1.9201208187    0.1507058207
      8  C         2.4691848424    0.4929730108    0.0665691373
      9  C         0.9828079445    0.5680481715    0.0970475873
     10  C        -1.8556081651    0.7630370652    0.0912607866
     11  C         0.1796872398   -0.5760368429    0.0589434953
     12  C        -1.2290863565   -0.4881687023    0.0444621765
     13  C        -3.3482043793    0.8546466253    0.1017486045
     14  F        -3.9141008631    0.1724333653   -0.9478403929
     15  F        -3.7985329662    2.1234992608    0.0219295799
     16  F        -3.9019351066    0.3101653126    1.2230354921
     17  N         0.6515750311   -1.9128435292    0.0172702910
     18  N        -1.8481074620   -1.7312354353   -0.0032108834
     19  S        -0.6871010545   -2.9857044097   -0.4383883111
     20  H         6.3796813137    0.3795799061    0.0117855553
     21  H         5.1486703483    1.9618106363   -1.4714852375
     22  H         5.1000520967   -1.1279863991    1.5317221616
     23  H         2.6773986160    2.0266287244   -1.4427277066
     24  H         2.6292638646   -1.0557928839    1.5677137556
     25  H         0.9274093171    2.7265519931    0.2036086737
     26  H        -1.5297355514    2.8953153357    0.2005993130
     27  H         1.4084383019   -2.0116503740   -0.6599430148
     28  H        -2.7267801105   -1.7896685503   -0.5062637308
   Point Group: c1    Number of degrees of freedom:    78


   Energy is  -1308.022487172

 Hessian Updated using BFGS Update

 78 Hessian modes will be used to form the next step
  Hessian Eigenvalues:
     0.007463    0.010199    0.011079    0.013199    0.017088    0.018155
     0.018371    0.019437    0.020173    0.021166    0.021437    0.021595
     0.022119    0.022195    0.022295    0.022579    0.022691    0.022720
     0.022777    0.022801    0.022866    0.023093    0.035863    0.105348
     0.109935    0.136591    0.150426    0.159792    0.159927    0.159975
     0.159986    0.159996    0.160000    0.161316    0.219980    0.220006
     0.224662    0.234553    0.239777    0.243955    0.245744    0.248589
     0.249910    0.249927    0.250000    0.250027    0.250103    0.259090
     0.273886    0.297284    0.332029    0.344063    0.355343    0.355477
     0.355652    0.355781    0.356989    0.358624    0.390945    0.395072
     0.408078    0.413809    0.414963    0.425350    0.438479    0.448297
     0.449588    0.453352    0.453674    0.460407    0.462325    0.462877
     0.469898    0.474140    0.503545    0.508426    0.526484    0.570709

 Minimum Search - Taking Simple RFO Step
 Searching for Lamda that Minimizes Along All modes
 Value Taken    Lamda =  -0.00159982
 Calculated Step too Large.  Step scaled by  0.812515
 Step Taken.  Stepsize is  0.300000

                             Maximum     Tolerance    Cnvgd?
         Gradient           0.005158      0.000300      NO
         Displacement       0.160191      0.001200      NO
         Energy change     -0.001633      0.000001      NO


 New Cartesian Coordinates Obtained by Inverse Iteration

 Displacement from previous Coordinates is:  0.233836
 ----------------------------------------------------------------
             Standard Nuclear Orientation (Angstroms)
    I     Atom           X                Y                Z
 ----------------------------------------------------------------
    1      C       5.2896621222     0.4159042444     0.0309879317
    2      C       4.5986528433     1.2971857674    -0.8053869720
    3      C       4.5723856357    -0.4289218862     0.8829642088
    4      C       3.2032451356     1.3353276142    -0.7862279698
    5      C       3.1763605645    -0.3964511288     0.8986455290
    6      C       0.3269528965     1.8181380449     0.1489020916
    7      C      -1.0544390024     1.9158020976     0.1532792806
    8      C       2.4692273035     0.4914311046     0.0670632995
    9      C       0.9819324093     0.5659803119     0.0973479915
   10      C      -1.8544619836     0.7602651694     0.0974096304
   11      C       0.1766694689    -0.5768092645     0.0526017258
   12      C      -1.2289346316    -0.4921230253     0.0498563307
   13      C      -3.3486817012     0.8558068696     0.1115278574
   14      F      -3.9144584742     0.1726716624    -0.9375156541
   15      F      -3.7945533668     2.1257951898     0.0271012264
   16      F      -3.8996888247     0.3175746630     1.2342581399
   17      N       0.6613783215    -1.9176030481     0.0163259865
   18      N      -1.8708617582    -1.7379781701     0.0335467635
   19      S      -0.6959869493    -2.9929467680    -0.4148276159
   20      H       6.3783686079     0.3867806579     0.0176089839
   21      H       5.1461427470     1.9551546663    -1.4794372176
   22      H       5.1003517605    -1.1165929415     1.5428195522
   23      H       2.6744525027     2.0163486541    -1.4520662844
   24      H       2.6283678104    -1.0561984349     1.5690043229
   25      H       0.9279044167     2.7233576270     0.2031344903
   26      H      -1.5294538710     2.8917581104     0.1988231333
   27      H       1.3907691423    -2.0119020191    -0.6949600433
   28      H      -2.6776165444    -1.7642841790    -0.5861429738
 ----------------------------------------------------------------
 Molecular Point Group                 C1    NOp =  1
 Largest Abelian Subgroup              C1    NOp =  1
 Nuclear Repulsion Energy =  1524.5679090597 hartrees
 There are       72 alpha and       72 beta electrons
 Applying Cartesian multipole field
    Component          Value
    ---------          -----
     (2,0,0)        1.00000E-12
     (0,2,0)        2.00000E-11
     (0,0,2)       -3.00000E-11
 Nucleus-field energy     =     0.0000000236 hartrees
 Requested basis set is 6-31+G(d)
 There are 114 shells and 383 basis functions
 A cutoff of  1.0D-12 yielded   5097 shell pairs
 There are     60937 function pairs
 Smallest overlap matrix eigenvalue = 3.56E-07
 Linear dependence detected in AO basis
 Number of orthogonalized atomic orbitals = 381
 Maximum deviation from orthogonality = 2.979E-10
 Guess MOs from SCF MO coefficient file
 Reading MOs from coefficient file
 Reading MOs from coefficient file
 A restricted hybrid HF-DFT SCF calculation will be
 performed using Relaxed Constraint Minimization + Pulay DIIS
 Exchange:     0.2000 Hartree-Fock + 0.0800 Slater + 0.7200 B88
 Correlation:  0.1900 VWN1RPA + 0.8100 LYP
 Using SG-1 standard quadrature grid
 SCF converges when DIIS error is below 1.0E-08
 Geometry optimization detected.  Setting ReadMinima to 0
 Setting SaveMinima to 0
 using 12 threads for integral computing
 -------------------------------------------------------
 OpenMP Integral computing Module                
 Release: version 2.0, May 2017, Q-Chem Inc. Pleasanton 
 -------------------------------------------------------
 -------------------------------------------------------
 OpenMP BLAS3 based DFT computing Module                
 Release: version 1.0, May 2013, Q-Chem Inc. Pittsburgh 
 -------------------------------------------------------
 -------------------------------------------------------
 OpenMP BLAS3 based DFT computing Module                
 Release: version 1.0, May 2013, Q-Chem Inc. Pittsburgh 
 -------------------------------------------------------
 ---------------------------------------
  Cycle       Energy         DIIS Error
 ---------------------------------------
    1   -1307.9868526332      5.63E-04 Done RCA. Switching to DIIS
    2   -1308.0219044374      2.44E-04
    3   -1308.0181275715      5.07E-04
    4   -1308.0231885066      5.05E-05
    5   -1308.0232344766      1.49E-05
    6   -1308.0232377776      7.46E-06
    7   -1308.0232387815      2.32E-06
    8   -1308.0232388773      9.22E-07
    9   -1308.0232388917      3.13E-07
   10   -1308.0232388936      1.18E-07
   11   -1308.0232388938      3.93E-08
   12   -1308.0232388938      1.43E-08
   13   -1308.0232388939      4.07E-09 Convergence criterion met
 ---------------------------------------
 SCF time:  CPU 355.59 s  wall 29.65 s
 SCF   energy in the final basis set = -1308.02323889
 Total energy in the final basis set = -1308.02323889
 
 --------------------------------------------------------------
 
                    Orbital Energies (a.u.)
 --------------------------------------------------------------
 
 Alpha MOs
 -- Occupied --
[...]
  0.834   0.848   0.856   0.862   0.868   0.894   0.901   0.913
  0.926   0.936   0.944   0.968   0.978   0.988   1.007   1.013
  1.025   1.033   1.035   1.049   1.063   1.069   1.085   1.094
  1.100   1.112   1.125   1.135   1.143   1.158   1.165   1.179
  1.181   1.187   1.202   1.216   1.220   1.245   1.261   1.263
  1.274   1.301   1.328   1.338   1.346   1.363   1.411   1.426
  1.429   1.451   1.453   1.457   1.470   1.478   1.480   1.487
  1.504   1.557   1.576   1.587   1.598   1.610   1.623   1.656
  1.665   1.667   1.687   1.690   1.697   1.710   1.729   1.763
  1.770   1.780   1.792   1.803   1.823   1.827   1.839   1.854
  1.857   1.873   1.879   1.888   1.892   1.914   1.919   1.945
  1.953   1.961   1.995   1.999   2.013   2.041   2.049   2.053
  2.073   2.082   2.088   2.099   2.105   2.117   2.138   2.147
  2.159   2.173   2.189   2.196   2.224   2.243   2.250   2.264
  2.282   2.289   2.305   2.313   2.325   2.341   2.361   2.393
  2.420   2.432   2.459   2.484   2.517   2.525   2.579   2.590
  2.616   2.618   2.642   2.669   2.699   2.711   2.723   2.737
  2.748   2.753   2.775   2.800   2.837   2.862   2.884   2.939
  2.977   3.067   3.087   3.139   3.220   3.241   3.287   3.359
  3.451   3.922   4.087   4.208   4.238   4.258   4.280   4.322
  4.328   4.374   4.394   4.436   4.456   4.498   4.622   4.697
  4.826   5.648   6.077   6.984
 --------------------------------------------------------------
 
          Ground-State Mulliken Net Atomic Charges

     Atom                 Charge (a.u.)
  ----------------------------------------
      1 C                    -0.246810
      2 C                    -0.213658
      3 C                    -0.085064
      4 C                    -0.449718
      5 C                     0.003072
      6 C                    -0.742945
      7 C                    -0.817508
      8 C                     0.252217
      9 C                     0.518738
     10 C                    -0.469258
     11 C                    -0.083024
     12 C                     0.191436
     13 C                     1.579763
     14 F                    -0.307448
     15 F                    -0.341522
     16 F                    -0.260487
     17 N                    -0.638110
     18 N                    -0.684152
     19 S                     0.563103
     20 H                     0.182457
     21 H                     0.182468
     22 H                     0.184342
     23 H                     0.184829
     24 H                     0.207390
     25 H                     0.195807
     26 H                     0.213041
     27 H                     0.437366
     28 H                     0.443676
  ----------------------------------------
  Sum of atomic charges =    -0.000000

 -----------------------------------------------------------------
                    Cartesian Multipole Moments
 -----------------------------------------------------------------
    Charge (ESU x 10^10)
                -0.0000
    Dipole Moment (Debye)
         X       3.6059      Y       0.4793      Z      -2.1170
       Tot       4.2088
    Quadrupole Moments (Debye-Ang)
        XX    -117.8418     XY       2.1843     YY    -111.8289
        XZ       1.8899     YZ       1.3060     ZZ    -115.9729
    Octopole Moments (Debye-Ang^2)
       XXX      25.8673    XXY      -8.2929    XYY     -23.9591
       YYY      16.8917    XXZ     -18.4991    XYZ     -18.9869
       YYZ     -19.0763    XZZ     -24.5261    YZZ      -3.4323
       ZZZ     -35.2149
    Hexadecapole Moments (Debye-Ang^3)
      XXXX   -5579.5638   XXXY      -3.7932   XXYY   -1261.1715
      XYYY     -62.1770   YYYY   -1708.2618   XXXZ      38.7186
      XXYZ     -31.0834   XYYZ      -6.5264   YYYZ      66.1627
      XXZZ   -1041.5777   XYZZ     -24.1500   YYZZ    -342.4265
      XZZZ      24.1241   YZZZ      69.1014   ZZZZ    -351.2765
 -----------------------------------------------------------------
 Calculating analytic gradient of the SCF energy
 Gradient of SCF Energy
            1           2           3           4           5           6
    1   0.0000029  -0.0000004   0.0000012   0.0000042   0.0000014  -0.0000077
    2  -0.0000084  -0.0000066   0.0000011   0.0000006  -0.0000040  -0.0000080
    3  -0.0000015  -0.0000048   0.0000028  -0.0000001   0.0000008  -0.0000097
            7           8           9          10          11          12
    1   0.0000104  -0.0000122   0.0000177  -0.0000089  -0.0000111   0.0000344
    2   0.0000122  -0.0000063   0.0000153  -0.0000287  -0.0000745   0.0000990
    3  -0.0000201  -0.0000021  -0.0000038   0.0000201  -0.0000172   0.0000265
           13          14          15          16          17          18
    1  -0.0000080   0.0000038  -0.0000014   0.0000025   0.0000362   0.0000080
    2   0.0000086   0.0000010   0.0000059   0.0000095   0.0000393  -0.0000783
    3  -0.0000000   0.0000083  -0.0000011  -0.0000156   0.0000095   0.0000055
           19          20          21          22          23          24
    1  -0.0000648  -0.0000027   0.0000010  -0.0000027   0.0000041   0.0000020
    2   0.0000382  -0.0000058  -0.0000112   0.0000019  -0.0000093   0.0000087
    3   0.0000024  -0.0000001  -0.0000031   0.0000026  -0.0000038   0.0000032
           25          26          27          28
    1   0.0000019   0.0000060  -0.0000118  -0.0000059
    2  -0.0000013  -0.0000014  -0.0000000   0.0000025
    3  -0.0000067  -0.0000061   0.0000189  -0.0000049
 Max gradient component =       9.904E-05
 RMS gradient           =       2.108E-05
 Gradient time:  CPU 170.96 s  wall 17.82 s
 Geometry Optimization Parameters
   NAtoms,    NIC,     NZ,  NCons,   NDum,   NFix, NCnnct, MaxDiis
       28     205       0       0       0       0       0       0

 Cartesian Hessian Update
 Hessian Updated using BFGS Update


** GEOMETRY OPTIMIZATION IN DELOCALIZED INTERNAL COORDINATES **
   Searching for a Minimum

   Optimization Cycle:  17

                       Coordinates (Angstroms)
     ATOM                X               Y               Z
      1  C         5.2925517014    0.4325690425    0.0285947835
      2  C         4.5957550034    1.3220784475   -0.7929498038
      3  C         4.5818852169   -0.4304397784    0.8687183675
      4  C         3.1996717708    1.3509179185   -0.7697275115
      5  C         3.1867478871   -0.4094605371    0.8864540542
      6  C         0.3354255869    1.8059551712    0.1634676431
      7  C        -1.0530416925    1.9110895817    0.1674387426
      8  C         2.4746445743    0.4875823643    0.0702395797
      9  C         0.9889610823    0.5592772993    0.1102188181
     10  C        -1.8551721950    0.7642317550    0.1165635273
     11  C         0.1749068478   -0.5827821230    0.0690455865
     12  C        -1.2300688091   -0.4859929025    0.0639260071
     13  C        -3.3556411513    0.8646179120    0.1168711444
     14  F        -3.9043196104    0.2205447486   -0.9558391216
     15  F        -3.7831028869    2.1489106933    0.0552956680
     16  F        -3.9158641268    0.3175718136    1.2208582011
     17  N         0.6638852774   -1.9264004918   -0.0672986028
     18  N        -1.9110500070   -1.7344743306   -0.0562074582
     19  S        -0.7031772597   -2.9500192868    0.3154752246
     20  H         6.3791749891    0.4102828648    0.0136761118
     21  H         5.1366452539    1.9923404241   -1.4563392334
     22  H         5.1150417044   -1.1229437536    1.5153038554
     23  H         2.6660124283    2.0372956103   -1.4225492338
     24  H         2.6432319493   -1.0849828039    1.5388932793
     25  H         0.9355481948    2.7082790145    0.2328890899
     26  H        -1.5203136617    2.8877085816    0.2268167134
     27  H         1.0362555142   -2.0902811161   -1.0067857348
     28  H        -2.3409070012   -1.8500045293   -0.9764059525
   Point Group: c1    Number of degrees of freedom:    78


   Energy is  -1308.032330942

 Hessian Updated using BFGS Update

 78 Hessian modes will be used to form the next step
  Hessian Eigenvalues:
     0.008011    0.010012    0.013027    0.013705    0.017258    0.018298
     0.019378    0.020582    0.020941    0.021605    0.022019    0.022141
     0.022262    0.022287    0.022633    0.022722    0.022769    0.022792
     0.022862    0.023019    0.024447    0.034063    0.052098    0.105444
     0.108649    0.134567    0.146190    0.159799    0.159919    0.159971
     0.159986    0.159996    0.160025    0.161221    0.210526    0.214560
     0.219994    0.220178    0.230363    0.235302    0.243731    0.245784
     0.249277    0.249865    0.249977    0.250439    0.253184    0.260423
     0.287361    0.314287    0.330429    0.343356    0.350301    0.355348
     0.355579    0.355853    0.357000    0.357201    0.358875    0.397006
     0.408777    0.411650    0.414920    0.420650    0.430015    0.448307
     0.453363    0.454390    0.456623    0.460465    0.462835    0.464228
     0.469055    0.485932    0.500475    0.512968    0.545858    0.603012

 Minimum Search - Taking Simple RFO Step
 Searching for Lamda that Minimizes Along All modes
 Value Taken    Lamda =   0.00000000
 Step Taken.  Stepsize is  0.002951

                             Maximum     Tolerance    Cnvgd?
         Gradient           0.000053      0.000300     YES
         Displacement       0.001318      0.001200      NO
         Energy change     -0.000000      0.000001     YES

 Final energy is   -1308.03233094233     


 ******************************
 **  OPTIMIZATION CONVERGED  **
 ******************************

                       Coordinates (Angstroms)
     ATOM                X               Y               Z
      1  C         5.2925517014    0.4325690425    0.0285947835
      2  C         4.5957550034    1.3220784475   -0.7929498038
      3  C         4.5818852169   -0.4304397784    0.8687183675
      4  C         3.1996717708    1.3509179185   -0.7697275115
      5  C         3.1867478871   -0.4094605371    0.8864540542
      6  C         0.3354255869    1.8059551712    0.1634676431
      7  C        -1.0530416925    1.9110895817    0.1674387426
      8  C         2.4746445743    0.4875823643    0.0702395797
      9  C         0.9889610823    0.5592772993    0.1102188181
     10  C        -1.8551721950    0.7642317550    0.1165635273
     11  C         0.1749068478   -0.5827821230    0.0690455865
     12  C        -1.2300688091   -0.4859929025    0.0639260071
     13  C        -3.3556411513    0.8646179120    0.1168711444
     14  F        -3.9043196104    0.2205447486   -0.9558391216
     15  F        -3.7831028869    2.1489106933    0.0552956680
     16  F        -3.9158641268    0.3175718136    1.2208582011
     17  N         0.6638852774   -1.9264004918   -0.0672986028
     18  N        -1.9110500070   -1.7344743306   -0.0562074582
     19  S        -0.7031772597   -2.9500192868    0.3154752246
     20  H         6.3791749891    0.4102828648    0.0136761118
     21  H         5.1366452539    1.9923404241   -1.4563392334
     22  H         5.1150417044   -1.1229437536    1.5153038554
     23  H         2.6660124283    2.0372956103   -1.4225492338
     24  H         2.6432319493   -1.0849828039    1.5388932793
     25  H         0.9355481948    2.7082790145    0.2328890899
     26  H        -1.5203136617    2.8877085816    0.2268167134
     27  H         1.0362555142   -2.0902811161   -1.0067857348
     28  H        -2.3409070012   -1.8500045293   -0.9764059525

Z-matrix Print:
$molecule
0 1
S 
N  1 1.750192
H  2 1.023793 1 113.027366
C  2 1.436315 1 105.096149 3 121.370037 0
C  4 1.403096 2 124.519982 1 167.037022 0
C  4 1.408315 2 113.802099 1 -17.310731 0
C  6 1.398780 4 120.472397 2 -176.577502 0
C  7 1.400459 6 118.512341 4 0.313177 0
H  8 1.084276 7 119.522288 6 -178.894491 0
C  8 1.392448 7 120.609957 6 0.098384 0
H  10 1.085889 8 119.219302 7 -178.223495 0
N  6 1.427191 4 114.595002 2 0.831644 0
H  12 1.022198 6 112.042593 4 -107.884871 0
C  5 1.487950 4 122.635500 2 -2.548042 0
C  14 1.405901 5 120.091460 4 134.545755 0
H  15 1.087236 14 119.556570 5 -2.852133 0
C  15 1.396574 14 120.848871 5 178.254199 0
H  17 1.087152 15 119.654579 14 179.467784 0
C  17 1.397028 15 120.130101 14 -0.284297 0
H  19 1.086954 17 120.238610 15 -179.853823 0
C  19 1.398442 17 119.521365 15 0.248277 0
H  21 1.087148 19 120.078186 17 -179.703727 0
C  21 1.395408 19 120.427233 17 0.196745 0
H  23 1.085088 21 119.939217 19 179.787024 0
C  7 1.503823 6 120.369001 4 -179.739258 0
F  25 1.353476 7 112.716852 6 64.643667 0
F  25 1.354962 7 112.212206 6 -174.688680 0
F  25 1.366230 7 111.658547 6 -55.166718 0
$end

 
 --------------------------------------------------------------
 
                    Orbital Energies (a.u.)
 --------------------------------------------------------------
 
 Alpha MOs
 -- Occupied --
-88.945 -24.752 -24.749 -24.745 -14.387 -14.387 -10.455 -10.263
-10.256 -10.236 -10.233 -10.223 -10.221 -10.217 -10.210 -10.209
-10.208 -10.207 -10.207  -7.999  -5.966  -5.962  -5.951  -1.320
 -1.235  -1.231  -0.999  -0.910  -0.888  -0.867  -0.810  -0.770
 -0.762  -0.761  -0.711  -0.680  -0.655  -0.639  -0.617  -0.608
 -0.598  -0.594  -0.589  -0.545  -0.516  -0.505  -0.504  -0.495
 -0.481  -0.476  -0.475  -0.464  -0.460  -0.442  -0.436  -0.435
 -0.427  -0.421  -0.418  -0.398  -0.393  -0.382  -0.377  -0.365
 -0.359  -0.346  -0.317  -0.289  -0.272  -0.268  -0.248  -0.224
 -- Virtual --
 -0.063  -0.044  -0.025  -0.019  -0.015  -0.008   0.002   0.011
  0.015   0.023   0.029   0.035   0.039   0.043   0.048   0.055
  0.059   0.065   0.069   0.078   0.082   0.083   0.089   0.090
  0.095   0.100   0.102   0.108   0.114   0.119   0.120   0.124
  0.125   0.132   0.137   0.141   0.145   0.148   0.156   0.159
  0.164   0.168   0.173   0.177   0.182   0.188   0.189   0.190
  0.194   0.197   0.204   0.209   0.211   0.212   0.214   0.217
  0.225   0.226   0.228   0.232   0.236   0.237   0.247   0.248
  0.251   0.251   0.258   0.260   0.266   0.269   0.271   0.273
  0.279   0.284   0.291   0.291   0.298   0.301   0.305   0.309
  0.317   0.320   0.325   0.328   0.333   0.341   0.349   0.350
  0.363   0.364   0.365   0.375   0.381   0.397   0.399   0.404
  0.405   0.416   0.422   0.445   0.458   0.459   0.478   0.481
  0.488   0.535   0.550   0.557   0.582   0.598   0.617   0.629
  0.634   0.662   0.676   0.680   0.688   0.694   0.699   0.708
  0.709   0.719   0.723   0.729   0.737   0.742   0.745   0.750
  0.758   0.777   0.778   0.790   0.795   0.798   0.817   0.829
  0.834   0.848   0.856   0.862   0.868   0.894   0.901   0.913
  0.926   0.936   0.944   0.968   0.978   0.988   1.007   1.013
  1.025   1.033   1.035   1.049   1.063   1.069   1.085   1.094
  1.100   1.112   1.125   1.135   1.143   1.158   1.165   1.179
  1.181   1.187   1.202   1.216   1.220   1.245   1.261   1.263
  1.274   1.301   1.328   1.338   1.346   1.363   1.411   1.426
  1.429   1.451   1.453   1.457   1.470   1.478   1.480   1.487
  1.504   1.557   1.576   1.587   1.598   1.610   1.623   1.656
  1.665   1.667   1.687   1.690   1.697   1.710   1.729   1.763
  1.770   1.780   1.792   1.803   1.823   1.827   1.839   1.854
  1.857   1.873   1.879   1.888   1.892   1.914   1.919   1.945
  1.953   1.961   1.995   1.999   2.013   2.041   2.049   2.053
  2.073   2.082   2.088   2.099   2.105   2.117   2.138   2.147
  2.159   2.173   2.189   2.196   2.224   2.243   2.250   2.264
  2.282   2.289   2.305   2.313   2.325   2.341   2.361   2.393
  2.420   2.432   2.459   2.484   2.517   2.525   2.579   2.590
  2.616   2.618   2.642   2.669   2.699   2.711   2.723   2.737
  2.748   2.753   2.775   2.800   2.837   2.862   2.884   2.939
  2.977   3.067   3.087   3.139   3.220   3.241   3.287   3.359
  3.451   3.922   4.087   4.208   4.238   4.258   4.280   4.322
  4.328   4.374   4.394   4.436   4.456   4.498   4.622   4.697
  4.826   5.648   6.077   6.984
 --------------------------------------------------------------
 
          Ground-State Mulliken Net Atomic Charges

     Atom                 Charge (a.u.)
  ----------------------------------------
      1 C                    -0.246810
      2 C                    -0.213658
      3 C                    -0.085064
      4 C                    -0.449718
      5 C                     0.003072
      6 C                    -0.742945
      7 C                    -0.817508
      8 C                     0.252217
      9 C                     0.518738
     10 C                    -0.469258
     11 C                    -0.083024
     12 C                     0.191436
     13 C                     1.579763
     14 F                    -0.307448
     15 F                    -0.341522
     16 F                    -0.260487
     17 N                    -0.638110
     18 N                    -0.684152
     19 S                     0.563103
     20 H                     0.182457
     21 H                     0.182468
     22 H                     0.184342
     23 H                     0.184829
     24 H                     0.207390
     25 H                     0.195807
     26 H                     0.213041
     27 H                     0.437366
     28 H                     0.443676
  ----------------------------------------
  Sum of atomic charges =    -0.000000

 -----------------------------------------------------------------
                    Cartesian Multipole Moments
 -----------------------------------------------------------------
    Charge (ESU x 10^10)
                -0.0000
    Dipole Moment (Debye)
         X       3.6059      Y       0.4793      Z      -2.1170
       Tot       4.2088
    Quadrupole Moments (Debye-Ang)
        XX    -117.8418     XY       2.1843     YY    -111.8289
        XZ       1.8899     YZ       1.3060     ZZ    -115.9729
    Octopole Moments (Debye-Ang^2)
       XXX      25.8673    XXY      -8.2929    XYY     -23.9591
       YYY      16.8917    XXZ     -18.4991    XYZ     -18.9869
       YYZ     -19.0763    XZZ     -24.5261    YZZ      -3.4323
       ZZZ     -35.2149
    Hexadecapole Moments (Debye-Ang^3)
      XXXX   -5579.5638   XXXY      -3.7932   XXYY   -1261.1715
      XYYY     -62.1770   YYYY   -1708.2618   XXXZ      38.7186
      XXYZ     -31.0834   XYYZ      -6.5264   YYYZ      66.1627
      XXZZ   -1041.5777   XYZZ     -24.1500   YYZZ    -342.4265
      XZZZ      24.1241   YZZZ      69.1014   ZZZZ    -351.2765
 -----------------------------------------------------------------
Archival summary:
1\1\n0106.savio1\OPT\ProcedureUnspecified\6-31+G*\132139\smblau\MonMar2616:30:252018MonMar2616:30:252018\0\\#,OPT,ProcedureUnspecified,6-31+G*,\\0,1\S\N,1,1.75019\H,2,1.02379,1,113.027\C,2,1.43631,1,105.096,3,121.37,0\C,4,1.4031,2,124.52,1,167.037,0\C,4,1.40831,2,113.802,1,-17.3107,0\C,6,1.39878,4,120.472,2,-176.578,0\C,7,1.40046,6,118.512,4,0.313177,0\H,8,1.08428,7,119.522,6,-178.894,0\C,8,1.39245,7,120.61,6,0.0983836,0\H,10,1.08589,8,119.219,7,-178.223,0\N,6,1.42719,4,114.595,2,0.831644,0\H,12,1.0222,6,112.043,4,-107.885,0\C,5,1.48795,4,122.635,2,-2.54804,0\C,14,1.4059,5,120.091,4,134.546,0\H,15,1.08724,14,119.557,5,-2.85213,0\C,15,1.39657,14,120.849,5,178.254,0\H,17,1.08715,15,119.655,14,179.468,0\C,17,1.39703,15,120.13,14,-0.284297,0\H,19,1.08695,17,120.239,15,-179.854,0\C,19,1.39844,17,119.521,15,0.248277,0\H,21,1.08715,19,120.078,17,-179.704,0\C,21,1.39541,19,120.427,17,0.196745,0\H,23,1.08509,21,119.939,19,179.787,0\C,7,1.50382,6,120.369,4,-179.739,0\F,25,1.35348,7,112.717,6,64.6437,0\F,25,1.35496,7,112.212,6,-174.689,0\F,25,1.36623,7,111.659,6,-55.1667,0\\\@

 Total job time:  780.20s(wall), 8634.86s(cpu) 
 Mon Mar 26 16:30:25 2018

        *************************************************************
        *                                                           *
        *  Thank you very much for using Q-Chem.  Have a nice day.  *
        *                                                           *
        *************************************************************


0 sent ACK to 0 
now end server 0 ... 
