
Running Job 1 of 1 mol.qin
qchem mol.qin_218986.0 /tmp/scratch/ 0
/clusterfs/mp/software/qchem6.0/exe/qcprog.exe_s mol.qin_218986.0 /tmp/scratch/
                  Welcome to Q-Chem
     A Quantum Leap Into The Future Of Chemistry


 Q-Chem 6.0, Q-Chem, Inc., Pleasanton, CA (2022)

 E. Epifanovsky,  A. T. B. Gilbert,  Xintian Feng,  Joonho Lee,  Yuezhi Mao,  
 N. Mardirossian,  P. Pokhilko,  A. White,  M. Wormit,  M. P. Coons,  
 A. L. Dempwolff,  Zhengting Gan,  D. Hait,  P. R. Horn,  L. D. Jacobson,  
 I. Kaliman,  J. Kussmann,  A. W. Lange,  Ka Un Lao,  D. S. Levine,  Jie Liu,  
 S. C. McKenzie,  A. F. Morrison,  K. Nanda,  F. Plasser,  D. R. Rehn,  
 M. L. Vidal,  Zhi-Qiang You,  Ying Zhu,  B. Alam,  B. Albrecht,  
 A. Aldossary,  E. Alguire,  J. H. Andersen,  V. Athavale,  D. Barton,  
 K. Begam,  A. Behn,  N. Bellonzi,  Y. A. Bernard,  E. J. Berquist,  
 H. Burton,  A. Carreras,  K. Carter-Fenk,  Romit Chakraborty,  
 Chandrima Chakravarty,  Junhan Chen,  A. D. Chien,  K. D. Closser,  
 V. Cofer-Shabica,  L. Cunha,  S. Dasgupta,  Jia Deng,  M. de Wergifosse,  
 M. Diedenhofen,  Hainam Do,  S. Ehlert,  Po-Tung Fang,  S. Fatehi,  
 Qingguo Feng,  T. Friedhoff,  B. Ganoe,  J. Gayvert,  Qinghui Ge,  
 G. Gidofalvi,  M. Goldey,  J. Gomes,  C. Gonzalez-Espinoza,  S. Gulania,  
 A. Gunina,  J. A. Gyamfi,  M. W. D. Hanson-Heine,  P. H. P. Harbach,  
 A. W. Hauser,  M. F. Herbst,  M. Hernandez Vera,  M. Hodecker,  
 Z. C. Holden,  S. Houck,  Xunkun Huang,  Kerwin Hui,  B. C. Huynh,  
 K. Ikeda,  M. Ivanov,  Hyunjun Ji,  Zuxin Jin,  Hanjie Jiang,  B. Kaduk,  
 S. Kaehler,  R. Kang,  K. Khistyaev,  Jaehoon Kim,  Yongbin Kim,  
 P. Klunzinger,  Z. Koczor-Benda,  Joong Hoon Koh,  D. Kosenkov,  
 Saikiran Kotaru,  L. Koulias,  T. Kowalczyk,  C. M. Krauter,  K. Kue,  
 A. Kunitsa,  T. Kus,  A. Landau,  K. V. Lawler,  D. Lefrancois,  S. Lehtola,  
 Rain Li,  Shaozhi Li,  Yi-Pei Li,  Jiashu Liang,  M. Liebenthal,  
 Hung-Hsuan Lin,  You-Sheng Lin,  Fenglai Liu,  Kuan-Yu Liu,  
 M. Loipersberger,  A. Luenser,  C. Malbon,  A. Manjanath,  P. Manohar,  
 E. Mansoor,  S. F. Manzer,  Shan-Ping Mao,  A. V. Marenich,  T. Markovich,  
 S. Mason,  F. Matz,  S. A. Maurer,  P. F. McLaughlin,  M. F. S. J. Menger,  
 J.-M. Mewes,  S. A. Mewes,  P. Morgante,  Mohammad Mostafanejad,  
 J. W. Mullinax,  K. J. Oosterbaan,  G. Paran,  V. Parravicini,  
 Alexander C. Paul,  Suranjan K. Paul,  F. Pavosevic,  Zheng Pei,  S. Prager,  
 E. I. Proynov,  E. Ramos,  B. Rana,  A. E. Rask,  A. Rettig,  R. M. Richard,  
 F. Rob,  E. Rossomme,  T. Scheele,  M. Scheurer,  M. Schneider,  
 P. E. Schneider,  N. Sergueev,  S. M. Sharada,  Hengyuan Shen,  
 W. Skomorowski,  D. W. Small,  C. J. Stein,  Yingli Su,  Yu-Chuan Su,  
 E. J. Sundstrom,  Zhen Tao,  J. Thirman,  Hung-Yi Tsai,  T. Tsuchimochi,  
 N. M. Tubman,  C. Utku,  S. P. Veccham,  O. Vydrov,  J. Wenzel,  
 Jonathan Wong,  J. Witte,  A. Yamada,  Chou-Hsun Yang,  Kun Yao,  
 S. Yeganeh,  S. R. Yost,  A. Zech,  F. Zeller,  Igor Ying Zhang,  
 Xing Zhang,  Yu Zhang,  D. Zuev,  A. Aspuru-Guzik,  A. T. Bell,  
 N. A. Besley,  K. B. Bravaya,  B. R. Brooks,  D. Casanova,  Jeng-Da Chai,  
 Hsing-Ta Chen,  S. Coriani,  C. J. Cramer,  A. E. DePrince, III,  
 R. A. DiStasio Jr.,  A. Dreuw,  B. D. Dunietz,  T. R. Furlani,  
 W. A. Goddard III,  S. Grimme,  S. Hammes-Schiffer,  T. Head-Gordon,  
 W. J. Hehre,  Chao-Ping Hsu,  T.-C. Jagau,  Yousung Jung,  A. Klamt,  
 Jing Kong,  D. S. Lambrecht,  Xiangyuan Li,  WanZhen Liang,  N. J. Mayhall,  
 C. W. McCurdy,  J. B. Neaton,  T. Neudecker,  C. Ochsenfeld,  
 J. A. Parkhill,  R. Peverati,  V. A. Rassolov,  Haisheng Ren,  Yihan Shao,  
 L. V. Slipchenko,  R. P. Steele,  J. E. Subotnik,  A. J. W. Thom,  
 A. Tkatchenko,  D. G. Truhlar,  T. Van Voorhis,  Fan Wang,  
 T. A. Wesolowski,  K. B. Whaley,  H. L. Woodcock III,  P. M. Zimmerman,  
 S. Faraji,  P. M. W. Gill,  M. Head-Gordon,  J. M. Herbert,  A. I. Krylov

 Contributors to earlier versions of Q-Chem not listed above: 
 R. D. Adamson,  B. Austin,  R. Baer,  J. Baker,  G. J. O. Beran,  
 K. Brandhorst,  S. T. Brown,  E. F. C. Byrd,  Arup K. Chakraborty,  
 G. K. L. Chan,  Chun-Min Chang,  Yunqing Chen,  C.-L. Cheng,  
 Siu Hung Chien,  D. M. Chipman,  D. L. Crittenden,  H. Dachsel,  
 R. J. Doerksen,  A. D. Dutoi,  R. G. Edgar,  J. Fosso-Tande,  
 L. Fusti-Molnar,  D. Ghosh,  A. Ghysels,  A. Golubeva-Zadorozhnaya,  
 J. Gonthier,  M. S. Gordon,  S. R. Gwaltney,  G. Hawkins,  J. E. Herr,  
 A. Heyden,  S. Hirata,  E. G. Hohenstein,  G. Kedziora,  F. J. Keil,  
 C. Kelley,  Jihan Kim,  R. A. King,  R. Z. Khaliullin,  P. P. Korambath,  
 W. Kurlancheek,  A. Laurent,  A. M. Lee,  M. S. Lee,  S. V. Levchenko,  
 Ching Yeh Lin,  D. Liotard,  E. Livshits,  R. C. Lochan,  I. Lotan,  
 L. A. Martinez-Martinez,  P. E. Maslen,  N. Nair,  D. P. O'Neill,  
 D. Neuhauser,  E. Neuscamman,  C. M. Oana,  R. Olivares-Amaya,  R. Olson,  
 T. M. Perrine,  B. Peters,  P. A. Pieniazek,  A. Prociuk,  Y. M. Rhee,  
 J. Ritchie,  M. A. Rohrdanz,  E. Rosta,  N. J. Russ,  H. F. Schaefer III,  
 M. W. Schmidt,  N. E. Schultz,  S. Sharma,  N. Shenvi,  C. D. Sherrill,  
 A. C. Simmonett,  A. Sodt,  T. Stein,  D. Stuck,  K. S. Thanthiriwatte,  
 V. Vanovschi,  L. Vogt,  Tao Wang,  A. Warshel,  M. A. Watson,  
 C. F. Williams,  Q. Wu,  X. Xu,  Jun Yang,  W. Zhang,  Yan Zhao

   Please cite Q-Chem as follows:
  "Software for the frontiers of quantum chemistry:
   An overview of developments in the Q-Chem 5 package"
   J. Chem. Phys. 155, 084801 (2021)
   https://doi.org/10.1063/5.0055522 (open access)

 Q-Chem 6.0.2 for Intel X86 EM64T Linux

 Parts of Q-Chem use Armadillo 9.900.5 (Nocturnal Misbehaviour).
 http://arma.sourceforge.net/

 Q-Chem begins on Thu Jan  5 14:54:20 2023  

 Host: 
0

     Scratch files written to /tmp/scratch//
 Dec722 |scratch|qcdevops|jenkins|workspace|build_RNUM -1
 Processing $rem in /clusterfs/mp/software/qchem6.0/config/preferences:
 Processing $rem in /global/home/users/smblau/.qchemrc:
 Symmetry turned off for PCM/SM12/SMD calculation

 Checking the input file for inconsistencies... 	...done.

--------------------------------------------------------------
User input:
--------------------------------------------------------------
$molecule
0 2
O     -0.6078400000      1.2579300000     -0.1571000000
C      0.2117300000      0.2815900000     -0.3819100000
O     -0.2342300000     -0.9612700000     -0.7226800000
O      1.6216300000      0.5534700000     -0.1569800000
Li      0.7515000000      1.9270400000      0.2321900000
C     -0.4629400000     -1.7662800000      0.4483900000
C     -0.9496200000     -3.1604100000      0.0053400000
C     -1.2320800000     -4.1001300000      1.2059900000
C     -1.7069800000     -5.5041800000      0.7705400000
H     -1.2250100000     -1.3109500000      1.0928300000
H      0.4654500000     -1.8900300000      1.0150700000
H     -1.8487800000     -3.0475700000     -0.6074100000
H     -1.9925900000     -3.6532800000      1.8524800000
H     -0.3149600000     -4.2108800000      1.7903600000
H     -0.9490100000     -5.9953700000      0.1567200000
H     -1.8846900000     -6.1169800000      1.6557400000
H     -2.6384600000     -5.4393100000      0.2041200000
$end

$rem
job_type = force
basis = def2-svpd
max_scf_cycles = 500
gen_scfman = true
xc_grid = 3
thresh = 14
s2thresh = 16
scf_algorithm = gdm
resp_charges = true
symmetry = false
sym_ignore = true
method = wb97xv
solvent_method = smd
$end

$smx
solvent other
epsilon 18.5
soln 1.415
sola 0.00
solb 0.735
solg 20.2
solc 0.00
solh 0.00
$end
--------------------------------------------------------------
 ----------------------------------------------------------------
             Standard Nuclear Orientation (Angstroms)
    I     Atom           X                Y                Z
 ----------------------------------------------------------------
    1      O      -0.6078400000     1.2579300000    -0.1571000000
    2      C       0.2117300000     0.2815900000    -0.3819100000
    3      O      -0.2342300000    -0.9612700000    -0.7226800000
    4      O       1.6216300000     0.5534700000    -0.1569800000
    5      Li      0.7515000000     1.9270400000     0.2321900000
    6      C      -0.4629400000    -1.7662800000     0.4483900000
    7      C      -0.9496200000    -3.1604100000     0.0053400000
    8      C      -1.2320800000    -4.1001300000     1.2059900000
    9      C      -1.7069800000    -5.5041800000     0.7705400000
   10      H      -1.2250100000    -1.3109500000     1.0928300000
   11      H       0.4654500000    -1.8900300000     1.0150700000
   12      H      -1.8487800000    -3.0475700000    -0.6074100000
   13      H      -1.9925900000    -3.6532800000     1.8524800000
   14      H      -0.3149600000    -4.2108800000     1.7903600000
   15      H      -0.9490100000    -5.9953700000     0.1567200000
   16      H      -1.8846900000    -6.1169800000     1.6557400000
   17      H      -2.6384600000    -5.4393100000     0.2041200000
 ----------------------------------------------------------------
 Nuclear Repulsion Energy =         380.04048168 hartrees
 There are       33 alpha and       32 beta electrons
 Requested basis set is def2-SVPD
 There are 105 shells and 245 basis functions

 Total QAlloc Memory Limit  90000 MB
 Mega-Array Size       188 MB
 MEM_STATIC part       192 MB

 
 Citation of the SMD model:
 Marenich, A.V.; Cramer, C.J.; Truhlar, D.G.
 J. Phys. Chem. B 2009, 113, 6378-6396.
 Solvent Code =    0
 Solvent: other                                                           
 
 Epsilon =     18.50000
 SolN    =      1.41500
 SolA    =      0.00000
 SolB    =      0.73500
 SolG    =     20.20000
 SolC    =      0.00000
 SolH    =      0.00000
 vradii
            1           2           3           4           5           6
    1   2.2940000   1.8500000   2.2940000   2.2940000   2.1476001   1.8500000
            7           8           9          10          11          12
    1   1.8500000   1.8500000   1.8500000   1.2000000   1.2000000   1.2000000
           13          14          15          16          17
    1   1.2000000   1.2000000   1.2000000   1.2000000   1.2000000
 Changing PCM_VDW_RADII to SMD_RADIUS
 Using C-PCM dielectric factor f(eps) = (eps-1)/(eps+0.5) = 0.921053
 Discretize the solute cavity surface with Lebedev spheres
	Using 110 Lebedev grid points for each H atom
	Using 194 Lebedev grid points for other atoms
	Atomic van der Waals radii will be scaled by 1.20
 Using smooth SwiG surface discretization
 Remove points where switching function is < 1.0e-08
 Keep 1232 surface tesserae and discard 1394 interior tesserae
 Molecular Surface Area = 198.795 Angst**2

 A cutoff of  1.0D-16 yielded   5278 shell pairs
 There are     28946 function pairs (     32887 Cartesian)
 Smallest overlap matrix eigenvalue = 4.09E-05

 Scale SEOQF with 1.000000e-01/1.000000e-02/1.000000e-01

 Standard Electronic Orientation quadrupole field applied
 Nucleus-field energy     =     0.0000000034 hartrees
 Guess from superposition of atomic densities
 Warning:  Energy on first SCF cycle will be non-variational
 SAD guess density has 65.000000 electrons

 -----------------------------------------------------------------------
  General SCF calculation program by
  Eric Jon Sundstrom, Paul Horn, Yuezhi Mao, Dmitri Zuev, Alec White,
  David Stuck, Shaama M.S., Shane Yost, Joonho Lee, David Small,
  Daniel Levine, Susi Lehtola, Hugh Burton, Evgeny Epifanovsky,
  Bang C. Huynh
 -----------------------------------------------------------------------
 Exchange:     0.1670 Hartree-Fock + 1.0000 wB97X-V + LR-HF
 Correlation:  1.0000 wB97X-V
 Using SG-3 standard quadrature grid
 Nonlocal Correlation:  VV10 with C = 0.0100 and b = 6.00 and scale = 1.00000
 Grid used for NLC:  SG-1 standard quadrature
 
 Citation of the SMD model:
 Marenich, A.V.; Cramer, C.J.; Truhlar, D.G.
 J. Phys. Chem. B 2009, 113, 6378-6396.
 Solvent Code =    0
 Solvent: other                                                           
 
 Epsilon =     18.50000
 SolN    =      1.41500
 SolA    =      0.00000
 SolB    =      0.73500
 SolG    =     20.20000
 SolC    =      0.00000
 SolH    =      0.00000
 vradii
            1           2           3           4           5           6
    1   2.2940000   1.8500000   2.2940000   2.2940000   2.1476001   1.8500000
            7           8           9          10          11          12
    1   1.8500000   1.8500000   1.8500000   1.2000000   1.2000000   1.2000000
           13          14          15          16          17
    1   1.2000000   1.2000000   1.2000000   1.2000000   1.2000000
 using 40 threads for integral computing
 -------------------------------------------------------
 OpenMP Integral computing Module                
 Release: version 1.0, May 2013, Q-Chem Inc. Pittsburgh 
 -------------------------------------------------------
 C-PCM solvent model [f = (eps-1)/(eps+0.5)], solve by matrix inversion
 A unrestricted SCF calculation will be
 performed using Roothaan-Hall, GDM
 SCF converges when RMS gradient is below 1.0e-08
 ---------------------------------------
  Cycle       Energy         DIIS error
 ---------------------------------------
    1    -427.8388167554      1.85e-02  Roothaan Step
 ---------------------------------------
  Cycle       Energy        RMS Gradient
 ---------------------------------------
    1    -429.3735483365      1.77e-02  
    2    -427.8292245187      3.21e-03  
    3    -427.7449140129      3.98e-03  
    4    -428.0889923262      3.29e-04  
    5    -428.0912693269      2.04e-04  
    6    -428.0923395431      5.58e-05  
    7    -428.0924563668      2.29e-05  
    8    -428.0924828161      9.91e-06  
    9    -428.0924883368      3.58e-06  
   10    -428.0924892834      1.01e-06  
   11    -428.0924893773      4.02e-07  
   12    -428.0924893909      1.23e-07  
   13    -428.0924893930      4.28e-08  
   14    -428.0924893933      1.98e-08  
   15    -428.0924893933      7.11e-09  Convergence criterion met
 ---------------------------------------
 SCF time:   CPU 1118.39s  wall 35.00s 
<S^2> =          0.752907143
(3)  G-ENP(liq) elect-nuc-pol free energy of system     -428.092489393 a.u.
(4)  G-CDS(liq) cavity-dispersion-solvent structure 
     free energy                                               -3.4891 kcal/mol
(6)  G-S(liq) free energy of system                     -428.098049558 a.u.
 SCF   energy in the final basis set =     -428.0980495580
 Total energy in the final basis set =     -428.0980495580
 
 --------------------------------------------------------------
 
                    Orbital Energies (a.u.)
 --------------------------------------------------------------
 
 Alpha MOs
 -- Occupied --
-19.2753 -19.2318 -19.2080 -10.4824 -10.3491 -10.3048 -10.2837 -10.2673
 -2.0679  -1.2307  -1.1472  -1.0500  -0.9225  -0.8575  -0.7636  -0.6967
 -0.6863  -0.6157  -0.6103  -0.5906  -0.5684  -0.5398  -0.5278  -0.5009
 -0.4763  -0.4607  -0.4505  -0.4373  -0.4237  -0.4195  -0.3938  -0.3906
 -0.3288
 -- Virtual --
  0.0310   0.0585   0.0658   0.0677   0.0720   0.1025   0.1147   0.1242
  0.1354   0.1479   0.1628   0.1688   0.1768   0.1797   0.1910   0.1940
  0.2051   0.2070   0.2138   0.2196   0.2240   0.2306   0.2360   0.2412
  0.2430   0.2548   0.2709   0.2754   0.2826   0.2862   0.2994   0.3065
  0.3145   0.3214   0.3263   0.3299   0.3393   0.3454   0.3664   0.3736
  0.3815   0.3842   0.3971   0.4062   0.4111   0.4135   0.4238   0.4320
  0.4358   0.4376   0.4409   0.4475   0.4573   0.4623   0.4702   0.4752
  0.4770   0.4902   0.4968   0.4970   0.5002   0.5060   0.5179   0.5203
  0.5264   0.5329   0.5429   0.5508   0.5614   0.5687   0.5813   0.5894
  0.5921   0.5990   0.6067   0.6174   0.6274   0.6375   0.6487   0.6524
  0.6606   0.6641   0.6680   0.6803   0.6863   0.6912   0.6986   0.7119
  0.7258   0.7317   0.7385   0.7590   0.7616   0.7681   0.7771   0.7864
  0.8057   0.8088   0.8207   0.8297   0.8433   0.8740   0.8837   0.9092
  0.9387   0.9711   0.9871   0.9948   1.0076   1.0203   1.0326   1.0439
  1.0713   1.0879   1.0944   1.1107   1.1180   1.1264   1.1471   1.1566
  1.1846   1.1985   1.2247   1.2360   1.2696   1.3082   1.3114   1.3254
  1.3613   1.3830   1.3917   1.4160   1.4430   1.4678   1.5085   1.5205
  1.5867   1.6055   1.6406   1.6609   1.6862   1.7134   1.7176   1.7506
  1.7629   1.7905   1.8054   1.8108   1.8346   1.8408   1.8762   1.8923
  1.9172   1.9541   1.9712   1.9929   2.0028   2.0225   2.0292   2.0351
  2.0665   2.0919   2.1054   2.1168   2.1288   2.1406   2.1585   2.1809
  2.1878   2.1996   2.2178   2.2368   2.2710   2.2937   2.3493   2.3667
  2.3752   2.4231   2.4743   2.5042   2.5404   2.6094   2.6202   2.6631
  2.7112   2.7313   2.7845   2.8036   2.8909   2.9163   2.9516   2.9808
  2.9928   3.0274   3.0342   3.0637   3.0965   3.1165   3.1363   3.1675
  3.1854   3.2080   3.2192   3.2612   3.2718   3.2750   3.3070   3.3149
  3.5737   3.6706   3.7425   3.8433
 
 Beta MOs
 -- Occupied --
-19.2752 -19.2318 -19.2080 -10.4824 -10.3494 -10.2930 -10.2840 -10.2672
 -2.0679  -1.2306  -1.1470  -1.0500  -0.9106  -0.8545  -0.7566  -0.6907
 -0.6753  -0.6143  -0.6059  -0.5877  -0.5588  -0.5374  -0.5240  -0.4976
 -0.4741  -0.4540  -0.4470  -0.4331  -0.4210  -0.4173  -0.3934  -0.3903
 -- Virtual --
  0.0076   0.0315   0.0586   0.0659   0.0684   0.0725   0.1038   0.1158
  0.1253   0.1372   0.1506   0.1632   0.1695   0.1774   0.1804   0.1922
  0.1949   0.2067   0.2090   0.2143   0.2200   0.2274   0.2312   0.2368
  0.2433   0.2451   0.2556   0.2715   0.2781   0.2840   0.2873   0.3013
  0.3095   0.3166   0.3245   0.3299   0.3311   0.3405   0.3504   0.3681
  0.3740   0.3826   0.3861   0.4001   0.4077   0.4124   0.4161   0.4257
  0.4334   0.4386   0.4399   0.4428   0.4492   0.4592   0.4637   0.4709
  0.4762   0.4785   0.4923   0.4971   0.4991   0.5031   0.5061   0.5192
  0.5217   0.5275   0.5345   0.5454   0.5530   0.5635   0.5713   0.5833
  0.5908   0.5935   0.6002   0.6086   0.6183   0.6283   0.6397   0.6494
  0.6549   0.6610   0.6681   0.6690   0.6810   0.6884   0.6930   0.6989
  0.7126   0.7266   0.7323   0.7384   0.7589   0.7614   0.7695   0.7778
  0.7874   0.8062   0.8099   0.8210   0.8302   0.8445   0.8746   0.8847
  0.9098   0.9398   0.9735   0.9879   0.9978   1.0089   1.0262   1.0332
  1.0468   1.0727   1.0901   1.1025   1.1139   1.1225   1.1288   1.1495
  1.1578   1.1863   1.2074   1.2255   1.2374   1.2794   1.3108   1.3161
  1.3289   1.3653   1.3862   1.3936   1.4177   1.4490   1.4686   1.5125
  1.5259   1.5876   1.6065   1.6413   1.6622   1.6896   1.7141   1.7221
  1.7514   1.7642   1.7934   1.8084   1.8121   1.8364   1.8438   1.8802
  1.9002   1.9339   1.9566   1.9743   1.9967   2.0121   2.0243   2.0329
  2.0405   2.0698   2.0954   2.1067   2.1221   2.1306   2.1481   2.1612
  2.1834   2.1897   2.2032   2.2203   2.2396   2.2747   2.2968   2.3527
  2.3696   2.3780   2.4279   2.4899   2.5083   2.5450   2.6117   2.6303
  2.6647   2.7191   2.7372   2.7921   2.8105   2.8964   2.9165   2.9518
  2.9863   2.9928   3.0275   3.0355   3.0637   3.1023   3.1193   3.1383
  3.1700   3.1872   3.2091   3.2225   3.2624   3.2738   3.2764   3.3100
  3.3194   3.5742   3.6706   3.7425   3.8436
 --------------------------------------------------------------
 
          Ground-State Mulliken Net Atomic Charges

     Atom                 Charge (a.u.)    Spin (a.u.)
  --------------------------------------------------------
      1 O                    -0.959824       0.000911
      2 C                     1.255610       0.005043
      3 O                    -0.690798      -0.000396
      4 O                    -1.090729      -0.000871
      5 Li                    0.993816       0.000473
      6 C                     0.399781      -0.074331
      7 C                    -0.140629       1.030484
      8 C                    -0.422057      -0.071944
      9 C                     0.541616       0.009547
     10 H                     0.034885       0.038087
     11 H                    -0.002752       0.012956
     12 H                     0.086770       0.002375
     13 H                    -0.012315       0.044234
     14 H                    -0.036314       0.008443
     15 H                     0.021412      -0.005586
     16 H                     0.022979       0.000233
     17 H                    -0.001451       0.000341
  --------------------------------------------------------
  Sum of atomic charges =     0.000000
  Sum of spin   charges =     1.000000

  Building new vdw surfaces
         Merz-Kollman RESP Net Atomic Charges

     Atom                 Charge (a.u.)
  ----------------------------------------
      1 O                    -0.739957
      2 C                     0.734288
      3 O                    -0.336269
      4 O                    -0.739957
      5 Li                    0.823581
      6 C                     0.009964
      7 C                    -0.372444
      8 C                     0.279687
      9 C                    -0.455341
     10 H                     0.119944
     11 H                     0.119944
     12 H                     0.206064
     13 H                     0.008191
     14 H                     0.008191
     15 H                     0.111372
     16 H                     0.111372
     17 H                     0.111372
  ----------------------------------------
  Sum of atomic charges =     0.000000

  Related Dipole Moment =     3.9897 (X -1.0360 Y  1.2710 Z  3.6371)

 -----------------------------------------------------------------
                    Cartesian Multipole Moments
 -----------------------------------------------------------------
    Charge (ESU x 10^10)
                 0.0000
    Dipole Moment (Debye)
         X      -1.4613      Y       1.5236      Z       3.6679
       Tot       4.2320
    Quadrupole Moments (Debye-Ang)
        XX     -56.2659     XY       8.1451     YY     -37.6455
        XZ      -0.1805     YZ      -3.2589     ZZ     -49.9082
    Octopole Moments (Debye-Ang^2)
       XXX      52.0318    XXY      81.4320    XYY      27.3433
       YYY     287.0175    XXZ      -5.3018    XYZ       4.9406
       YYZ      11.5944    XZZ      21.4890    YZZ      88.9576
       ZZZ     -27.1723
    Hexadecapole Moments (Debye-Ang^3)
      XXXX    -451.0734   XXXY    -390.5208   XXYY    -506.6187
      XYYY    -362.4218   YYYY   -2681.6878   XXXZ      66.8791
      XXYZ      67.5552   XYYZ      11.2183   YYYZ     158.4676
      XXZZ    -103.2069   XYZZ    -127.8217   YYZZ    -473.2131
      XZZZ      61.3981   YZZZ     199.7759   ZZZZ    -199.1435
 -----------------------------------------------------------------
 Calculating analytic gradient of the SCF energy
 Gradient of CDS energy
            1           2           3           4           5           6
    1   0.0000267   0.0009034  -0.0005316  -0.0004637  -0.0000213   0.0002421
    2   0.0003194   0.0005117  -0.0012141   0.0000621   0.0002078   0.0006332
    3   0.0005499  -0.0012665   0.0006509   0.0003571   0.0000467   0.0002889
            7           8           9          10          11          12
    1  -0.0000162   0.0000071  -0.0005329  -0.0000410  -0.0000176   0.0000298
    2  -0.0001444   0.0000309  -0.0015921  -0.0000568  -0.0000687  -0.0000356
    3  -0.0006795   0.0006829  -0.0001846  -0.0001473  -0.0001463   0.0000375
           13          14          15          16          17
    1   0.0001114  -0.0000097  -0.0000213   0.0000989   0.0002360
    2   0.0001432   0.0001831   0.0003670   0.0003061   0.0003472
    3  -0.0001184  -0.0001185   0.0000857  -0.0000731   0.0000346
 Gradient of SCF Energy
            1           2           3           4           5           6
    1   0.0144710  -0.0590220  -0.0156575   0.1128159  -0.0524576  -0.0016809
    2   0.0777872  -0.0294446  -0.0335375   0.0490090  -0.0721621   0.0414631
    3   0.0300305  -0.0194204  -0.0101729   0.0274007  -0.0290147   0.0097794
            7           8           9          10          11          12
    1   0.0255965  -0.0121687  -0.0047990  -0.0011660  -0.0020583  -0.0053002
    2  -0.0234083   0.0099257  -0.0188450  -0.0019936  -0.0061182   0.0061282
    3  -0.0452794   0.0256238  -0.0050626   0.0013221  -0.0012791   0.0149937
           13          14          15          16          17
    1  -0.0020926   0.0023947  -0.0007694   0.0010366   0.0008575
    2  -0.0020693  -0.0017549   0.0013043   0.0028578   0.0008583
    3   0.0005358  -0.0030176   0.0019189   0.0003384   0.0013033
 Max gradient component =       1.128E-01
 RMS gradient           =       2.964E-02
 Computing fast CPCM-SWIG gradient
 Updating gradient with PCM contributions...
 -- total gradient after adding PCM contribution --
---------------------------------------------------
  Atom         X              Y              Z     
---------------------------------------------------
   1       0.014664       0.080786       0.033698
   2      -0.057803      -0.029893      -0.025715
   3      -0.016114      -0.034482      -0.007332
   4       0.110960       0.052846       0.031499
   5      -0.052038      -0.077116      -0.032367
   6      -0.004081       0.040830       0.013387
   7       0.023405      -0.022871      -0.045879
   8      -0.014633       0.007404       0.032740
   9      -0.004169      -0.014823      -0.005434
  10       0.004135      -0.004419      -0.001286
  11      -0.005704      -0.005112      -0.002764
  12      -0.001995       0.005829       0.015989
  13       0.004554      -0.006477      -0.003570
  14      -0.004511      -0.000965      -0.006391
  15      -0.003303       0.003050       0.003780
  16       0.001634       0.004949      -0.004227
  17       0.005001       0.000464       0.003873
---------------------------------------------------
 Number of fixed atoms: 0
 Gradient time:  CPU 447.91 s  wall 13.49 s
 Total job time:  49.21s(wall), 1604.88s(cpu) 
 Thu Jan  5 14:55:10 2023

        *************************************************************
        *                                                           *
        *  Thank you very much for using Q-Chem.  Have a nice day.  *
        *                                                           *
        *************************************************************


