
Running Job 1 of 1 mol.qin
qchem mol.qin_6883.0 /tmp/scratch/ 0
/clusterfs/mp/software/qchem6.0/exe/qcprog.exe_s mol.qin_6883.0 /tmp/scratch/
                  Welcome to Q-Chem
     A Quantum Leap Into The Future Of Chemistry


 Q-Chem 6.0, Q-Chem, Inc., Pleasanton, CA (2022)

 E. Epifanovsky,  A. T. B. Gilbert,  Xintian Feng,  Joonho Lee,  Yuezhi Mao,  
 N. Mardirossian,  P. Pokhilko,  A. White,  M. Wormit,  M. P. Coons,  
 A. L. Dempwolff,  Zhengting Gan,  D. Hait,  P. R. Horn,  L. D. Jacobson,  
 I. Kaliman,  J. Kussmann,  A. W. Lange,  Ka Un Lao,  D. S. Levine,  Jie Liu,  
 S. C. McKenzie,  A. F. Morrison,  K. Nanda,  F. Plasser,  D. R. Rehn,  
 M. L. Vidal,  Zhi-Qiang You,  Ying Zhu,  B. Alam,  B. Albrecht,  
 A. Aldossary,  E. Alguire,  J. H. Andersen,  V. Athavale,  D. Barton,  
 K. Begam,  A. Behn,  N. Bellonzi,  Y. A. Bernard,  E. J. Berquist,  
 H. Burton,  A. Carreras,  K. Carter-Fenk,  Romit Chakraborty,  
 Chandrima Chakravarty,  Junhan Chen,  A. D. Chien,  K. D. Closser,  
 V. Cofer-Shabica,  L. Cunha,  S. Dasgupta,  Jia Deng,  M. de Wergifosse,  
 M. Diedenhofen,  Hainam Do,  S. Ehlert,  Po-Tung Fang,  S. Fatehi,  
 Qingguo Feng,  T. Friedhoff,  B. Ganoe,  J. Gayvert,  Qinghui Ge,  
 G. Gidofalvi,  M. Goldey,  J. Gomes,  C. Gonzalez-Espinoza,  S. Gulania,  
 A. Gunina,  J. A. Gyamfi,  M. W. D. Hanson-Heine,  P. H. P. Harbach,  
 A. W. Hauser,  M. F. Herbst,  M. Hernandez Vera,  M. Hodecker,  
 Z. C. Holden,  S. Houck,  Xunkun Huang,  Kerwin Hui,  B. C. Huynh,  
 K. Ikeda,  M. Ivanov,  Hyunjun Ji,  Zuxin Jin,  Hanjie Jiang,  B. Kaduk,  
 S. Kaehler,  R. Kang,  K. Khistyaev,  Jaehoon Kim,  Yongbin Kim,  
 P. Klunzinger,  Z. Koczor-Benda,  Joong Hoon Koh,  D. Kosenkov,  
 Saikiran Kotaru,  L. Koulias,  T. Kowalczyk,  C. M. Krauter,  K. Kue,  
 A. Kunitsa,  T. Kus,  A. Landau,  K. V. Lawler,  D. Lefrancois,  S. Lehtola,  
 Rain Li,  Shaozhi Li,  Yi-Pei Li,  Jiashu Liang,  M. Liebenthal,  
 Hung-Hsuan Lin,  You-Sheng Lin,  Fenglai Liu,  Kuan-Yu Liu,  
 M. Loipersberger,  A. Luenser,  C. Malbon,  A. Manjanath,  P. Manohar,  
 E. Mansoor,  S. F. Manzer,  Shan-Ping Mao,  A. V. Marenich,  T. Markovich,  
 S. Mason,  F. Matz,  S. A. Maurer,  P. F. McLaughlin,  M. F. S. J. Menger,  
 J.-M. Mewes,  S. A. Mewes,  P. Morgante,  Mohammad Mostafanejad,  
 J. W. Mullinax,  K. J. Oosterbaan,  G. Paran,  V. Parravicini,  
 Alexander C. Paul,  Suranjan K. Paul,  F. Pavosevic,  Zheng Pei,  S. Prager,  
 E. I. Proynov,  E. Ramos,  B. Rana,  A. E. Rask,  A. Rettig,  R. M. Richard,  
 F. Rob,  E. Rossomme,  T. Scheele,  M. Scheurer,  M. Schneider,  
 P. E. Schneider,  N. Sergueev,  S. M. Sharada,  Hengyuan Shen,  
 W. Skomorowski,  D. W. Small,  C. J. Stein,  Yingli Su,  Yu-Chuan Su,  
 E. J. Sundstrom,  Zhen Tao,  J. Thirman,  Hung-Yi Tsai,  T. Tsuchimochi,  
 N. M. Tubman,  C. Utku,  S. P. Veccham,  O. Vydrov,  J. Wenzel,  
 Jonathan Wong,  J. Witte,  A. Yamada,  Chou-Hsun Yang,  Kun Yao,  
 S. Yeganeh,  S. R. Yost,  A. Zech,  F. Zeller,  Igor Ying Zhang,  
 Xing Zhang,  Yu Zhang,  D. Zuev,  A. Aspuru-Guzik,  A. T. Bell,  
 N. A. Besley,  K. B. Bravaya,  B. R. Brooks,  D. Casanova,  Jeng-Da Chai,  
 Hsing-Ta Chen,  S. Coriani,  C. J. Cramer,  A. E. DePrince, III,  
 R. A. DiStasio Jr.,  A. Dreuw,  B. D. Dunietz,  T. R. Furlani,  
 W. A. Goddard III,  S. Grimme,  S. Hammes-Schiffer,  T. Head-Gordon,  
 W. J. Hehre,  Chao-Ping Hsu,  T.-C. Jagau,  Yousung Jung,  A. Klamt,  
 Jing Kong,  D. S. Lambrecht,  Xiangyuan Li,  WanZhen Liang,  N. J. Mayhall,  
 C. W. McCurdy,  J. B. Neaton,  T. Neudecker,  C. Ochsenfeld,  
 J. A. Parkhill,  R. Peverati,  V. A. Rassolov,  Haisheng Ren,  Yihan Shao,  
 L. V. Slipchenko,  R. P. Steele,  J. E. Subotnik,  A. J. W. Thom,  
 A. Tkatchenko,  D. G. Truhlar,  T. Van Voorhis,  Fan Wang,  
 T. A. Wesolowski,  K. B. Whaley,  H. L. Woodcock III,  P. M. Zimmerman,  
 S. Faraji,  P. M. W. Gill,  M. Head-Gordon,  J. M. Herbert,  A. I. Krylov

 Contributors to earlier versions of Q-Chem not listed above: 
 R. D. Adamson,  B. Austin,  R. Baer,  J. Baker,  G. J. O. Beran,  
 K. Brandhorst,  S. T. Brown,  E. F. C. Byrd,  Arup K. Chakraborty,  
 G. K. L. Chan,  Chun-Min Chang,  Yunqing Chen,  C.-L. Cheng,  
 Siu Hung Chien,  D. M. Chipman,  D. L. Crittenden,  H. Dachsel,  
 R. J. Doerksen,  A. D. Dutoi,  R. G. Edgar,  J. Fosso-Tande,  
 L. Fusti-Molnar,  D. Ghosh,  A. Ghysels,  A. Golubeva-Zadorozhnaya,  
 J. Gonthier,  M. S. Gordon,  S. R. Gwaltney,  G. Hawkins,  J. E. Herr,  
 A. Heyden,  S. Hirata,  E. G. Hohenstein,  G. Kedziora,  F. J. Keil,  
 C. Kelley,  Jihan Kim,  R. A. King,  R. Z. Khaliullin,  P. P. Korambath,  
 W. Kurlancheek,  A. Laurent,  A. M. Lee,  M. S. Lee,  S. V. Levchenko,  
 Ching Yeh Lin,  D. Liotard,  E. Livshits,  R. C. Lochan,  I. Lotan,  
 L. A. Martinez-Martinez,  P. E. Maslen,  N. Nair,  D. P. O'Neill,  
 D. Neuhauser,  E. Neuscamman,  C. M. Oana,  R. Olivares-Amaya,  R. Olson,  
 T. M. Perrine,  B. Peters,  P. A. Pieniazek,  A. Prociuk,  Y. M. Rhee,  
 J. Ritchie,  M. A. Rohrdanz,  E. Rosta,  N. J. Russ,  H. F. Schaefer III,  
 M. W. Schmidt,  N. E. Schultz,  S. Sharma,  N. Shenvi,  C. D. Sherrill,  
 A. C. Simmonett,  A. Sodt,  T. Stein,  D. Stuck,  K. S. Thanthiriwatte,  
 V. Vanovschi,  L. Vogt,  Tao Wang,  A. Warshel,  M. A. Watson,  
 C. F. Williams,  Q. Wu,  X. Xu,  Jun Yang,  W. Zhang,  Yan Zhao

   Please cite Q-Chem as follows:
  "Software for the frontiers of quantum chemistry:
   An overview of developments in the Q-Chem 5 package"
   J. Chem. Phys. 155, 084801 (2021)
   https://doi.org/10.1063/5.0055522 (open access)

 Q-Chem 6.0.1 for Intel X86 EM64T Linux

 Parts of Q-Chem use Armadillo 9.900.5 (Nocturnal Misbehaviour).
 http://arma.sourceforge.net/

 Q-Chem begins on Fri Nov 25 12:14:22 2022  

 Host: 
0

     Scratch files written to /tmp/scratch//
 Aug2322 |scratch|qcdevops|jenkins|workspace|build_RNUM -1
 Processing $rem in /clusterfs/mp/software/qchem6.0/config/preferences:
 Processing $rem in /global/home/users/smblau/.qchemrc:
 Symmetry turned off for PCM/SM12/SMD calculation

 Checking the input file for inconsistencies... 	...done.

--------------------------------------------------------------
User input:
--------------------------------------------------------------
$molecule
0 1
O      0.5776062053      0.2932592301      1.1526741209
O      2.9766752628      0.9324156052      0.7789422614
C      1.5432904287      1.3652021623      0.8910961442
C      1.2673196529      2.9671439896      0.7635400745
C      2.0561449940      3.4912848651     -0.6136348071
C     -0.2937667182      3.4165444837      0.5841764483
H     -0.8036235284      2.7586363857     -0.2394030968
H     -0.3680376531      4.5743411455      0.3139113570
H     -0.8351607987      3.1896146628      1.6211605449
C      1.8659452112      3.7715537245      2.0971126957
H      2.9965033743      4.0627193732      1.9863879287
H      1.1863463410      4.7243795871      2.2297814974
H      1.6478624278      3.0820625784      3.0388457882
C      1.6151062510      2.6137641981     -1.9412358999
H      1.6720017586      4.6008517938     -0.7999798932
H      3.2280496949      3.4576342348     -0.5075905969
H      2.4493983281      1.7803308646     -2.1233233441
H      0.5649257792      2.0747668765     -1.8258153508
H      1.5307693518      3.3328121488     -2.8821184521
O     -2.2736770747     -1.1921660113      0.8043047123
O      0.0389342603     -0.0920248086      0.1740582989
C     -3.0233808331     -0.1148426883      0.1604695625
C     -4.6359181002     -0.5393290350      0.3128760687
C     -2.8747528056      1.2709060520      1.0574826214
C     -2.7719894448      0.0863284041     -1.4418248151
C     -0.8541478608     -1.2166896758      0.4707423796
C     -0.1253556560     -2.7233379708      0.4843771328
C      1.1973165874     -2.8140645842     -0.4789325674
H     -5.0333674750     -1.6300145120      0.1298557230
H     -5.3870837586      0.3007031113      0.6438832624
H     -1.8261991242      1.2448980253      1.6165438853
H     -3.7853954634      1.3947190644      1.8119630782
H     -2.8742710788      2.1813864107      0.2850658707
H     -3.3320469103      1.0977347158     -1.7409598679
H     -1.6599871823      0.2329369459     -1.7703143088
H     -3.3385594692     -0.7573458468     -2.0692250893
C     -1.2479362869     -3.8922664231      0.2424319682
H     -2.0004094848     -3.5720909018     -0.6025186716
H     -1.8580471127     -3.9920974941      1.2622930504
H     -0.7927456075     -4.9497308828      0.0247890343
C      0.4065335527     -2.9063720975      2.0596411568
H      0.6240277842     -4.0229678743      2.3374093315
H      1.3716653649     -2.2356657796      2.2183276875
H     -0.4753664970     -2.4530498902      2.7233500590
C      0.8385547248     -2.9025818391     -2.1035189912
H      2.0277176678     -1.9978210072     -0.2446070849
H      1.7205855459     -3.8577506290     -0.2318434821
H      1.8429225337     -2.6494531213     -2.6908198791
H      0.5912090758     -4.0332034867     -2.3965358736
H     -0.0166279137     -2.1646585633     -2.4215208860
$end

$rem
job_type = opt
basis = def2-svpd
max_scf_cycles = 100
gen_scfman = true
xc_grid = 3
thresh = 14
s2thresh = 16
scf_algorithm = diis
resp_charges = true
symmetry = false
sym_ignore = true
method = b97mv
geom_opt_max_cycles = 200
solvent_method = pcm
mem_total = 170000
$end

$pcm
heavypoints 194
hpoints 194
radii uff
theory cpcm
vdwscale 1.1
$end

$solvent
dielectric 3.0
$end

$geom_opt
maxiter = 200
coordinates = redundant
max_displacement = 0.1
optimization_restart = false
$end
--------------------------------------------------------------
 ----------------------------------------------------------------
             Standard Nuclear Orientation (Angstroms)
    I     Atom           X                Y                Z
 ----------------------------------------------------------------
    1      O       0.5776062053     0.2932592301     1.1526741209
    2      O       2.9766752628     0.9324156052     0.7789422614
    3      C       1.5432904287     1.3652021623     0.8910961442
    4      C       1.2673196529     2.9671439896     0.7635400745
    5      C       2.0561449940     3.4912848651    -0.6136348071
    6      C      -0.2937667182     3.4165444837     0.5841764483
    7      H      -0.8036235284     2.7586363857    -0.2394030968
    8      H      -0.3680376531     4.5743411455     0.3139113570
    9      H      -0.8351607987     3.1896146628     1.6211605449
   10      C       1.8659452112     3.7715537245     2.0971126957
   11      H       2.9965033743     4.0627193732     1.9863879287
   12      H       1.1863463410     4.7243795871     2.2297814974
   13      H       1.6478624278     3.0820625784     3.0388457882
   14      C       1.6151062510     2.6137641981    -1.9412358999
   15      H       1.6720017586     4.6008517938    -0.7999798932
   16      H       3.2280496949     3.4576342348    -0.5075905969
   17      H       2.4493983281     1.7803308646    -2.1233233441
   18      H       0.5649257792     2.0747668765    -1.8258153508
   19      H       1.5307693518     3.3328121488    -2.8821184521
   20      O      -2.2736770747    -1.1921660113     0.8043047123
   21      O       0.0389342603    -0.0920248086     0.1740582989
   22      C      -3.0233808331    -0.1148426883     0.1604695625
   23      C      -4.6359181002    -0.5393290350     0.3128760687
   24      C      -2.8747528056     1.2709060520     1.0574826214
   25      C      -2.7719894448     0.0863284041    -1.4418248151
   26      C      -0.8541478608    -1.2166896758     0.4707423796
   27      C      -0.1253556560    -2.7233379708     0.4843771328
   28      C       1.1973165874    -2.8140645842    -0.4789325674
   29      H      -5.0333674750    -1.6300145120     0.1298557230
   30      H      -5.3870837586     0.3007031113     0.6438832624
   31      H      -1.8261991242     1.2448980253     1.6165438853
   32      H      -3.7853954634     1.3947190644     1.8119630782
   33      H      -2.8742710788     2.1813864107     0.2850658707
   34      H      -3.3320469103     1.0977347158    -1.7409598679
   35      H      -1.6599871823     0.2329369459    -1.7703143088
   36      H      -3.3385594692    -0.7573458468    -2.0692250893
   37      C      -1.2479362869    -3.8922664231     0.2424319682
   38      H      -2.0004094848    -3.5720909018    -0.6025186716
   39      H      -1.8580471127    -3.9920974941     1.2622930504
   40      H      -0.7927456075    -4.9497308828     0.0247890343
   41      C       0.4065335527    -2.9063720975     2.0596411568
   42      H       0.6240277842    -4.0229678743     2.3374093315
   43      H       1.3716653649    -2.2356657796     2.2183276875
   44      H      -0.4753664970    -2.4530498902     2.7233500590
   45      C       0.8385547248    -2.9025818391    -2.1035189912
   46      H       2.0277176678    -1.9978210072    -0.2446070849
   47      H       1.7205855459    -3.8577506290    -0.2318434821
   48      H       1.8429225337    -2.6494531213    -2.6908198791
   49      H       0.5912090758    -4.0332034867    -2.3965358736
   50      H      -0.0166279137    -2.1646585633    -2.4215208860
 ----------------------------------------------------------------
 Nuclear Repulsion Energy =        1726.49989161 hartrees
 There are       79 alpha and       79 beta electrons
 Requested basis set is def2-SVPD
 There are 284 shells and 652 basis functions

 Total QAlloc Memory Limit 170000 MB
 Mega-Array Size       188 MB
 MEM_STATIC part       192 MB

 -----------------------------------------------------------------------
                STARTING GEOMETRY OPTIMIZER USING LIBOPT3
                by Peter F. McLaughlin, Yu Zhang, Evgeny Epifanovsky
 -----------------------------------------------------------------------

              Initial Energy and Gradient Calculation
   -- Checking Topology for Ill-Behaving Coordinates --

 -------------------------------------------
   Coordinate       |  Removed | Additions 
 -------------------------------------------
	Bonds                     0          0
	Angles                    0          0
	Torsions                  0          0
	Co-Linear Type5s          0          0
	Co-Linear Type6s          0          0
 -------------------------------------------
     Done Checking Topology
 ----------------------------------------------------------------
             Standard Nuclear Orientation (Angstroms)
    I     Atom           X                Y                Z
 ----------------------------------------------------------------
    1      O       0.5776062053     0.2932592301     1.1526741209
    2      O       2.9766752628     0.9324156052     0.7789422614
    3      C       1.5432904287     1.3652021623     0.8910961442
    4      C       1.2673196529     2.9671439896     0.7635400745
    5      C       2.0561449940     3.4912848651    -0.6136348071
    6      C      -0.2937667182     3.4165444837     0.5841764483
    7      H      -0.8036235284     2.7586363857    -0.2394030968
    8      H      -0.3680376531     4.5743411455     0.3139113570
    9      H      -0.8351607987     3.1896146628     1.6211605449
   10      C       1.8659452112     3.7715537245     2.0971126957
   11      H       2.9965033743     4.0627193732     1.9863879287
   12      H       1.1863463410     4.7243795871     2.2297814974
   13      H       1.6478624278     3.0820625784     3.0388457882
   14      C       1.6151062510     2.6137641981    -1.9412358999
   15      H       1.6720017586     4.6008517938    -0.7999798932
   16      H       3.2280496949     3.4576342348    -0.5075905969
   17      H       2.4493983281     1.7803308646    -2.1233233441
   18      H       0.5649257792     2.0747668765    -1.8258153508
   19      H       1.5307693518     3.3328121488    -2.8821184521
   20      O      -2.2736770747    -1.1921660113     0.8043047123
   21      O       0.0389342603    -0.0920248086     0.1740582989
   22      C      -3.0233808331    -0.1148426883     0.1604695625
   23      C      -4.6359181002    -0.5393290350     0.3128760687
   24      C      -2.8747528056     1.2709060520     1.0574826214
   25      C      -2.7719894448     0.0863284041    -1.4418248151
   26      C      -0.8541478608    -1.2166896758     0.4707423796
   27      C      -0.1253556560    -2.7233379708     0.4843771328
   28      C       1.1973165874    -2.8140645842    -0.4789325674
   29      H      -5.0333674750    -1.6300145120     0.1298557230
   30      H      -5.3870837586     0.3007031113     0.6438832624
   31      H      -1.8261991242     1.2448980253     1.6165438853
   32      H      -3.7853954634     1.3947190644     1.8119630782
   33      H      -2.8742710788     2.1813864107     0.2850658707
   34      H      -3.3320469103     1.0977347158    -1.7409598679
   35      H      -1.6599871823     0.2329369459    -1.7703143088
   36      H      -3.3385594692    -0.7573458468    -2.0692250893
   37      C      -1.2479362869    -3.8922664231     0.2424319682
   38      H      -2.0004094848    -3.5720909018    -0.6025186716
   39      H      -1.8580471127    -3.9920974941     1.2622930504
   40      H      -0.7927456075    -4.9497308828     0.0247890343
   41      C       0.4065335527    -2.9063720975     2.0596411568
   42      H       0.6240277842    -4.0229678743     2.3374093315
   43      H       1.3716653649    -2.2356657796     2.2183276875
   44      H      -0.4753664970    -2.4530498902     2.7233500590
   45      C       0.8385547248    -2.9025818391    -2.1035189912
   46      H       2.0277176678    -1.9978210072    -0.2446070849
   47      H       1.7205855459    -3.8577506290    -0.2318434821
   48      H       1.8429225337    -2.6494531213    -2.6908198791
   49      H       0.5912090758    -4.0332034867    -2.3965358736
   50      H      -0.0166279137    -2.1646585633    -2.4215208860
 ----------------------------------------------------------------
 Nuclear Repulsion Energy =        1726.49989161 hartrees
 There are       79 alpha and       79 beta electrons
 Using C-PCM dielectric factor f(eps) = (eps-1)/eps = 0.666667
 Discretize the solute cavity surface with Lebedev spheres
	Using 194 Lebedev grid points for each H atom
	Using 194 Lebedev grid points for other atoms
	Atomic van der Waals radii (UFF set) will be scaled by 1.10
 Using smooth SwiG surface discretization
 Remove points where switching function is < 1.0e-08
 Keep 3749 surface tesserae and discard 5951 interior tesserae
 Molecular Surface Area = 441.046 Angst**2

 Requested basis set is def2-SVPD
 There are 284 shells and 652 basis functions
 A cutoff of  1.0D-16 yielded  36451 shell pairs
 There are    192207 function pairs (    216748 Cartesian)
 Smallest overlap matrix eigenvalue = 4.47E-06

 Scale SEOQF with 1.000000e-02/1.000000e-01/1.000000e-01

 Standard Electronic Orientation quadrupole field applied
 Nucleus-field energy     =     0.0000000422 hartrees
 Guess from superposition of atomic densities
 Warning:  Energy on first SCF cycle will be non-variational
 SAD guess density has 158.000000 electrons

 -----------------------------------------------------------------------
  General SCF calculation program by
  Eric Jon Sundstrom, Paul Horn, Yuezhi Mao, Dmitri Zuev, Alec White,
  David Stuck, Shaama M.S., Shane Yost, Joonho Lee, David Small,
  Daniel Levine, Susi Lehtola, Hugh Burton, Evgeny Epifanovsky,
  Bang C. Huynh
 -----------------------------------------------------------------------
 Exchange:  B97M-V      Correlation:  B97M-V
 Using SG-3 standard quadrature grid
 Nonlocal Correlation:  VV10 with C = 0.0100 and b = 6.00 and scale = 1.00000
 Grid used for NLC:  SG-1 standard quadrature
 using 32 threads for integral computing
 -------------------------------------------------------
 OpenMP Integral computing Module                
 Release: version 1.0, May 2013, Q-Chem Inc. Pittsburgh 
 -------------------------------------------------------
 C-PCM solvent model [f = (eps-1)/eps], solve by matrix inversion
 A restricted SCF calculation will be
 performed using DIIS
 SCF converges when DIIS error is below 1.0e-08
 ---------------------------------------
  Cycle       Energy         DIIS error
 ---------------------------------------
    1    -927.8388167554      1.85e-02  
    2    -926.4926380629      3.37e-03  
    3    -920.2022833214      1.04e-02  
    4    -926.0279609633      3.73e-03  
    5    -925.4211024971      4.40e-03  
    6    -926.8557295112      2.02e-03  
    7    -926.9740069655      1.72e-03  
    8    -927.0952771137      1.18e-03  
    9    -927.0429431556      1.37e-03  
   10    -927.1254345106      1.06e-03  
   11    -927.2068664630      5.03e-04  
   12    -927.0765860943      1.22e-03  
   13    -927.0982466637      1.13e-03  
   14    -927.1010387256      1.12e-03  
   15    -927.1005437520      1.13e-03  
   16    -927.1594459118      8.63e-04  
   17    -927.1514796643      9.07e-04  
   18    -927.1501341430      9.16e-04  
   19    -927.1174278975      1.07e-03  
   20    -927.1438599944      9.48e-04  
   21    -927.1286345160      1.02e-03  
   22    -927.1762057253      7.58e-04  
   23    -927.2243813831      1.77e-04  
   24    -927.1718222972      8.13e-04  
   25    -927.2263208068      9.20e-05  
   26    -927.2264146283      8.79e-05  
   27    -927.2263926857      8.93e-05  
   28    -927.2266796164      6.59e-05  
   29    -927.2269550109      2.94e-05  
   30    -927.2270214712      4.12e-06  
   31    -927.2270223518      2.42e-06  
   32    -927.2270227790      6.19e-07  
   33    -927.2270228088      2.53e-08  
   34    -927.2270228077      1.22e-07  
   35    -927.2270228085      6.16e-08  
   36    -927.2270228088      2.29e-08  
   37    -927.2270228088      1.67e-09  Convergence criterion met
 ---------------------------------------
 SCF time:   CPU 15618.75s  wall 838.00s 

************** Final PCM Free Energy Summary **************
 G_electrostatic  =      -0.00703474 hartree =      -4.41436454 kcal/mol
 G_cavitation     =       0.00000000 hartree =       0.00000000 kcal/mol
 G_dispersion     =       0.00000000 hartree =       0.00000000 kcal/mol
 G_repulsion      =       0.00000000 hartree =       0.00000000 kcal/mol
 --------------------------------------------------
 Non-electrostatic Free Energy =       0.00000000 hartree =       0.00000000 kcal/mol
 Total                         =      -0.00703474 hartree =      -4.41436454 kcal/mol
 --------------------------------------------------
 SCF Energy (H0 + V/2)                       =    -927.22702281 
 Solute Internal Energy (H0)                 =    -927.21998807 
 Total Free Energy (H0 + V/2 + non-elec)     =    -927.22702281 hartree
                                             = -581843.73857967 kcal/mol
***********************************************************

 SCF   energy in the final basis set =     -927.2270228088
 Total energy in the final basis set =     -927.2270228088
 
 --------------------------------------------------------------
 
                    Orbital Energies (a.u.)
 --------------------------------------------------------------
 
 Alpha MOs
 -- Occupied --
-19.2658 -19.2654 -19.2377 -19.1869 -10.3826 -10.3342 -10.3053 -10.2804
-10.2685 -10.2355 -10.2332 -10.2311 -10.2296 -10.2281 -10.2259 -10.2202
-10.2191 -10.2182 -10.2160 -10.2159  -1.2998  -1.0423  -0.9377  -0.8787
 -0.7707  -0.7599  -0.7343  -0.6853  -0.6764  -0.6651  -0.6470  -0.6412
 -0.6324  -0.6213  -0.6034  -0.5870  -0.5791  -0.5669  -0.5496  -0.5271
 -0.5027  -0.4714  -0.4552  -0.4298  -0.4243  -0.4165  -0.4109  -0.4082
 -0.3984  -0.3979  -0.3901  -0.3845  -0.3812  -0.3799  -0.3735  -0.3651
 -0.3625  -0.3574  -0.3547  -0.3482  -0.3476  -0.3419  -0.3395  -0.3385
 -0.3332  -0.3248  -0.3220  -0.3166  -0.3154  -0.3113  -0.3056  -0.3015
 -0.2977  -0.2905  -0.2885  -0.2815  -0.2567  -0.2121  -0.1514
 -- Virtual --
 -0.1471  -0.1406  -0.0229  -0.0066  -0.0015   0.0012   0.0099   0.0132
  0.0212   0.0255   0.0278   0.0314   0.0350   0.0390   0.0414   0.0440
  0.0450   0.0513   0.0573   0.0588   0.0616   0.0622   0.0631   0.0698
  0.0721   0.0730   0.0790   0.0831   0.0848   0.0865   0.0884   0.0939
  0.0976   0.1006   0.1045   0.1074   0.1121   0.1142   0.1158   0.1175
  0.1246   0.1270   0.1316   0.1326   0.1359   0.1394   0.1405   0.1473
  0.1501   0.1520   0.1530   0.1543   0.1592   0.1658   0.1677   0.1703
  0.1707   0.1750   0.1766   0.1815   0.1839   0.1893   0.1921   0.1935
  0.1980   0.1999   0.2052   0.2097   0.2101   0.2137   0.2154   0.2164
  0.2222   0.2296   0.2313   0.2341   0.2360   0.2376   0.2429   0.2453
  0.2503   0.2516   0.2542   0.2554   0.2658   0.2669   0.2726   0.2741
  0.2784   0.2816   0.2830   0.2887   0.2896   0.2924   0.2975   0.2997
  0.3015   0.3039   0.3064   0.3097   0.3151   0.3158   0.3210   0.3218
  0.3249   0.3268   0.3288   0.3310   0.3329   0.3338   0.3373   0.3410
  0.3439   0.3460   0.3479   0.3508   0.3541   0.3561   0.3584   0.3610
  0.3642   0.3661   0.3668   0.3687   0.3732   0.3757   0.3810   0.3828
  0.3862   0.3903   0.3908   0.3938   0.3962   0.3990   0.4032   0.4040
  0.4067   0.4121   0.4125   0.4175   0.4220   0.4242   0.4261   0.4312
  0.4333   0.4372   0.4396   0.4427   0.4465   0.4478   0.4486   0.4532
  0.4546   0.4576   0.4607   0.4627   0.4676   0.4699   0.4732   0.4751
  0.4770   0.4795   0.4803   0.4848   0.4878   0.4902   0.4946   0.4966
  0.4990   0.5050   0.5055   0.5078   0.5112   0.5133   0.5169   0.5188
  0.5264   0.5271   0.5285   0.5336   0.5358   0.5382   0.5457   0.5468
  0.5476   0.5524   0.5554   0.5590   0.5635   0.5648   0.5680   0.5703
  0.5750   0.5792   0.5829   0.5845   0.5885   0.5937   0.5968   0.5973
  0.6014   0.6047   0.6087   0.6107   0.6146   0.6157   0.6203   0.6249
  0.6280   0.6328   0.6364   0.6413   0.6432   0.6477   0.6529   0.6564
  0.6615   0.6670   0.6739   0.6759   0.6799   0.6828   0.6857   0.6866
  0.6945   0.6984   0.7055   0.7100   0.7134   0.7226   0.7248   0.7298
  0.7366   0.7394   0.7461   0.7485   0.7514   0.7551   0.7584   0.7627
  0.7687   0.7744   0.7830   0.7926   0.7953   0.8027   0.8046   0.8058
  0.8129   0.8162   0.8228   0.8301   0.8353   0.8402   0.8462   0.8497
  0.8546   0.8657   0.8676   0.8705   0.8787   0.8835   0.8869   0.8924
  0.9023   0.9031   0.9135   0.9147   0.9235   0.9279   0.9309   0.9389
  0.9443   0.9540   0.9570   0.9614   0.9633   0.9696   0.9751   0.9821
  0.9865   0.9893   0.9937   1.0004   1.0090   1.0147   1.0191   1.0229
  1.0268   1.0305   1.0353   1.0371   1.0440   1.0486   1.0501   1.0542
  1.0596   1.0609   1.0660   1.0744   1.0799   1.0903   1.0961   1.0981
  1.1031   1.1092   1.1134   1.1181   1.1366   1.1414   1.1458   1.1604
  1.1751   1.1854   1.1911   1.2001   1.2068   1.2157   1.2189   1.2331
  1.2364   1.2428   1.2534   1.2572   1.2661   1.2705   1.2833   1.2889
  1.2984   1.3080   1.3111   1.3255   1.3381   1.3455   1.3503   1.3631
  1.3680   1.3754   1.3761   1.3881   1.3976   1.4135   1.4146   1.4242
  1.4314   1.4417   1.4555   1.4576   1.4691   1.4759   1.4821   1.4902
  1.4996   1.5016   1.5182   1.5223   1.5399   1.5455   1.5507   1.5517
  1.5715   1.5769   1.5784   1.5955   1.6045   1.6158   1.6254   1.6331
  1.6395   1.6493   1.6530   1.6572   1.6685   1.6757   1.6778   1.6846
  1.6862   1.6970   1.6995   1.7077   1.7085   1.7109   1.7159   1.7211
  1.7255   1.7319   1.7379   1.7390   1.7404   1.7525   1.7589   1.7643
  1.7674   1.7727   1.7848   1.7883   1.7945   1.7978   1.7991   1.8067
  1.8146   1.8218   1.8245   1.8332   1.8411   1.8465   1.8511   1.8539
  1.8626   1.8653   1.8668   1.8746   1.8835   1.8880   1.8955   1.9037
  1.9091   1.9162   1.9198   1.9259   1.9289   1.9346   1.9405   1.9425
  1.9536   1.9574   1.9660   1.9704   1.9743   1.9878   1.9912   1.9936
  1.9976   2.0127   2.0157   2.0209   2.0343   2.0375   2.0400   2.0452
  2.0512   2.0588   2.0663   2.0773   2.0894   2.0963   2.1074   2.1092
  2.1178   2.1310   2.1328   2.1361   2.1452   2.1574   2.1704   2.1817
  2.1825   2.1956   2.1993   2.2107   2.2178   2.2277   2.2395   2.2502
  2.2576   2.2622   2.2677   2.2794   2.2847   2.2855   2.2935   2.3006
  2.3039   2.3139   2.3189   2.3217   2.3309   2.3395   2.3479   2.3589
  2.3632   2.3656   2.3746   2.3823   2.3898   2.4016   2.4046   2.4165
  2.4252   2.4322   2.4378   2.4444   2.4504   2.4648   2.4700   2.4758
  2.4920   2.5007   2.5093   2.5145   2.5219   2.5287   2.5342   2.5413
  2.5459   2.5555   2.5653   2.5691   2.5801   2.5883   2.5911   2.6014
  2.6182   2.6192   2.6356   2.6418   2.6438   2.6514   2.6777   2.6826
  2.7015   2.7495   2.7673   2.7830   2.8497   2.9168   2.9262   2.9525
  2.9835   2.9848   2.9940   2.9976   3.0042   3.0082   3.0214   3.0290
  3.0392   3.0452   3.0523   3.0559   3.0600   3.0690   3.0759   3.0819
  3.0858   3.0867   3.0899   3.0913   3.1135   3.1164   3.1281   3.1380
  3.1461   3.1487   3.1576   3.1584   3.1699   3.1762   3.1928   3.1966
  3.2091   3.2200   3.2260   3.2417   3.2744   3.3167   3.5328   3.6001
  3.6403   3.6925   3.7224   3.7602   4.5107
 --------------------------------------------------------------
 
          Ground-State Mulliken Net Atomic Charges

     Atom                 Charge (a.u.)
  ----------------------------------------
      1 O                    -0.834873
      2 O                    -0.835052
      3 C                     1.556021
      4 C                    -2.205061
      5 C                    -0.133795
      6 C                     0.287595
      7 H                     0.023901
      8 H                     0.135891
      9 H                     0.329409
     10 C                     0.397105
     11 H                     0.101301
     12 H                     0.180331
     13 H                     0.191921
     14 C                     0.144744
     15 H                     0.251566
     16 H                    -0.042847
     17 H                     0.231536
     18 H                    -0.059803
     19 H                     0.115274
     20 O                    -0.943935
     21 O                    -0.905555
     22 C                    -1.356976
     23 C                     0.280530
     24 C                     0.155785
     25 C                     0.366735
     26 C                     2.011789
     27 C                    -2.713875
     28 C                    -0.276583
     29 H                    -0.056507
     30 H                     0.103828
     31 H                     0.155931
     32 H                     0.071250
     33 H                     0.243818
     34 H                     0.196147
     35 H                    -0.021239
     36 H                     0.215558
     37 C                     0.327027
     38 H                     0.226174
     39 H                     0.296536
     40 H                     0.040279
     41 C                     0.401684
     42 H                     0.071556
     43 H                     0.203088
     44 H                     0.180734
     45 C                     0.092275
     46 H                     0.183374
     47 H                     0.193215
     48 H                     0.174646
     49 H                     0.227329
     50 H                     0.020219
  ----------------------------------------
  Sum of atomic charges =     0.000000

  Building new vdw surfaces
         Merz-Kollman RESP Net Atomic Charges

     Atom                 Charge (a.u.)
  ----------------------------------------
      1 O                    -0.227481
      2 O                    -0.474773
      3 C                     0.438547
      4 C                     0.433931
      5 C                    -0.001935
      6 C                    -0.662403
      7 H                     0.184638
      8 H                     0.184638
      9 H                     0.184638
     10 C                    -0.758183
     11 H                     0.205456
     12 H                     0.205456
     13 H                     0.205456
     14 C                    -0.472847
     15 H                     0.053990
     16 H                     0.053990
     17 H                     0.130762
     18 H                     0.130762
     19 H                     0.130762
     20 O                    -0.279519
     21 O                    -0.183895
     22 C                     0.793521
     23 C                    -0.758283
     24 C                    -0.599266
     25 C                    -0.673203
     26 C                     0.130806
     27 C                     0.498526
     28 C                     0.052248
     29 H                     0.213729
     30 H                     0.213729
     31 H                     0.159665
     32 H                     0.159665
     33 H                     0.159665
     34 H                     0.173813
     35 H                     0.173813
     36 H                     0.173813
     37 C                    -0.553422
     38 H                     0.142477
     39 H                     0.142477
     40 H                     0.142477
     41 C                    -0.607357
     42 H                     0.148151
     43 H                     0.148151
     44 H                     0.148151
     45 C                    -0.529773
     46 H                     0.033516
     47 H                     0.033516
     48 H                     0.132469
     49 H                     0.132469
     50 H                     0.132469
  ----------------------------------------
  Sum of atomic charges =     0.000000

  Related Dipole Moment =     3.4654 (X -2.0161 Y  2.6552 Z -0.9456)

 -----------------------------------------------------------------
                    Cartesian Multipole Moments
 -----------------------------------------------------------------
    Charge (ESU x 10^10)
                 0.0000
    Dipole Moment (Debye)
         X      -2.0045      Y       2.6156      Z      -0.8818
       Tot       3.4113
    Quadrupole Moments (Debye-Ang)
        XX    -147.7119     XY      -2.6928     YY    -110.1280
        XZ      -0.7943     YZ       2.6250     ZZ    -131.7734
    Octopole Moments (Debye-Ang^2)
       XXX      78.0585    XXY      -3.2031    XYY      44.9814
       YYY     -15.1276    XXZ     -45.3352    XYZ      -3.1259
       YYZ     -19.2821    XZZ      31.7190    YZZ      -1.9015
       ZZZ     -85.6992
    Hexadecapole Moments (Debye-Ang^3)
      XXXX   -3825.7088   XXXY    -571.0042   XXYY   -1379.2572
      XYYY    -477.6094   YYYY   -4559.1648   XXXZ     -25.7630
      XXYZ     -17.7803   XYYZ      22.5604   YYYZ    -116.0638
      XXZZ    -854.0464   XYZZ    -172.8250   YYZZ   -1034.6263
      XZZZ      29.4677   YZZZ    -123.7511   ZZZZ   -1450.7272
 -----------------------------------------------------------------
 Calculating analytic gradient of the SCF energy
 Gradient of SCF Energy
            1           2           3           4           5           6
    1  -0.1819035   0.1845426  -0.1467983  -0.0005313   0.0166166  -0.0027802
    2  -0.1455982  -0.0508462   0.0289406  -0.0215724   0.0023548   0.0155514
    3  -0.2579161  -0.0176033   0.0081954   0.0167146   0.0095027  -0.0143578
            7           8           9          10          11          12
    1  -0.0183202  -0.0058527  -0.0201258   0.0205961   0.0440856  -0.0313219
    2  -0.0277031   0.0549972  -0.0128844   0.0140538   0.0151267   0.0370155
    3  -0.0323989  -0.0127672   0.0474673  -0.0000944  -0.0050499   0.0069119
           13          14          15          16          17          18
    1  -0.0155946  -0.0068799  -0.0207636   0.0464040   0.0365925  -0.0426078
    2  -0.0305550  -0.0001978   0.0455317  -0.0022960  -0.0335075  -0.0220625
    3   0.0368143  -0.0003138  -0.0132322   0.0006263  -0.0043649   0.0019742
           19          20          21          22          23          24
    1  -0.0061588  -0.0900511   0.1955058   0.0843469  -0.0222571  -0.0082488
    2   0.0327320  -0.0277700   0.1309602  -0.0260254  -0.0133081  -0.0002544
    3  -0.0378513   0.0319823   0.2553399   0.0001548   0.0102425   0.0158574
           25          26          27          28          29          30
    1   0.0246104  -0.0014975   0.0004470   0.0050950  -0.0196579  -0.0309081
    2  -0.0100638   0.0539725  -0.0105993   0.0220552  -0.0421327   0.0356114
    3   0.0030457   0.0012292  -0.0173557   0.0145256  -0.0056586   0.0095397
           31          32          33          34          35          36
    1   0.0464227  -0.0420852   0.0006900  -0.0238109   0.0334720  -0.0307703
    2  -0.0022838   0.0071566   0.0389230   0.0439932   0.0125626  -0.0329136
    3   0.0217163   0.0306297  -0.0378443  -0.0151082  -0.0173232  -0.0291205
           37          38          39          40          41          42
    1   0.0080189  -0.0286417  -0.0219908   0.0120420   0.0096728   0.0081919
    2  -0.0110929   0.0149169  -0.0043988  -0.0421209  -0.0217198  -0.0392236
    3  -0.0108714  -0.0300155   0.0436366  -0.0055732   0.0033803   0.0120355
           43          44          45          46          47          48
    1   0.0355438  -0.0379545  -0.0218151   0.0370437   0.0213603   0.0424711
    2   0.0267569   0.0230995   0.0067915   0.0251833  -0.0416094   0.0069159
    3   0.0041220   0.0201827  -0.0084577   0.0075235   0.0052765  -0.0213072
           49          50
    1  -0.0040352  -0.0304092
    2  -0.0497960   0.0273332
    3  -0.0127616  -0.0112798
 Max gradient component =       2.579E-01
 RMS gradient           =       5.158E-02
 Computing fast CPCM-SWIG gradient
 Updating gradient with PCM contributions...
 -- total gradient after adding PCM contribution --
---------------------------------------------------
  Atom         X              Y              Z     
---------------------------------------------------
   1      -0.186254      -0.146094      -0.261982
   2       0.186425      -0.050793      -0.018542
   3      -0.147784       0.028720       0.010460
   4      -0.004133      -0.014772       0.017984
   5       0.015558       0.004439       0.008791
   6      -0.003452       0.016777      -0.015372
   7      -0.017050      -0.027090      -0.028858
   8      -0.005013       0.050614      -0.012355
   9      -0.018760      -0.013671       0.044636
  10       0.019380       0.014456       0.000358
  11       0.043166       0.014654      -0.005191
  12      -0.029392       0.033618       0.006303
  13      -0.014931      -0.029929       0.035235
  14      -0.008632       0.000782      -0.000565
  15      -0.019890       0.042609      -0.012302
  16       0.046688      -0.002495       0.000337
  17       0.037681      -0.034367      -0.004153
  18      -0.041635      -0.021520       0.001995
  19      -0.006059       0.031447      -0.036885
  20      -0.089475      -0.026744       0.030168
  21       0.198097       0.133791       0.257455
  22       0.085126      -0.023870      -0.001303
  23      -0.021156      -0.011962       0.010681
  24      -0.008438       0.001074       0.016539
  25       0.024619      -0.009593       0.002042
  26      -0.001962       0.052153       0.002857
  27      -0.002047      -0.012069      -0.018856
  28       0.003535       0.019944       0.013469
  29      -0.020258      -0.043944      -0.005810
  30      -0.031699       0.036056       0.009537
  31       0.045758      -0.002055       0.020600
  32      -0.041362       0.006926       0.029946
  33       0.001452       0.036592      -0.036552
  34      -0.022925       0.042092      -0.014107
  35       0.032347       0.012312      -0.016384
  36      -0.030707      -0.032283      -0.028405
  37       0.008282      -0.011975      -0.011332
  38      -0.028827       0.014963      -0.030024
  39      -0.022508      -0.004388       0.044016
  40       0.011646      -0.041350      -0.005446
  41       0.009029      -0.022888       0.002830
  42       0.008465      -0.039261       0.012320
  43       0.038111       0.028194       0.004814
  44      -0.039298       0.023740       0.021381
  45      -0.021865       0.006375      -0.008447
  46       0.040021       0.027445       0.008483
  47       0.021822      -0.041957       0.005574
  48       0.043202       0.007293      -0.021501
  49      -0.004060      -0.049597      -0.012925
  50      -0.030839       0.027603      -0.011516
---------------------------------------------------
 Number of fixed atoms: 0
 Gradient time:  CPU 533.21 s  wall 53.49 s

 *****************************************************
             Starting BFGS Algorithm
 *****************************************************
            LIBOPT3 RUN PARAMETERS

  Geometry Optimization Coordinates :
	Internal Coordinates

  Step Length Selection Method :
	Eigenvector Following Algorithm

  Convergence Criteria :
	Max Gradient Component    	3.00000000e-04
	Max Displacement Component	1.20000000e-03
	Absolute Energy Difference	1.00000000e-06

  Initial Hessian :
	Approximate Hessian - Simple Internal Coordinate Scaled

  Type of Verification :
	Verify with final updated Hessian
 *****************************************************

	OPTIMIZATION CYCLE:	1

 Scaling Magnitude of Eigenvalues
 	Minimum: -25.00000000	 Maximum: 25.00000000
 257 Hessian Eigenvalues to form next step
   0.10000000   0.10000000   0.10000000   0.10000000   0.10000000
   0.10000000   0.10000000   0.10000000   0.10000000   0.10000000
   0.10000000   0.10000000   0.10000000   0.10000000   0.10000000
   0.10000000   0.10000000   0.10000000   0.10000000   0.10000000
   0.10000000   0.10000000   0.10000000   0.10000000   0.10000000
   0.10000000   0.10000000   0.10000000   0.10000000   0.10000000
   0.10000000   0.10000000   0.10000000   0.10000000   0.10000000
   0.10000000   0.10000000   0.10000000   0.10000000   0.10000000
   0.10000000   0.10000000   0.10000000   0.10000000   0.10000000
   0.10000000   0.10000000   0.10000000   0.10000000   0.10000000
   0.10000000   0.10000000   0.10000000   0.10000000   0.10000000
   0.10000000   0.10000000   0.10000000   0.10000000   0.10000000
   0.10000000   0.10000000   0.10000000   0.10000000   0.10000000
   0.10000000   0.10000000   0.10000000   0.10000000   0.10000000
   0.10000000   0.10000000   0.10000000   0.10000000   0.10000000
   0.10000000   0.10000000   0.10000000   0.10000000   0.10000000
   0.10000000   0.10000000   0.10000000   0.10000000   0.10000000
   0.10000000   0.10000000   0.10000000   0.10000000   0.10000000
   0.10000000   0.10000000   0.10000000   0.10000000   0.10000000
   0.10000000   0.10000000   0.10000000   0.10000000   0.10000000
   0.10000000   0.10000000   0.10000000   0.10000000   0.10000000
   0.10000000   0.10000000   0.10000000   0.10000000   0.10000000
   0.10000000   0.10000000   0.10000000   0.10000000   0.10000000
   0.10000000   0.10000000   0.10000000   0.20000000   0.20000000
   0.20000000   0.20000000   0.20000000   0.20000000   0.20000000
   0.20000000   0.20000000   0.20000000   0.20000000   0.20000000
   0.20000000   0.20000000   0.20000000   0.20000000   0.20000000
   0.20000000   0.20000000   0.20000000   0.20000000   0.20000000
   0.20000000   0.20000000   0.20000000   0.20000000   0.20000000
   0.20000000   0.20000000   0.20000000   0.20000000   0.20000000
   0.20000000   0.20000000   0.20000000   0.20000000   0.20000000
   0.20000000   0.20000000   0.20000000   0.20000000   0.20000000
   0.20000000   0.20000000   0.20000000   0.20000000   0.20000000
   0.20000000   0.20000000   0.20000000   0.20000000   0.20000000
   0.20000000   0.20000000   0.20000000   0.20000000   0.20000000
   0.20000000   0.20000000   0.20000000   0.20000000   0.20000000
   0.20000000   0.20000000   0.20000000   0.20000000   0.20000000
   0.20000000   0.20000000   0.20000000   0.20000000   0.20000000
   0.20000000   0.20000000   0.20000000   0.20000000   0.20000000
   0.20000000   0.20000000   0.20000000   0.20000000   0.20000000
   0.20000000   0.20000000   0.20000000   0.20000000   0.20000000
   0.20000000   0.20000000   0.20000000   0.50000000   0.50000000
   0.50000000   0.50000000   0.50000000   0.50000000   0.50000000
   0.50000000   0.50000000   0.50000000   0.50000000   0.50000000
   0.50000000   0.50000000   0.50000000   0.50000000   0.50000000
   0.50000000   0.50000000   0.50000000   0.50000000   0.50000000
   0.50000000   0.50000000   0.50000000   0.50000000   0.50000000
   0.50000000   0.50000000   0.50000000   0.50000000   0.50000000
   0.50000000   0.50000000   0.50000000   0.50000000   0.50000000
   0.50000000   0.50000000   0.50000000   0.50000000   0.50000000
   0.50000000   0.50000000   0.50000000   0.50000000   0.50000000
   0.50000000   0.50000000

 Minimum Search taking a RFO step
 Searching for Lambda that minimizes along all modes
	Value of Lambda   -0.33277959
	Norm  of Stepsize  0.63907787
	RMS   of Stepsize  0.03986458

	Performing Iterative Coordinate Back-Transformation

	  Starting from Previous Position

	  iter:	0	rms: 1.5461911116e-01	maxdev: 4.3520885514e-01
	  iter:	1	rms: 4.9255301373e-03	maxdev: 1.9233282420e-02
	  iter:	2	rms: 9.8149780212e-06	maxdev: 3.2628784032e-05
	  iter:	3	rms: 1.8948309629e-09	maxdev: 1.0642799833e-08	 Success!

	Finished Iterative Coordinate Back-Transformation
 ----------------------------------------------------------------
             Standard Nuclear Orientation (Angstroms)
    I     Atom           X                Y                Z
 ----------------------------------------------------------------
    1      O       0.5832739709     0.4005789129     1.2833163973
    2      O       2.8526140874     0.9675003637     0.9362077186
    3      C       1.5498605020     1.4144003979     0.9872146485
    4      C       1.3157145809     2.9708053709     0.7692765656
    5      C       2.1315173653     3.3872553687    -0.5883629998
    6      C      -0.2047626416     3.4221633854     0.5437801955
    7      H      -0.7057970097     2.7504812439    -0.2345080724
    8      H      -0.2426590504     4.5326233242     0.2175755510
    9      H      -0.7666693249     3.2762253516     1.5478908943
   10      C       1.9005528478     3.8130919813     2.0435718571
   11      H       3.0120369666     4.0581216706     1.9320770264
   12      H       1.2660886767     4.7688765706     2.1137525574
   13      H       1.6700707572     3.2082374702     3.0023445898
   14      C       1.7153411893     2.4612971301    -1.8508257994
   15      H       1.7926862881     4.4671605926    -0.8346557588
   16      H       3.2688631107     3.3345401689    -0.4448754081
   17      H       2.5039707444     1.6174476834    -1.9671093555
   18      H       0.6750691992     1.9716118751    -1.7281536695
   19      H       1.6755641845     3.1031845064    -2.8116958806
   20      O      -2.2533174638    -1.2045945539     0.7730825598
   21      O      -0.0491832176    -0.0822985861     0.1440145979
   22      C      -3.0725027230    -0.1642992309     0.1650542423
   23      C      -4.6135408835    -0.6583984967     0.3193645402
   24      C      -2.9782600256     1.1890474341     1.0586066004
   25      C      -2.8481899116     0.0472036465    -1.4025113295
   26      C      -0.8841838110    -1.2076716302     0.4417680708
   27      C      -0.1408035939    -2.6530002535     0.4487023658
   28      C       1.1394502277    -2.6982019767    -0.5133900418
   29      H      -4.9337558566    -1.7399782187     0.1265809298
   30      H      -5.3875683590     0.1098787450     0.6633001104
   31      H      -1.9525180347     1.2091273755     1.5929042820
   32      H      -3.8564276078     1.2523003488     1.8083113044
   33      H      -3.0327723614     2.0924234066     0.3310150158
   34      H      -3.4401383869     1.0051540085    -1.6910180884
   35      H      -1.7605449196     0.2353022112    -1.7079589287
   36      H      -3.3532207092    -0.8028576244    -2.0111926859
   37      C      -1.2113282951    -3.8251030910     0.2095537661
   38      H      -1.9603983029    -3.5348838413    -0.6103365994
   39      H      -1.8018685420    -3.9552418946     1.2008025841
   40      H      -0.7207540503    -4.8339573237    -0.0168953448
   41      C       0.4041973569    -2.8283450312     1.9897278033
   42      H       0.6468263259    -3.9193601707     2.2354315836
   43      H       1.3315839304    -2.1559182100     2.1429483481
   44      H      -0.4448155505    -2.4251904638     2.6721130010
   45      C       0.7642428591    -2.7731401225    -2.0980972928
   46      H       1.9229579168    -1.8779431284    -0.2859219571
   47      H       1.6807353541    -3.7016926502    -0.2828354595
   48      H       1.7182638856    -2.4891096856    -2.6933624748
   49      H       0.5415603164    -3.8736493892    -2.3953001693
   50      H      -0.0975036901    -2.0717994551    -2.3795116043
 ----------------------------------------------------------------
 Nuclear Repulsion Energy =        1746.62730089 hartrees
 There are       79 alpha and       79 beta electrons
 Discretize the solute cavity surface with Lebedev spheres
	Using 194 Lebedev grid points for each H atom
	Using 194 Lebedev grid points for other atoms
	Atomic van der Waals radii (UFF set) will be scaled by 1.10
 Using smooth SwiG surface discretization
 Remove points where switching function is < 1.0e-08
 Keep 3660 surface tesserae and discard 6040 interior tesserae
 Molecular Surface Area = 428.855 Angst**2

 Applying Cartesian multipole field
    Component          Value
    ---------          -----
     (2,0,0)        1.00000E-12
     (0,2,0)        2.00000E-11
     (0,0,2)       -3.00000E-11
 Nucleus-field energy     = 4.0547893736e-08 hartrees
 Requested basis set is def2-SVPD
 There are 284 shells and 652 basis functions
 A cutoff of  1.0D-16 yielded  36531 shell pairs
 There are    192519 function pairs (    217063 Cartesian)
 Smallest overlap matrix eigenvalue = 3.33E-06
 Guess MOs from SCF MO coefficient file

 -----------------------------------------------------------------------
  General SCF calculation program by
  Eric Jon Sundstrom, Paul Horn, Yuezhi Mao, Dmitri Zuev, Alec White,
  David Stuck, Shaama M.S., Shane Yost, Joonho Lee, David Small,
  Daniel Levine, Susi Lehtola, Hugh Burton, Evgeny Epifanovsky,
  Bang C. Huynh
 -----------------------------------------------------------------------
 Exchange:  B97M-V      Correlation:  B97M-V
 Using SG-3 standard quadrature grid
 Nonlocal Correlation:  VV10 with C = 0.0100 and b = 6.00 and scale = 1.00000
 Grid used for NLC:  SG-1 standard quadrature
 A restricted SCF calculation will be
 performed using Roothaan-Hall, DIIS
 SCF converges when DIIS error is below 1.0e-08
 ---------------------------------------
  Cycle       Energy         DIIS error
 ---------------------------------------
    1    -927.3694653268      1.59e-03  Roothaan Step
 ---------------------------------------
  Cycle       Energy         DIIS error
 ---------------------------------------
    1    -927.2918480470      1.31e-03  
    2    -926.1175132722      4.57e-03  
    3    -927.1399250685      2.02e-03  
    4    -927.2934118663      1.44e-03  
    5    -927.2970470630      1.36e-03  
    6    -927.3840688106      9.95e-04  
    7    -927.2697538250      1.43e-03  
    8    -927.2661171663      1.41e-03  
    9    -927.2810227137      1.39e-03  
   10    -927.2862243815      1.37e-03  
   11    -927.2820826911      1.38e-03  
   12    -927.2792323313      1.39e-03  
   13    -927.2774410031      1.39e-03  
   14    -927.2802810365      1.38e-03  
   15    -927.2798542549      1.38e-03  
   16    -927.2802485070      1.38e-03  
   17    -927.2883526309      1.36e-03  
   18    -927.4385978018      7.36e-04  
   19    -927.3885971567      9.98e-04  
   20    -927.4764760868      2.84e-04  
   21    -927.4811440514      1.33e-04  
   22    -927.4822390785      5.04e-05  
   23    -927.4824355200      1.09e-05  
   24    -927.4824435027      1.79e-06  
   25    -927.4824431368      2.66e-06  
   26    -927.4824436410      8.53e-07  
   27    -927.4824436105      1.04e-06  
   28    -927.4824436968      2.32e-07  
   29    -927.4824437002      1.06e-07  
   30    -927.4824437010      4.41e-08  
   31    -927.4824437012      3.93e-09  Convergence criterion met
 ---------------------------------------
 SCF time:   CPU 13452.89s  wall 718.00s 

************** Final PCM Free Energy Summary **************
 G_electrostatic  =      -0.00674599 hartree =      -4.23317118 kcal/mol
 G_cavitation     =       0.00000000 hartree =       0.00000000 kcal/mol
 G_dispersion     =       0.00000000 hartree =       0.00000000 kcal/mol
 G_repulsion      =       0.00000000 hartree =       0.00000000 kcal/mol
 --------------------------------------------------
 Non-electrostatic Free Energy =       0.00000000 hartree =       0.00000000 kcal/mol
 Total                         =      -0.00674599 hartree =      -4.23317118 kcal/mol
 --------------------------------------------------
 SCF Energy (H0 + V/2)                       =    -927.48244370 
 Solute Internal Energy (H0)                 =    -927.47569771 
 Total Free Energy (H0 + V/2 + non-elec)     =    -927.48244370 hartree
                                             = -582004.01760870 kcal/mol
***********************************************************

 SCF   energy in the final basis set =     -927.4824437012
 Total energy in the final basis set =     -927.4824437012
 
 --------------------------------------------------------------
 
                    Orbital Energies (a.u.)
 --------------------------------------------------------------
 
 Alpha MOs
 -- Occupied --
-19.2552 -19.2403 -19.2384 -19.1689 -10.3518 -10.3384 -10.3022 -10.2577
-10.2561 -10.2234 -10.2186 -10.2181 -10.2155 -10.2154 -10.2148 -10.2120
-10.2085 -10.2081 -10.2045 -10.2042  -1.1490  -1.0602  -0.9694  -0.9023
 -0.7772  -0.7743  -0.7533  -0.6890  -0.6860  -0.6596  -0.6476  -0.6439
 -0.6408  -0.6218  -0.6059  -0.5871  -0.5838  -0.5588  -0.5302  -0.5149
 -0.4789  -0.4601  -0.4510  -0.4364  -0.4323  -0.4202  -0.4156  -0.4094
 -0.4035  -0.3984  -0.3968  -0.3920  -0.3875  -0.3825  -0.3782  -0.3708
 -0.3639  -0.3628  -0.3622  -0.3512  -0.3498  -0.3456  -0.3429  -0.3405
 -0.3377  -0.3301  -0.3264  -0.3225  -0.3155  -0.3139  -0.3057  -0.3035
 -0.3011  -0.2954  -0.2890  -0.2872  -0.2545  -0.2344  -0.1594
 -- Virtual --
 -0.1536  -0.1081  -0.0162   0.0003   0.0056   0.0080   0.0194   0.0241
  0.0281   0.0296   0.0351   0.0367   0.0404   0.0463   0.0486   0.0499
  0.0532   0.0560   0.0637   0.0659   0.0716   0.0725   0.0740   0.0749
  0.0763   0.0807   0.0867   0.0904   0.0938   0.0949   0.0975   0.1016
  0.1047   0.1071   0.1094   0.1127   0.1176   0.1200   0.1217   0.1260
  0.1310   0.1345   0.1385   0.1396   0.1427   0.1489   0.1499   0.1527
  0.1571   0.1609   0.1640   0.1663   0.1698   0.1740   0.1767   0.1779
  0.1798   0.1830   0.1888   0.1890   0.1929   0.1976   0.2008   0.2019
  0.2094   0.2102   0.2117   0.2181   0.2204   0.2234   0.2262   0.2282
  0.2310   0.2376   0.2412   0.2452   0.2481   0.2512   0.2540   0.2562
  0.2628   0.2646   0.2667   0.2694   0.2717   0.2802   0.2814   0.2849
  0.2892   0.2909   0.2967   0.2992   0.3026   0.3046   0.3064   0.3097
  0.3133   0.3148   0.3167   0.3188   0.3225   0.3260   0.3300   0.3333
  0.3358   0.3368   0.3379   0.3400   0.3429   0.3433   0.3476   0.3489
  0.3512   0.3540   0.3561   0.3598   0.3625   0.3639   0.3669   0.3714
  0.3726   0.3755   0.3772   0.3790   0.3815   0.3866   0.3873   0.3919
  0.3944   0.3971   0.4010   0.4035   0.4039   0.4062   0.4103   0.4142
  0.4150   0.4197   0.4220   0.4227   0.4284   0.4304   0.4357   0.4396
  0.4448   0.4457   0.4479   0.4494   0.4538   0.4566   0.4596   0.4613
  0.4632   0.4650   0.4674   0.4719   0.4749   0.4778   0.4794   0.4821
  0.4849   0.4858   0.4867   0.4920   0.4949   0.4974   0.5007   0.5056
  0.5085   0.5133   0.5141   0.5179   0.5189   0.5218   0.5257   0.5311
  0.5319   0.5348   0.5397   0.5410   0.5442   0.5471   0.5509   0.5557
  0.5572   0.5600   0.5623   0.5671   0.5685   0.5723   0.5763   0.5804
  0.5853   0.5865   0.5897   0.5927   0.5956   0.6015   0.6042   0.6062
  0.6104   0.6139   0.6158   0.6191   0.6255   0.6265   0.6303   0.6313
  0.6343   0.6401   0.6468   0.6480   0.6518   0.6562   0.6596   0.6706
  0.6758   0.6774   0.6825   0.6845   0.6895   0.6935   0.6965   0.6994
  0.7037   0.7047   0.7138   0.7161   0.7229   0.7281   0.7367   0.7420
  0.7456   0.7506   0.7528   0.7543   0.7615   0.7677   0.7710   0.7750
  0.7798   0.7868   0.7906   0.8000   0.8080   0.8101   0.8144   0.8165
  0.8222   0.8278   0.8298   0.8439   0.8472   0.8497   0.8521   0.8608
  0.8649   0.8725   0.8765   0.8852   0.8884   0.8976   0.9027   0.9051
  0.9085   0.9138   0.9203   0.9236   0.9278   0.9390   0.9445   0.9516
  0.9589   0.9601   0.9669   0.9731   0.9737   0.9821   0.9833   0.9915
  0.9949   0.9997   1.0040   1.0112   1.0206   1.0226   1.0300   1.0321
  1.0359   1.0402   1.0420   1.0474   1.0531   1.0593   1.0594   1.0661
  1.0680   1.0721   1.0759   1.0829   1.0860   1.0938   1.0947   1.1041
  1.1108   1.1163   1.1220   1.1288   1.1324   1.1507   1.1558   1.1641
  1.1900   1.2046   1.2058   1.2078   1.2212   1.2298   1.2372   1.2399
  1.2497   1.2564   1.2630   1.2685   1.2738   1.2860   1.2916   1.2986
  1.3022   1.3206   1.3220   1.3377   1.3515   1.3580   1.3614   1.3718
  1.3803   1.3847   1.3909   1.3945   1.4156   1.4262   1.4280   1.4341
  1.4453   1.4508   1.4624   1.4644   1.4779   1.4824   1.4977   1.5001
  1.5136   1.5180   1.5315   1.5352   1.5398   1.5555   1.5631   1.5644
  1.5810   1.5891   1.5939   1.6068   1.6138   1.6341   1.6393   1.6488
  1.6572   1.6605   1.6634   1.6688   1.6815   1.6850   1.6954   1.6978
  1.7040   1.7132   1.7175   1.7199   1.7276   1.7293   1.7344   1.7404
  1.7457   1.7529   1.7569   1.7642   1.7686   1.7712   1.7748   1.7833
  1.7905   1.8019   1.8045   1.8107   1.8188   1.8210   1.8262   1.8286
  1.8340   1.8433   1.8506   1.8543   1.8621   1.8723   1.8788   1.8847
  1.8852   1.8925   1.9026   1.9116   1.9146   1.9188   1.9226   1.9345
  1.9408   1.9430   1.9455   1.9556   1.9590   1.9694   1.9726   1.9824
  1.9880   1.9909   2.0002   2.0046   2.0120   2.0147   2.0173   2.0243
  2.0256   2.0304   2.0410   2.0444   2.0525   2.0562   2.0649   2.0682
  2.0827   2.0956   2.0996   2.1126   2.1150   2.1197   2.1310   2.1439
  2.1507   2.1551   2.1623   2.1670   2.1804   2.1817   2.1987   2.1996
  2.2104   2.2254   2.2309   2.2468   2.2521   2.2637   2.2793   2.2807
  2.2876   2.2980   2.3005   2.3053   2.3180   2.3237   2.3260   2.3375
  2.3439   2.3523   2.3599   2.3637   2.3722   2.3811   2.3871   2.3907
  2.3975   2.4099   2.4227   2.4257   2.4275   2.4344   2.4424   2.4520
  2.4727   2.4746   2.4813   2.4907   2.4947   2.5042   2.5172   2.5268
  2.5324   2.5367   2.5486   2.5619   2.5743   2.5776   2.5835   2.5956
  2.6110   2.6125   2.6215   2.6262   2.6311   2.6485   2.6512   2.6596
  2.6710   2.6789   2.6871   2.6934   2.7005   2.7226   2.7545   2.7613
  2.7825   2.8209   2.8356   2.8480   2.8773   2.9518   2.9744   2.9816
  2.9990   3.0101   3.0195   3.0369   3.0378   3.0499   3.0563   3.0623
  3.0736   3.0826   3.0886   3.0935   3.0977   3.1085   3.1169   3.1207
  3.1250   3.1292   3.1374   3.1506   3.1627   3.1673   3.1771   3.1901
  3.1912   3.1990   3.1997   3.2088   3.2178   3.2219   3.2293   3.2391
  3.2614   3.2724   3.2801   3.2876   3.3020   3.3323   3.3762   3.5663
  3.6579   3.7340   3.7775   3.7910   4.2543
 --------------------------------------------------------------
 
          Ground-State Mulliken Net Atomic Charges

     Atom                 Charge (a.u.)
  ----------------------------------------
      1 O                    -0.879928
      2 O                    -0.885501
      3 C                     1.753361
      4 C                    -2.686959
      5 C                    -0.021079
      6 C                     0.600063
      7 H                    -0.057279
      8 H                     0.119540
      9 H                     0.275591
     10 C                     0.644817
     11 H                     0.070988
     12 H                     0.134860
     13 H                     0.149985
     14 C                     0.390674
     15 H                     0.195527
     16 H                    -0.124697
     17 H                     0.219649
     18 H                    -0.148808
     19 H                     0.048367
     20 O                    -0.952757
     21 O                    -1.193202
     22 C                    -1.716541
     23 C                     0.427698
     24 C                     0.487488
     25 C                     0.648482
     26 C                     2.486764
     27 C                    -3.376722
     28 C                    -0.129265
     29 H                    -0.088497
     30 H                     0.060044
     31 H                     0.070715
     32 H                     0.059878
     33 H                     0.171550
     34 H                     0.133507
     35 H                    -0.096677
     36 H                     0.207260
     37 C                     0.605420
     38 H                     0.200694
     39 H                     0.268777
     40 H                     0.006606
     41 C                     0.670047
     42 H                     0.052942
     43 H                     0.169301
     44 H                     0.128896
     45 C                     0.342349
     46 H                     0.114282
     47 H                     0.154889
     48 H                     0.127800
     49 H                     0.210036
     50 H                    -0.050940
  ----------------------------------------
  Sum of atomic charges =     0.000000

  Building new vdw surfaces
         Merz-Kollman RESP Net Atomic Charges

     Atom                 Charge (a.u.)
  ----------------------------------------
      1 O                    -0.294372
      2 O                    -0.520256
      3 C                     0.525484
      4 C                     0.423122
      5 C                     0.031401
      6 C                    -0.654057
      7 H                     0.174857
      8 H                     0.174857
      9 H                     0.174857
     10 C                    -0.759487
     11 H                     0.198446
     12 H                     0.198446
     13 H                     0.198446
     14 C                    -0.472683
     15 H                     0.038797
     16 H                     0.038797
     17 H                     0.127048
     18 H                     0.127048
     19 H                     0.127048
     20 O                    -0.284168
     21 O                    -0.226506
     22 C                     0.780574
     23 C                    -0.694104
     24 C                    -0.539767
     25 C                    -0.709946
     26 C                     0.216445
     27 C                     0.473052
     28 C                     0.058166
     29 H                     0.210569
     30 H                     0.210569
     31 H                     0.144979
     32 H                     0.144979
     33 H                     0.144979
     34 H                     0.186838
     35 H                     0.186838
     36 H                     0.186838
     37 C                    -0.565417
     38 H                     0.145669
     39 H                     0.145669
     40 H                     0.145669
     41 C                    -0.643351
     42 H                     0.162153
     43 H                     0.162153
     44 H                     0.162153
     45 C                    -0.523568
     46 H                     0.034915
     47 H                     0.034915
     48 H                     0.130303
     49 H                     0.130303
     50 H                     0.130303
  ----------------------------------------
  Sum of atomic charges =     0.000000

  Related Dipole Moment =     4.2125 (X -3.7299 Y  1.3541 Z -1.4139)

 -----------------------------------------------------------------
                    Cartesian Multipole Moments
 -----------------------------------------------------------------
    Charge (ESU x 10^10)
                -0.0000
    Dipole Moment (Debye)
         X      -3.7380      Y       1.3156      Z      -1.3607
       Tot       4.1899
    Quadrupole Moments (Debye-Ang)
        XX    -139.3982     XY      -2.6378     YY    -112.4408
        XZ      -2.2526     YZ       1.4476     ZZ    -131.4347
    Octopole Moments (Debye-Ang^2)
       XXX      47.4556    XXY      -8.8045    XYY      41.3694
       YYY     -31.1548    XXZ     -45.8987    XYZ      -3.6580
       YYZ     -22.7980    XZZ      27.4396    YZZ      -6.9295
       ZZZ     -89.4980
    Hexadecapole Moments (Debye-Ang^3)
      XXXX   -3655.1314   XXXY    -610.1872   XXYY   -1352.1042
      XYYY    -534.0483   YYYY   -4444.8819   XXXZ     -53.5791
      XXYZ     -34.2940   XYYZ      14.7551   YYYZ    -150.8062
      XXZZ    -840.6169   XYZZ    -191.8533   YYZZ   -1002.3010
      XZZZ      11.3933   YZZZ    -154.4005   ZZZZ   -1401.2517
 -----------------------------------------------------------------
 Calculating analytic gradient of the SCF energy
 Gradient of SCF Energy
            1           2           3           4           5           6
    1  -0.0625436   0.1471775  -0.1250294   0.0007189   0.0200251  -0.0035452
    2  -0.0723276  -0.0494144   0.0460642  -0.0178878   0.0053776   0.0144544
    3  -0.0747302  -0.0061976  -0.0009297   0.0161479   0.0065099  -0.0137060
            7           8           9          10          11          12
    1  -0.0118428  -0.0016821  -0.0150228   0.0199227   0.0296832  -0.0231022
    2  -0.0207117   0.0393252  -0.0071124   0.0138590   0.0093009   0.0251887
    3  -0.0210684  -0.0115493   0.0339609   0.0035453  -0.0049684   0.0028893
           13          14          15          16          17          18
    1  -0.0127617  -0.0067260  -0.0159032   0.0312078   0.0253566  -0.0304889
    2  -0.0195510  -0.0019050   0.0315614  -0.0033376  -0.0246604  -0.0148109
    3   0.0266544  -0.0028078  -0.0118144   0.0010574  -0.0009781   0.0020058
           19          20          21          22          23          24
    1  -0.0033915  -0.0819962   0.0965683   0.0834262  -0.0252091  -0.0095880
    2   0.0222986  -0.0178872   0.0709994  -0.0242676  -0.0122086   0.0008297
    3  -0.0279738   0.0213153   0.0699910  -0.0016022   0.0092836   0.0146576
           25          26          27          28          29          30
    1   0.0206274  -0.0193735   0.0060985   0.0061210  -0.0128202  -0.0248275
    2  -0.0070691   0.0250824  -0.0098739   0.0203990  -0.0329307   0.0259623
    3  -0.0002775   0.0108438  -0.0193346   0.0161003  -0.0038275   0.0079620
           31          32          33          34          35          36
    1   0.0343534  -0.0325818  -0.0017742  -0.0210035   0.0237154  -0.0243271
    2  -0.0012935   0.0031689   0.0294590   0.0331291   0.0116488  -0.0256680
    3   0.0157881   0.0230584  -0.0277848  -0.0115241  -0.0128977  -0.0221326
           37          38          39          40          41          42
    1   0.0049821  -0.0221308  -0.0160806   0.0102347   0.0090823   0.0064606
    2  -0.0112378   0.0113642  -0.0042157  -0.0303808  -0.0190343  -0.0281612
    3  -0.0095064  -0.0212070   0.0334109  -0.0036905   0.0046916   0.0081299
           43          44          45          46          47          48
    1   0.0242818  -0.0278044  -0.0203609   0.0274024   0.0162424   0.0312494
    2   0.0200996   0.0171633   0.0049649   0.0176981  -0.0307182   0.0056198
    3   0.0026258   0.0152322  -0.0102702   0.0048549   0.0029056  -0.0161016
           49          50
    1  -0.0007145  -0.0223061
    2  -0.0375695   0.0192161
    3  -0.0097772  -0.0069642
 Max gradient component =       1.472E-01
 RMS gradient           =       3.013E-02
 Computing fast CPCM-SWIG gradient
 Updating gradient with PCM contributions...
 -- total gradient after adding PCM contribution --
---------------------------------------------------
  Atom         X              Y              Z     
---------------------------------------------------
   1      -0.067403      -0.073493      -0.080674
   2       0.149386      -0.049641      -0.007792
   3      -0.125099       0.046468       0.003659
   4      -0.002417      -0.011669       0.014939
   5       0.018006       0.006437       0.006654
   6      -0.003703       0.014377      -0.014629
   7      -0.011019      -0.020058      -0.018794
   8      -0.001280       0.036402      -0.011197
   9      -0.014024      -0.007618       0.032481
  10       0.019118       0.013822       0.003817
  11       0.030407       0.009414      -0.004929
  12      -0.022090       0.023598       0.002737
  13      -0.012598      -0.019912       0.026784
  14      -0.007715      -0.001179      -0.003149
  15      -0.015328       0.030282      -0.011227
  16       0.033154      -0.003353       0.000791
  17       0.027414      -0.026026      -0.000739
  18      -0.031048      -0.014778       0.002012
  19      -0.003523       0.021888      -0.028003
  20      -0.081442      -0.018070       0.020398
  21       0.098263       0.073406       0.072345
  22       0.081960      -0.020443      -0.004858
  23      -0.025645      -0.011664       0.009822
  24      -0.010014       0.001101       0.015271
  25       0.020509      -0.007181      -0.000572
  26      -0.019230       0.023520       0.012937
  27       0.000716      -0.013399      -0.021363
  28       0.004854       0.018281       0.014835
  29      -0.012606      -0.032280      -0.003784
  30      -0.023864       0.025044       0.007409
  31       0.033534      -0.000989       0.014595
  32      -0.031021       0.002966       0.021815
  33      -0.001069       0.026872      -0.026356
  34      -0.019307       0.030639      -0.010106
  35       0.021812       0.011168      -0.011792
  36      -0.023409      -0.024097      -0.020621
  37       0.005087      -0.011412      -0.010202
  38      -0.021443       0.011179      -0.020363
  39      -0.015986      -0.003945       0.033068
  40       0.009549      -0.028908      -0.003562
  41       0.008130      -0.020112       0.004443
  42       0.006774      -0.027945       0.008409
  43       0.027323       0.021788       0.003406
  44      -0.028972       0.017611       0.016335
  45      -0.020572       0.004683      -0.010339
  46       0.030367       0.019975       0.005814
  47       0.016737      -0.030886       0.003255
  48       0.031820       0.005934      -0.016163
  49      -0.000682      -0.037006      -0.009887
  50      -0.022410       0.019210      -0.006931
---------------------------------------------------
 Number of fixed atoms: 0
 Gradient time:  CPU 535.22 s  wall 52.52 s

     Step 1	:
        Energy is -927.4824437012
                            Maximum         Tolerance       Converged?
         Gradient           1.57593178e-01	3.00000000e-04	false
         Displacement       3.93097148e-01	1.20000000e-03	false
         Energy change      2.55420892e-01	1.00000000e-06	false


	OPTIMIZATION CYCLE:	2

 Scaling Magnitude of Eigenvalues
 	Minimum: -25.00000000	 Maximum: 25.00000000
 257 Hessian Eigenvalues to form next step
   0.09800033   0.10000000   0.10000000   0.10000000   0.10000000
   0.10000000   0.10000000   0.10000000   0.10000000   0.10000000
   0.10000000   0.10000000   0.10000000   0.10000000   0.10000000
   0.10000000   0.10000000   0.10000000   0.10000000   0.10000000
   0.10000000   0.10000000   0.10000000   0.10000000   0.10000000
   0.10000000   0.10000000   0.10000000   0.10000000   0.10000000
   0.10000000   0.10000000   0.10000000   0.10000000   0.10000000
   0.10000000   0.10000000   0.10000000   0.10000000   0.10000000
   0.10000000   0.10000000   0.10000000   0.10000000   0.10000000
   0.10000000   0.10000000   0.10000000   0.10000000   0.10000000
   0.10000000   0.10000000   0.10000000   0.10000000   0.10000000
   0.10000000   0.10000000   0.10000000   0.10000000   0.10000000
   0.10000000   0.10000000   0.10000000   0.10000000   0.10000000
   0.10000000   0.10000000   0.10000000   0.10000000   0.10000000
   0.10000000   0.10000000   0.10000000   0.10000000   0.10000000
   0.10000000   0.10000000   0.10000000   0.10000000   0.10000000
   0.10000000   0.10000000   0.10000000   0.10000000   0.10000000
   0.10000000   0.10000000   0.10000000   0.10000000   0.10000000
   0.10000000   0.10000000   0.10000000   0.10000000   0.10000000
   0.10000000   0.10000000   0.10000000   0.10000000   0.10000000
   0.10000000   0.10000000   0.10000000   0.10000000   0.10000000
   0.10000000   0.10000000   0.10000000   0.10000000   0.10000000
   0.10000000   0.10000000   0.10000000   0.10000000   0.10000000
   0.10000000   0.10000000   0.10138801   0.17014363   0.20000000
   0.20000000   0.20000000   0.20000000   0.20000000   0.20000000
   0.20000000   0.20000000   0.20000000   0.20000000   0.20000000
   0.20000000   0.20000000   0.20000000   0.20000000   0.20000000
   0.20000000   0.20000000   0.20000000   0.20000000   0.20000000
   0.20000000   0.20000000   0.20000000   0.20000000   0.20000000
   0.20000000   0.20000000   0.20000000   0.20000000   0.20000000
   0.20000000   0.20000000   0.20000000   0.20000000   0.20000000
   0.20000000   0.20000000   0.20000000   0.20000000   0.20000000
   0.20000000   0.20000000   0.20000000   0.20000000   0.20000000
   0.20000000   0.20000000   0.20000000   0.20000000   0.20000000
   0.20000000   0.20000000   0.20000000   0.20000000   0.20000000
   0.20000000   0.20000000   0.20000000   0.20000000   0.20000000
   0.20000000   0.20000000   0.20000000   0.20000000   0.20000000
   0.20000000   0.20000000   0.20000000   0.20000000   0.20000000
   0.20000000   0.20000000   0.20000000   0.20000000   0.20000000
   0.20000000   0.20000000   0.20000000   0.20000000   0.20000000
   0.20000000   0.20000000   0.20000000   0.20000000   0.20000000
   0.20000000   0.20000000   0.20230042   0.26762925   0.50000000
   0.50000000   0.50000000   0.50000000   0.50000000   0.50000000
   0.50000000   0.50000000   0.50000000   0.50000000   0.50000000
   0.50000000   0.50000000   0.50000000   0.50000000   0.50000000
   0.50000000   0.50000000   0.50000000   0.50000000   0.50000000
   0.50000000   0.50000000   0.50000000   0.50000000   0.50000000
   0.50000000   0.50000000   0.50000000   0.50000000   0.50000000
   0.50000000   0.50000000   0.50000000   0.50000000   0.50000000
   0.50000000   0.50000000   0.50000000   0.50000000   0.50000000
   0.50000000   0.50000000   0.50000000   0.50000000   0.50000000
   0.50000000   0.74561042

 Minimum Search taking a RFO step
 Searching for Lambda that minimizes along all modes
	Value of Lambda   -0.25315231
	Norm  of Stepsize  0.74773329
	RMS   of Stepsize  0.04664232

	Performing Iterative Coordinate Back-Transformation

	  Starting from Previous Position

	  iter:	0	rms: 3.0781035026e-01	maxdev: 8.3857157204e-01
	  iter:	1	rms: 1.2663088998e-02	maxdev: 3.7070263979e-02
	  iter:	2	rms: 5.2080535091e-05	maxdev: 1.5285283466e-04
	  iter:	3	rms: 2.9850778739e-08	maxdev: 9.8331557888e-08	 Success!

	Finished Iterative Coordinate Back-Transformation
 ----------------------------------------------------------------
             Standard Nuclear Orientation (Angstroms)
    I     Atom           X                Y                Z
 ----------------------------------------------------------------
    1      O       0.6141700082     0.3788897793     1.3658279870
    2      O       2.6697105096     1.0202866395     0.9621754050
    3      C       1.5180205060     1.3510273001     1.0278751638
    4      C       1.1378338585     2.8151819116     0.7847842646
    5      C       1.8464562119     3.2605988484    -0.5678127120
    6      C      -0.3929337282     3.0715902712     0.6206893272
    7      H      -0.8408907805     2.3529469724    -0.0979983299
    8      H      -0.5619035716     4.1204640011     0.2817826033
    9      H      -0.8933061279     2.9059235130     1.6083940054
   10      C       1.6710364606     3.7189850321     1.9779659218
   11      H       2.7147109162     4.0509214488     1.8123583508
   12      H       0.9839576810     4.5915512054     2.0569424140
   13      H       1.5611505101     3.1568366152     2.9372809735
   14      C       1.5148473684     2.2928622517    -1.7672711811
   15      H       1.4158102698     4.2631394375    -0.8152199937
   16      H       2.9481465487     3.3258594765    -0.4455663184
   17      H       2.3428329694     1.5507043186    -1.8883903918
   18      H       0.5640606515     1.7275218920    -1.6079815327
   19      H       1.3968834312     2.8743664701    -2.7127622868
   20      O      -2.0751669477    -1.0918650728     0.7506776311
   21      O      -0.0364936577    -0.1161903021     0.1173812279
   22      C      -2.8253819223    -0.0010662539     0.1373014946
   23      C      -4.3277700915    -0.3620376738     0.2715059277
   24      C      -2.6156639588     1.3238803800     0.9744703362
   25      C      -2.5741731868     0.1392864552    -1.3841724120
   26      C      -0.7941482202    -1.1881230276     0.4149171340
   27      C      -0.1247541438    -2.5902961720     0.4338500364
   28      C       1.0888718475    -2.6742644097    -0.5312612054
   29      H      -4.6940312110    -1.3893917190     0.0918717081
   30      H      -5.0314639277     0.4282185496     0.5861459738
   31      H      -1.6290902664     1.2767070419     1.4933906707
   32      H      -3.4474478482     1.4718648705     1.7002376096
   33      H      -2.5943273760     2.1908422924     0.2671696651
   34      H      -3.0587347446     1.0964100640    -1.7062845637
   35      H      -1.4898246934     0.2150790498    -1.6389005081
   36      H      -3.1035790962    -0.6623531397    -1.9552864459
   37      C      -1.1976402239    -3.7042156666     0.2237268447
   38      H      -1.9281650076    -3.4225795262    -0.5667874255
   39      H      -1.7664586892    -3.8215930775     1.1810148319
   40      H      -0.7279982835    -4.6853839400     0.0005679451
   41      C       0.4339534251    -2.7592283880     1.9272662905
   42      H       0.6435678215    -3.8266310248     2.1520966196
   43      H       1.3531043000    -2.1389128061     2.0554455702
   44      H      -0.3429169100    -2.3575585626     2.6268459375
   45      C       0.6839654542    -2.7371490228    -2.0563829655
   46      H       1.8618028112    -1.8938920036    -0.3306161955
   47      H       1.5926473420    -3.6533730507    -0.3067783659
   48      H       1.5857063746    -2.4829745299    -2.6689816694
   49      H       0.4235902843    -3.7880243136    -2.3393268523
   50      H      -0.1430146258    -2.0354368884    -2.3024077286
 ----------------------------------------------------------------
 Nuclear Repulsion Energy =        1827.89548538 hartrees
 There are       79 alpha and       79 beta electrons
 Discretize the solute cavity surface with Lebedev spheres
	Using 194 Lebedev grid points for each H atom
	Using 194 Lebedev grid points for other atoms
	Atomic van der Waals radii (UFF set) will be scaled by 1.10
 Using smooth SwiG surface discretization
 Remove points where switching function is < 1.0e-08
 Keep 3407 surface tesserae and discard 6293 interior tesserae
 Molecular Surface Area = 396.013 Angst**2

 Applying Cartesian multipole field
    Component          Value
    ---------          -----
     (2,0,0)        1.00000E-12
     (0,2,0)        2.00000E-11
     (0,0,2)       -3.00000E-11
 Nucleus-field energy     = 3.6453245806e-08 hartrees
 Requested basis set is def2-SVPD
 There are 284 shells and 652 basis functions
 A cutoff of  1.0D-16 yielded  37070 shell pairs
 There are    195436 function pairs (    220355 Cartesian)
 Smallest overlap matrix eigenvalue = 2.06E-06
 Guess MOs from SCF MO coefficient file

 -----------------------------------------------------------------------
  General SCF calculation program by
  Eric Jon Sundstrom, Paul Horn, Yuezhi Mao, Dmitri Zuev, Alec White,
[...]
            1           2           3           4           5           6
    1   0.0152053  -0.0134666  -0.0068808  -0.0091735   0.0031580   0.0096798
    2   0.0002845   0.0086066  -0.0266089   0.0093376  -0.0002580  -0.0026904
    3  -0.0255898  -0.0010104  -0.0070652   0.0138227  -0.0033818   0.0024006
            7           8           9          10          11          12
    1  -0.0017542   0.0005446  -0.0011480  -0.0020908  -0.0044191  -0.0007665
    2   0.0003727  -0.0005274  -0.0005408  -0.0088406   0.0014738  -0.0029992
    3   0.0017304  -0.0015044  -0.0003759  -0.0110731  -0.0027957   0.0019103
           13          14          15          16          17          18
    1   0.0051089  -0.0020376  -0.0015340  -0.0047711  -0.0036583   0.0038409
    2  -0.0000317   0.0061108  -0.0022876   0.0003806  -0.0009454  -0.0020658
    3  -0.0041496   0.0078641   0.0001989  -0.0007999  -0.0043321   0.0021778
           19          20          21          22          23          24
    1  -0.0001679   0.0140901  -0.0036274  -0.0157122   0.0103931  -0.0026076
    2  -0.0006488   0.0108553   0.0044781  -0.0010849  -0.0056992   0.0008284
    3   0.0015472   0.0095997   0.0509419   0.0033826  -0.0090726  -0.0042452
           25          26          27          28          29          30
    1   0.0018983   0.0024542   0.0240227  -0.0026849   0.0015532  -0.0141790
    2  -0.0005602   0.0043822   0.0148665   0.0023298  -0.0187042   0.0117332
    3   0.0057559  -0.0263152   0.0176038  -0.0023961  -0.0068021   0.0125282
           31          32          33          34          35          36
    1   0.0145998  -0.0059653   0.0003674  -0.0057881   0.0110092  -0.0043790
    2   0.0004326   0.0001218   0.0082224   0.0077699   0.0061270  -0.0095499
    3   0.0031918   0.0049431  -0.0033873  -0.0062101  -0.0008667  -0.0062088
           37          38          39          40          41          42
    1   0.0028356  -0.0065472  -0.0015937   0.0028204  -0.0037248  -0.0017277
    2  -0.0011176   0.0001790  -0.0031231  -0.0042470  -0.0011786  -0.0017913
    3   0.0018277  -0.0048678   0.0035241  -0.0018033  -0.0093504  -0.0008871
           43          44          45          46          47          48
    1  -0.0044007   0.0022407   0.0043286   0.0005402  -0.0002133   0.0006427
    2  -0.0002632   0.0004948  -0.0011974   0.0000994  -0.0025079   0.0020223
    3   0.0003158  -0.0017771   0.0050297   0.0009884   0.0004677  -0.0022978
           49          50
    1  -0.0006523  -0.0056622
    2  -0.0041028   0.0020624
    3  -0.0018178  -0.0013693
 Max gradient component =       5.094E-02
 RMS gradient           =       8.347E-03
 Computing fast CPCM-SWIG gradient
 Updating gradient with PCM contributions...
 -- total gradient after adding PCM contribution --
---------------------------------------------------
  Atom         X              Y              Z     
---------------------------------------------------
   1       0.004218      -0.002492      -0.041489
   2      -0.008565       0.004921      -0.004635
   3      -0.007261      -0.021459       0.010889
   4      -0.005277       0.000882       0.000374
   5       0.001114      -0.002715      -0.002109
   6       0.002898      -0.000905       0.001367
   7      -0.002058      -0.001331      -0.001730
   8       0.000017       0.002314      -0.002522
   9      -0.003004       0.001439       0.001385
  10      -0.001008      -0.005573      -0.004298
  11       0.002862       0.001667       0.000013
  12      -0.001495       0.003062       0.000794
  13       0.000614      -0.000727       0.003119
  14       0.000254       0.003707       0.005029
  15       0.000507       0.001854      -0.001885
  16       0.001880       0.000574       0.002526
  17       0.001966      -0.002116      -0.000443
  18      -0.002663      -0.001552      -0.000104
  19       0.000186       0.000607      -0.002630
  20       0.012108       0.007297       0.011458
  21      -0.005942       0.003479       0.048781
  22      -0.026520      -0.002289      -0.007405
  23       0.009576       0.002698      -0.005638
  24       0.004886      -0.004658      -0.003269
  25       0.006416       0.003566       0.007943
  26       0.009777       0.006149      -0.018963
  27       0.000896       0.003364       0.002569
  28      -0.002923      -0.000541      -0.004326
  29      -0.000311      -0.003512      -0.000230
  30      -0.002018       0.000314       0.002810
  31       0.005272       0.000560       0.002985
  32      -0.001249       0.001569       0.002406
  33       0.000673       0.003296      -0.001748
  34      -0.000822       0.002395      -0.002099
  35       0.002621      -0.001701      -0.000369
  36      -0.001393      -0.001719      -0.001670
  37       0.003114       0.001456       0.001341
  38      -0.002754      -0.000252      -0.001154
  39      -0.000895      -0.001803       0.001836
  40       0.001304      -0.002010      -0.001805
  41      -0.002824       0.001322      -0.003235
  42       0.000005      -0.002627       0.000749
  43       0.003084       0.001032      -0.000795
  44      -0.001108       0.000916       0.002271
  45       0.003805      -0.000138       0.006226
  46       0.002169       0.001439       0.000616
  47       0.000688      -0.002183       0.001156
  48       0.000590       0.002067      -0.001965
  49      -0.000184      -0.002174      -0.001561
  50      -0.003225       0.000529      -0.000564
---------------------------------------------------
 Number of fixed atoms: 0
 Gradient time:  CPU 560.89 s  wall 52.18 s

     Step 7	:
        Energy is -927.7991796582
                            Maximum         Tolerance       Converged?
         Gradient           4.31292633e-02	3.00000000e-04	false
         Displacement       3.25727387e-01	1.20000000e-03	false
         Energy change      1.79819763e-02	1.00000000e-06	false


	OPTIMIZATION CYCLE:	8

 Scaling Magnitude of Eigenvalues
 	Minimum: -25.00000000	 Maximum: 25.00000000
 257 Hessian Eigenvalues to form next step
   0.04585496   0.10000000   0.10000000   0.10000000   0.10000000
   0.10000000   0.10000000   0.10000000   0.10000000   0.10000000
   0.10000000   0.10000000   0.10000000   0.10000000   0.10000000
   0.10000000   0.10000000   0.10000000   0.10000000   0.10000000
   0.10000000   0.10000000   0.10000000   0.10000000   0.10000000
   0.10000000   0.10000000   0.10000000   0.10000000   0.10000000
   0.10000000   0.10000000   0.10000000   0.10000000   0.10000000
   0.10000000   0.10000000   0.10000000   0.10000000   0.10000000
   0.10000000   0.10000000   0.10000000   0.10000000   0.10000000
   0.10000000   0.10000000   0.10000000   0.10000000   0.10000000
   0.10000000   0.10000000   0.10000000   0.10000000   0.10000000
   0.10000000   0.10000000   0.10000000   0.10000000   0.10000000
   0.10000000   0.10000000   0.10000000   0.10000000   0.10000000
   0.10000000   0.10000000   0.10000000   0.10000000   0.10000000
   0.10000000   0.10000000   0.10000000   0.10000000   0.10000000
   0.10000000   0.10000000   0.10000000   0.10000000   0.10000000
   0.10000000   0.10000000   0.10000000   0.10000000   0.10000000
   0.10000000   0.10000000   0.10000000   0.10000000   0.10000000
   0.10000000   0.10000000   0.10000000   0.10000000   0.10000000
   0.10000000   0.10000000   0.10000000   0.10000000   0.10000000
   0.10000000   0.10000000   0.10000000   0.10000000   0.10000000
   0.10000000   0.10000000   0.10000000   0.10000000   0.10000000
   0.10000000   0.10002088   0.10009921   0.10030824   0.10333582
   0.10543786   0.10780710   0.13364454   0.14226286   0.19704762
   0.20000000   0.20000000   0.20000000   0.20000000   0.20000000
   0.20000000   0.20000000   0.20000000   0.20000000   0.20000000
   0.20000000   0.20000000   0.20000000   0.20000000   0.20000000
   0.20000000   0.20000000   0.20000000   0.20000000   0.20000000
   0.20000000   0.20000000   0.20000000   0.20000000   0.20000000
   0.20000000   0.20000000   0.20000000   0.20000000   0.20000000
   0.20000000   0.20000000   0.20000000   0.20000000   0.20000000
   0.20000000   0.20000000   0.20000000   0.20000000   0.20000000
   0.20000000   0.20000000   0.20000000   0.20000000   0.20000000
   0.20000000   0.20000000   0.20000000   0.20000000   0.20000000
   0.20000000   0.20000000   0.20000000   0.20000000   0.20000000
   0.20000000   0.20000000   0.20000000   0.20000000   0.20000000
   0.20000000   0.20000000   0.20000000   0.20000000   0.20000000
   0.20000000   0.20000000   0.20000000   0.20000000   0.20000000
   0.20000000   0.20000000   0.20000000   0.20000000   0.20000000
   0.20000000   0.20000000   0.20000000   0.20000000   0.20000000
   0.20000000   0.20000000   0.20044910   0.20084438   0.20274825
   0.20957651   0.22724402   0.29020599   0.36437139   0.47854315
   0.50000000   0.50000000   0.50000000   0.50000000   0.50000000
   0.50000000   0.50000000   0.50000000   0.50000000   0.50000000
   0.50000000   0.50000000   0.50000000   0.50000000   0.50000000
   0.50000000   0.50000000   0.50000000   0.50000000   0.50000000
   0.50000000   0.50000000   0.50000000   0.50000000   0.50000000
   0.50000000   0.50000000   0.50000000   0.50000000   0.50000000
   0.50000000   0.50000000   0.50000000   0.50000000   0.50000000
   0.50000000   0.50000000   0.50000000   0.50000000   0.50000000
   0.50000000   0.50072787   0.50411471   0.50861234   0.56090626
   0.80771057   1.11378663

 Minimum Search taking a RFO step
 Searching for Lambda that minimizes along all modes
	Value of Lambda   -0.02315414
	Norm  of Stepsize  0.47722141
	RMS   of Stepsize  0.02976825

	Performing Iterative Coordinate Back-Transformation

	  Starting from Previous Position

	  iter:	0	rms: 1.6974296172e-01	maxdev: 5.3949421149e-01
	  iter:	1	rms: 1.0691475117e-02	maxdev: 4.2155201594e-02
	  iter:	2	rms: 6.8452655937e-05	maxdev: 3.4452651938e-04
	  iter:	3	rms: 9.2721281866e-07	maxdev: 4.5173479820e-06	 Success!

	Finished Iterative Coordinate Back-Transformation
 ----------------------------------------------------------------
             Standard Nuclear Orientation (Angstroms)
    I     Atom           X                Y                Z
 ----------------------------------------------------------------
    1      O       0.0955772618     1.0072100185     1.6999398310
    2      O       2.2541373906     0.9408358364     2.0127826933
    3      C       1.2288911128     1.4790195611     1.5510924987
    4      C       1.3754639840     2.8421924759     0.8269216393
    5      C       2.5159070795     2.7846452557    -0.2000916957
    6      C       0.0465812787     3.2395980855     0.1812641569
    7      H      -0.3444441129     2.4743680345    -0.4980979417
    8      H       0.1770291758     4.1723446944    -0.3914906159
    9      H      -0.7289604482     3.4203012252     0.9387461813
   10      C       1.7203957034     3.8684692804     1.9150237513
   11      H       2.7985228077     3.8891561256     2.1226842342
   12      H       1.4288315267     4.8880575459     1.6202956125
   13      H       1.2240197177     3.6453074440     2.8699591902
   14      C       2.4027842337     1.6445934662    -1.1989181967
   15      H       2.5661481619     3.7591496878    -0.7149787379
   16      H       3.4626776718     2.7114818778     0.3546152049
   17      H       2.9285309620     0.7461650839    -0.8473412435
   18      H       1.3580355541     1.3486644444    -1.3645068713
   19      H       2.8272285749     1.9002266569    -2.1790514667
   20      O      -2.1588233060    -1.1353127032     0.7162785356
   21      O      -0.5296258595     0.0797797148    -0.2611549616
   22      C      -3.3064852210    -0.2526890188     0.3640267497
   23      C      -4.4172255624    -1.0918238257     0.6895592977
   24      C      -3.1853246999     1.1167956980     1.0176027601
   25      C      -3.4288873734    -0.1459007196    -1.2009323686
   26      C      -0.9218490070    -0.9872841242     0.1024246465
   27      C      -0.1065872270    -2.2597528206     0.1921599351
   28      C       0.9535488419    -2.2148693297    -0.9237416146
   29      H      -4.3699608805    -2.1461259468     0.4236396221
   30      H      -5.3306058858    -0.7151457047     1.1529010700
   31      H      -2.1334654789     1.3399856941     1.2053079700
   32      H      -3.7272602828     1.1610301359     1.9714577016
   33      H      -3.5768764132     1.9067897102     0.3642007124
   34      H      -4.1848713298     0.5954100463    -1.4680420498
   35      H      -2.4532170236     0.1693927981    -1.5734914646
   36      H      -3.6665587050    -1.1088802824    -1.6711668793
   37      C      -0.9803630524    -3.5085346179     0.0508421651
   38      H      -1.7168364199    -3.4189061042    -0.7594704546
   39      H      -1.5260060086    -3.7312012909     0.9748203170
   40      H      -0.3468109997    -4.3737759997    -0.1874336013
   41      C       0.5844309428    -2.2490265163     1.5543633956
   42      H       0.9960451342    -3.2512876822     1.7420161570
   43      H       1.3976673201    -1.5156136373     1.5917402259
   44      H      -0.1129409325    -2.0238954398     2.3700122062
   45      C       0.3910511913    -2.2633657913    -2.3289088649
   46      H       1.5346604607    -1.2934180607    -0.7816029941
   47      H       1.6472000225    -3.0494978183    -0.7458146534
   48      H       1.0868271088    -1.8440156423    -3.0653314036
   49      H       0.1389740624    -3.2835992833    -2.6475964530
   50      H      -0.5376227303    -1.6776427214    -2.4157431416
 ----------------------------------------------------------------
 Nuclear Repulsion Energy =        1819.53997596 hartrees
 There are       79 alpha and       79 beta electrons
 Discretize the solute cavity surface with Lebedev spheres
	Using 194 Lebedev grid points for each H atom
	Using 194 Lebedev grid points for other atoms
	Atomic van der Waals radii (UFF set) will be scaled by 1.10
 Using smooth SwiG surface discretization
 Remove points where switching function is < 1.0e-08
 Keep 3441 surface tesserae and discard 6259 interior tesserae
 Molecular Surface Area = 393.554 Angst**2

 Applying Cartesian multipole field
    Component          Value
    ---------          -----
     (2,0,0)        1.00000E-12
     (0,2,0)        2.00000E-11
     (0,0,2)       -3.00000E-11
 Nucleus-field energy     = 2.7724257665e-08 hartrees
 Requested basis set is def2-SVPD
 There are 284 shells and 652 basis functions
 A cutoff of  1.0D-16 yielded  36978 shell pairs
 There are    194738 function pairs (    219503 Cartesian)
 Smallest overlap matrix eigenvalue = 1.81E-06
 Guess MOs from SCF MO coefficient file

 -----------------------------------------------------------------------
  General SCF calculation program by
  Eric Jon Sundstrom, Paul Horn, Yuezhi Mao, Dmitri Zuev, Alec White,
  David Stuck, Shaama M.S., Shane Yost, Joonho Lee, David Small,
  Daniel Levine, Susi Lehtola, Hugh Burton, Evgeny Epifanovsky,
  Bang C. Huynh
 -----------------------------------------------------------------------
 Exchange:  B97M-V      Correlation:  B97M-V
 Using SG-3 standard quadrature grid
 Nonlocal Correlation:  VV10 with C = 0.0100 and b = 6.00 and scale = 1.00000
 Grid used for NLC:  SG-1 standard quadrature
 A restricted SCF calculation will be
 performed using Roothaan-Hall, DIIS
 SCF converges when DIIS error is below 1.0e-08
 ---------------------------------------
  Cycle       Energy         DIIS error
 ---------------------------------------
    1    -927.6756778729      1.80e-03  Roothaan Step
 ---------------------------------------
  Cycle       Energy         DIIS error
 ---------------------------------------
    1    -926.9688970508      2.86e-03  
    2    -917.7478011443      9.92e-03  
    3    -927.1831712167      3.55e-03  
    4    -927.5454236759      1.94e-03  
    5    -927.6534889547      1.55e-03  
    6    -927.7190910347      1.13e-03  
    7    -927.0537675233      2.73e-03  
    8    -927.1000214117      2.54e-03  
    9    -927.1033921064      2.53e-03  
   10    -927.0959713427      2.55e-03  
   11    -927.1428664287      2.44e-03  
   12    -927.1487517676      2.42e-03  
   13    -927.1514959493      2.42e-03  
   14    -927.1531340874      2.42e-03  
   15    -927.1592279979      2.43e-03  
   16    -927.1577278406      2.43e-03  
   17    -927.1061562669      2.53e-03  
   18    -927.0999597061      2.55e-03  
   19    -927.7047376480      1.14e-03  
   20    -927.7453614781      8.39e-04  
   21    -927.1349109308      2.45e-03  
   22    -927.7263020559      1.09e-03  
   23    -927.1146689537      2.52e-03  
   24    -927.1168431085      2.51e-03  
   25    -927.1179082795      2.51e-03  
   26    -927.1505136508      2.42e-03  
   27    -927.1433018238      2.44e-03  
   28    -927.1430820098      2.44e-03  
   29    -927.1416718262      2.44e-03  
   30    -927.1647558862      2.39e-03  
   31    -927.1650548698      2.44e-03  
   32    -927.1628008218      2.42e-03  
   33    -927.1463495896      2.48e-03  
   34    -927.1363116576      2.54e-03  
   35    -927.1517453865      2.54e-03  
   36    -927.7220030305      1.03e-03  
   37    -927.7719571789      6.18e-04  
   38    -927.0561334772      2.68e-03  
   39    -927.1465675818      2.45e-03  
   40    -927.1454782627      2.45e-03  
   41    -927.1366200554      2.46e-03  
   42    -927.1109724226      2.55e-03  
   43    -927.0998428793      2.58e-03  
   44    -927.1023545027      2.57e-03  
   45    -927.1322414025      2.50e-03  
   46    -927.1247684208      2.50e-03  
   47    -927.1333055879      2.47e-03  
   48    -927.1307995922      2.48e-03  
   49    -927.1256805615      2.49e-03  
   50    -927.2867648926      2.27e-03  
   51    -927.0880872238      2.59e-03  
   52    -927.1459932306      2.44e-03  
   53    -924.1769601279      5.78e-03  
   54    -927.4190026977      2.54e-03  
   55    -927.5909497907      1.77e-03  
   56    -927.6886539265      1.25e-03  
   57    -927.0644240316      2.69e-03  
   58    -927.0403587789      2.74e-03  
   59    -927.0589731404      2.69e-03  
   60    -927.0642829885      2.67e-03  
   61    -927.0937741031      2.58e-03  
   62    -927.1145575107      2.53e-03  
   63    -927.1226010530      2.54e-03  
   64    -927.1823372852      2.51e-03  
   65    -927.1598702570      2.43e-03  
   66    -927.1194116116      2.53e-03  
   67    -927.1352552790      2.46e-03  
   68    -927.1331298815      2.49e-03  
   69    -927.1182149795      2.53e-03  
   70    -927.7292738086      9.74e-04  
   71    -927.7331738013      9.69e-04  
   72    -927.7439377353      8.61e-04  
   73    -927.0415004692      2.72e-03  
   74    -927.0407606637      2.72e-03  
   75    -927.0349709349      2.74e-03  
   76    -927.0367565735      2.73e-03  
   77    -927.0484352511      2.70e-03  
   78    -927.0517844364      2.69e-03  
   79    -927.0161935143      2.79e-03  
   80    -927.0350151787      2.74e-03  
   81    -927.0428084544      2.72e-03  
   82    -927.0351199559      2.74e-03  
   83    -927.0465179015      2.71e-03  
   84    -927.0664803296      2.65e-03  
   85    -927.0648182060      2.65e-03  
   86    -927.7643043300      6.98e-04  
   87    -927.7634439061      6.72e-04  
   88    -927.7783137833      5.69e-04  
   89    -927.7622440876      6.93e-04  
   90    -927.7670032233      6.58e-04  
   91    -927.7676237934      6.52e-04  
   92    -927.7677816472      6.54e-04  
   93    -927.7709365124      6.30e-04  
   94    -927.7755124799      5.96e-04  
   95    -927.8066074990      2.68e-04  
   96    -927.7687916570      6.40e-04  
   97    -927.7674379541      6.53e-04  
   98    -927.7668872766      6.57e-04  
   99    -927.7695189431      6.36e-04  
  100    -927.7703332778      6.29e-04  
gen_scfman_exception: SCF failed to converge

 Q-Chem fatal error occurred in module libgscf/gen_scfman/gen_scfman_main.C, line 246:

 Error in gen_scfman


 Please submit a crash report at q-chem.com/reporter 
 
 
