<?xml version="1.0" encoding="ISO-8859-1"?>
<modeling>
 <generator>
  <i name="program" type="string">vasp </i>
  <i name="version" type="string">5.3.3  </i>
  <i name="subversion" type="string">18Dez12 (build May 30 2013 16:07:32) complex                          parallel </i>
  <i name="platform" type="string">LinuxIFC </i>
  <i name="date" type="string">2014 07 23 </i>
  <i name="time" type="string">21:13:30 </i>
 </generator>
 <incar>
  <i type="int" name="ISTART">     1</i>
  <i type="string" name="PREC">accurate</i>
  <i type="string" name="ALGO"> Fast</i>
  <i type="int" name="ISPIN">     2</i>
  <i type="int" name="ICHARG">     1</i>
  <i type="int" name="NELM">   100</i>
  <i type="int" name="NELMIN">     6</i>
  <i type="int" name="IBRION">     2</i>
  <i name="EDIFF">      0.00600000</i>
  <i type="int" name="NSW">    99</i>
  <i type="int" name="ISIF">     3</i>
  <i name="ENCUT">    520.00000000</i>
  <v name="MAGMOM">      0.60000000      0.60000000      0.60000000      0.60000000      0.60000000      0.60000000      0.60000000      0.60000000      0.60000000      0.60000000      0.60000000      0.60000000      0.60000000      0.60000000      0.60000000      0.60000000      0.60000000      0.60000000      0.60000000      0.60000000
      0.60000000      0.60000000      0.60000000      0.60000000      0.60000000      0.60000000      0.60000000      0.60000000      0.60000000      0.60000000      0.60000000      0.60000000      0.60000000      0.60000000      0.60000000      0.60000000      0.60000000      0.60000000      0.60000000      0.60000000
      0.60000000      0.60000000      0.60000000      0.60000000      0.60000000      0.60000000      0.60000000      0.60000000      0.60000000      0.60000000      0.60000000      0.60000000      0.60000000      0.60000000      0.60000000      0.60000000      0.60000000      0.60000000      0.60000000      0.60000000
      0.60000000      0.60000000      0.60000000      0.60000000      0.60000000      0.60000000      0.60000000      0.60000000      0.60000000      0.60000000      0.60000000      0.60000000      0.60000000      0.60000000      0.60000000      0.60000000      0.60000000      0.60000000      0.60000000      0.60000000
      0.60000000      0.60000000      0.60000000      0.60000000      0.60000000      0.60000000      0.60000000      0.60000000      0.60000000      0.60000000      0.60000000      0.60000000      0.60000000      0.60000000      0.60000000      0.60000000      0.60000000      0.60000000      0.60000000      0.60000000
      0.60000000      0.60000000      0.60000000      0.60000000      0.60000000      0.60000000      0.60000000      0.60000000      0.60000000      0.60000000      0.60000000      0.60000000      0.60000000      0.60000000      0.60000000      0.60000000      0.60000000      0.60000000      0.60000000      0.60000000
</v>
  <i type="string" name="LREAL"> Auto</i>
  <i type="int" name="ISMEAR">     0</i>
  <i name="SIGMA">      0.05000000</i>
  <i type="logical" name="LWAVE"> F  </i>
  <i type="logical" name="LORBIT"> F  </i>
  <i type="int" name="NELM">   100</i>
 </incar>
 <kpoints>
  <generation param="Monkhorst-Pack">
   <v type="int" name="divisions">       2        4        2 </v>
   <v name="usershift">      0.00000000       0.00000000       0.00000000 </v>
   <v name="genvec1">      0.50000000       0.00000000       0.00000000 </v>
   <v name="genvec2">      0.00000000       0.25000000       0.00000000 </v>
   <v name="genvec3">      0.00000000       0.00000000       0.50000000 </v>
   <v name="shift">      0.50000000       0.50000000       0.50000000 </v>
  </generation>
  <varray name="kpointlist" >
   <v>       0.25000000       0.12500000       0.25000000 </v>
   <v>       0.25000000       0.37500000       0.25000000 </v>
  </varray>
  <varray name="weights" >
   <v>       0.50000000 </v>
   <v>       0.50000000 </v>
  </varray>
 </kpoints>
 <parameters>
  <separator name="general" >
   <i type="string" name="SYSTEM">unknown system</i>
   <i type="logical" name="LCOMPAT"> F  </i>
  </separator>
  <separator name="electronic" >
   <i type="string" name="PREC">accura</i>
   <i name="ENMAX">    520.00000000</i>
   <i name="ENAUG">    613.61400000</i>
   <i name="EDIFF">      0.00600000</i>
   <i type="int" name="IALGO">    68</i>
   <i type="int" name="IWAVPR">    11</i>
   <i type="int" name="NBANDS">   528</i>
   <i name="NELECT">    816.00000000</i>
   <i type="int" name="TURBO">     0</i>
   <i type="int" name="IRESTART">     0</i>
   <i type="int" name="NREBOOT">     0</i>
   <i type="int" name="NMIN">     0</i>
   <i name="EREF">      0.00000000</i>
   <separator name="electronic smearing" >
    <i type="int" name="ISMEAR">     0</i>
    <i name="SIGMA">      0.05000000</i>
    <i name="KSPACING">      0.50000000</i>
    <i type="logical" name="KGAMMA"> T  </i>
   </separator>
   <separator name="electronic projectors" >
    <i type="logical" name="LREAL"> T  </i>
    <v name="ROPT">     -0.00025000     -0.00025000     -0.00025000     -0.00025000</v>
    <i type="int" name="LMAXPAW">  -100</i>
    <i type="int" name="LMAXMIX">     2</i>
    <i type="logical" name="NLSPLINE"> F  </i>
   </separator>
   <separator name="electronic startup" >
    <i type="int" name="ISTART">     0</i>
    <i type="int" name="ICHARG">     1</i>
    <i type="int" name="INIWAV">     1</i>
   </separator>
   <separator name="electronic spin" >
    <i type="int" name="ISPIN">     2</i>
    <i type="logical" name="LNONCOLLINEAR"> F  </i>
    <v name="MAGMOM">      0.60000000      0.60000000      0.60000000      0.60000000      0.60000000      0.60000000      0.60000000      0.60000000      0.60000000      0.60000000      0.60000000      0.60000000      0.60000000      0.60000000      0.60000000      0.60000000      0.60000000      0.60000000      0.60000000      0.60000000
      0.60000000      0.60000000      0.60000000      0.60000000      0.60000000      0.60000000      0.60000000      0.60000000      0.60000000      0.60000000      0.60000000      0.60000000      0.60000000      0.60000000      0.60000000      0.60000000      0.60000000      0.60000000      0.60000000      0.60000000
      0.60000000      0.60000000      0.60000000      0.60000000      0.60000000      0.60000000      0.60000000      0.60000000      0.60000000      0.60000000      0.60000000      0.60000000      0.60000000      0.60000000      0.60000000      0.60000000      0.60000000      0.60000000      0.60000000      0.60000000
      0.60000000      0.60000000      0.60000000      0.60000000      0.60000000      0.60000000      0.60000000      0.60000000      0.60000000      0.60000000      0.60000000      0.60000000      0.60000000      0.60000000      0.60000000      0.60000000      0.60000000      0.60000000      0.60000000      0.60000000
      0.60000000      0.60000000      0.60000000      0.60000000      0.60000000      0.60000000      0.60000000      0.60000000      0.60000000      0.60000000      0.60000000      0.60000000      0.60000000      0.60000000      0.60000000      0.60000000      0.60000000      0.60000000      0.60000000      0.60000000
      0.60000000      0.60000000      0.60000000      0.60000000      0.60000000      0.60000000      0.60000000      0.60000000      0.60000000      0.60000000      0.60000000      0.60000000      0.60000000      0.60000000      0.60000000      0.60000000      0.60000000      0.60000000      0.60000000      0.60000000
</v>
    <i name="NUPDOWN">     -1.00000000</i>
    <i type="logical" name="LSORBIT"> F  </i>
    <v name="SAXIS">      0.00000000      0.00000000      1.00000000</v>
    <i type="logical" name="LSPIRAL"> F  </i>
    <v name="QSPIRAL">      0.00000000      0.00000000      0.00000000</v>
    <i type="logical" name="LZEROZ"> F  </i>
   </separator>
   <separator name="electronic exchange-correlation" >
    <i type="logical" name="LASPH"> F  </i>
    <i type="logical" name="LMETAGGA"> F  </i>
   </separator>
   <separator name="electronic convergence" >
    <i type="int" name="NELM">   100</i>
    <i type="int" name="NELMDL">     0</i>
    <i type="int" name="NELMIN">     6</i>
    <i name="ENINI">    520.00000000</i>
    <separator name="electronic convergence detail" >
     <i type="logical" name="LDIAG"> T  </i>
     <i type="logical" name="LSUBROT"> T  </i>
     <i name="WEIMIN">      0.00100000</i>
     <i name="EBREAK">      0.00000284</i>
     <i name="DEPER">      0.30000000</i>
     <i type="int" name="NRMM">     4</i>
     <i name="TIME">      0.40000000</i>
    </separator>
   </separator>
   <separator name="electronic mixer" >
    <i name="AMIX">      0.40000000</i>
    <i name="BMIX">      1.00000000</i>
    <i name="AMIN">      0.10000000</i>
    <i name="AMIX_MAG">      1.60000000</i>
    <i name="BMIX_MAG">      1.00000000</i>
    <separator name="electronic mixer details" >
     <i type="int" name="IMIX">     4</i>
     <i type="int" name="MAXMIX">   -45</i>
     <i name="WC">    100.00000000</i>
     <i type="int" name="INIMIX">     1</i>
     <i type="int" name="MIXPRE">     1</i>
     <i type="int" name="MREMOVE">     5</i>
    </separator>
   </separator>
   <separator name="electronic dipolcorrection" >
    <i type="logical" name="LDIPOL"> F  </i>
    <i type="logical" name="LMONO"> F  </i>
    <i type="int" name="IDIPOL">     0</i>
    <i name="EPSILON">      1.00000000</i>
    <v name="DIPOL">   -100.00000000   -100.00000000   -100.00000000</v>
    <i name="EFIELD">      0.00000000</i>
   </separator>
  </separator>
  <separator name="grids" >
   <i type="int" name="NGX">   140</i>
   <i type="int" name="NGY">    56</i>
   <i type="int" name="NGZ">   140</i>
   <i type="int" name="NGXF">   280</i>
   <i type="int" name="NGYF">   112</i>
   <i type="int" name="NGZF">   280</i>
   <i type="logical" name="ADDGRID"> F  </i>
  </separator>
  <separator name="ionic" >
   <i type="int" name="NSW">    99</i>
   <i type="int" name="IBRION">     2</i>
   <i type="int" name="ISIF">     3</i>
   <i name="PSTRESS">      0.00000000</i>
   <i name="EDIFFG">      0.06000000</i>
   <i type="int" name="NFREE">     1</i>
   <i name="POTIM">      0.50000000</i>
   <i name="SMASS">     -3.00000000</i>
   <i name="SCALEE">      1.00000000</i>
  </separator>
  <separator name="ionic md" >
   <i name="TEBEG">      0.00010000</i>
   <i name="TEEND">      0.00010000</i>
   <i type="int" name="NBLOCK">     1</i>
   <i type="int" name="KBLOCK">    99</i>
   <i type="int" name="NPACO">   256</i>
   <i name="APACO">     16.00000000</i>
  </separator>
  <separator name="symmetry" >
   <i type="int" name="ISYM">     2</i>
   <i name="SYMPREC">      0.00001000</i>
  </separator>
  <separator name="dos" >
   <i type="logical" name="LORBIT"> F  </i>
   <v name="RWIGS">     -1.00000000     -1.00000000     -1.00000000     -1.00000000</v>
   <i type="int" name="NEDOS">   301</i>
   <i name="EMIN">     10.00000000</i>
   <i name="EMAX">    -10.00000000</i>
   <i name="EFERMI">      0.00000000</i>
  </separator>
  <separator name="writing" >
   <i type="int" name="NWRITE">     2</i>
   <i type="logical" name="LWAVE"> F  </i>
   <i type="logical" name="LCHARG"> T  </i>
   <i type="logical" name="LPARD"> F  </i>
   <i type="logical" name="LVTOT"> F  </i>
   <i type="logical" name="LVHAR"> F  </i>
   <i type="logical" name="LELF"> F  </i>
   <i type="logical" name="LOPTICS"> F  </i>
   <v name="STM">      0.00000000      0.00000000      0.00000000      0.00000000      0.00000000      0.00000000      0.00000000</v>
  </separator>
  <separator name="performance" >
   <i type="int" name="NPAR">     4</i>
   <i type="int" name="NSIM">     4</i>
   <i type="int" name="NBLK">    -1</i>
   <i type="logical" name="LPLANE"> T  </i>
   <i type="logical" name="LSCALAPACK"> T  </i>
   <i type="logical" name="LSCAAWARE"> F  </i>
   <i type="logical" name="LSCALU"> F  </i>
   <i type="logical" name="LASYNC"> F  </i>
   <i type="logical" name="LORBITALREAL"> F  </i>
  </separator>
  <separator name="miscellaneous" >
   <i type="int" name="IDIOT">     3</i>
   <i type="logical" name="LMUSIC"> F  </i>
   <v name="POMASS">    121.75000000    131.29400000     35.45300000     18.99800000</v>
   <v name="DARWINR">      0.00000000      0.00000000      0.00000000      0.00000000</v>
   <v name="DARWINV">      1.00000000      1.00000000      1.00000000      1.00000000</v>
   <i type="logical" name="LCORR"> T  </i>
  </separator>
  <i type="logical" name="GGA_COMPAT"> T  </i>
  <i type="logical" name="LBERRY"> F  </i>
  <i type="int" name="ICORELEVEL">     0</i>
  <i type="logical" name="LDAU"> F  </i>
  <i type="int" name="I_CONSTRAINED_M">     0</i>
  <separator name="electronic exchange-correlation" >
   <i type="string" name="GGA">--</i>
   <i type="int" name="VOSKOWN">     0</i>
   <i type="logical" name="LHFCALC"> F  </i>
   <i type="string" name="PRECFOCK"></i>
   <i type="logical" name="LSYMGRAD"> F  </i>
   <i type="logical" name="LHFONE"> F  </i>
   <i type="logical" name="LRHFCALC"> F  </i>
   <i type="logical" name="LTHOMAS"> F  </i>
   <i type="logical" name="LMODELHF"> F  </i>
   <i name="ENCUT4O">     -1.00000000</i>
   <i type="int" name="EXXOEP">     0</i>
   <i type="int" name="FOURORBIT">     0</i>
   <i name="AEXX">      0.00000000</i>
   <i name="HFALPHA">      0.00000000</i>
   <i name="MCALPHA">      0.00000000</i>
   <i name="ALDAX">      1.00000000</i>
   <i name="AGGAX">      1.00000000</i>
   <i name="ALDAC">      1.00000000</i>
   <i name="AGGAC">      1.00000000</i>
   <i type="int" name="NKREDX">     1</i>
   <i type="int" name="NKREDY">     1</i>
   <i type="int" name="NKREDZ">     1</i>
   <i type="logical" name="SHIFTRED"> F  </i>
   <i type="logical" name="ODDONLY"> F  </i>
   <i type="logical" name="EVENONLY"> F  </i>
   <i type="int" name="LMAXFOCK">     0</i>
   <i type="int" name="NMAXFOCKAE">     0</i>
   <i type="logical" name="LFOCKAEDFT"> F  </i>
   <i name="HFSCREEN">      0.00000000</i>
   <i name="HFSCREENC">      0.00000000</i>
   <i type="int" name="NBANDSGWLOW">     0</i>
  </separator>
  <separator name="vdW DFT" >
   <i type="logical" name="LUSE_VDW"> F  </i>
   <i name="Zab_VDW">     -0.84910000</i>
   <i name="PARAM1">      0.12340000</i>
   <i name="PARAM2">      1.00000000</i>
   <i name="PARAM3">      0.00000000</i>
  </separator>
  <separator name="model GW" >
   <i type="int" name="MODEL_GW">     0</i>
   <i name="MODEL_EPS0">     11.76723879</i>
   <i name="MODEL_ALPHA">      1.00000000</i>
  </separator>
  <separator name="linear response parameters" >
   <i type="logical" name="LEPSILON"> F  </i>
   <i type="logical" name="LRPA"> F  </i>
   <i type="logical" name="LNABLA"> F  </i>
   <i type="logical" name="LVEL"> F  </i>
   <i type="int" name="KINTER">     0</i>
   <i name="CSHIFT">      0.10000000</i>
   <i name="OMEGAMAX">     -1.00000000</i>
   <i name="DEG_THRESHOLD">      0.00200000</i>
  </separator>
  <separator name="orbital magnetization" >
   <i type="logical" name="NUCIND"> F  </i>
   <v name="MAGPOS">      0.00000000      0.00000000      0.00000000</v>
   <i type="logical" name="LNICSALL"> T  </i>
   <i type="logical" name="ORBITALMAG"> F  </i>
   <i type="logical" name="LMAGBLOCH"> F  </i>
   <i type="logical" name="LCHIMAG"> F  </i>
   <i type="logical" name="LGAUGE"> T  </i>
   <i type="int" name="MAGATOM">     0</i>
   <v name="MAGDIPOL">      0.00000000      0.00000000      0.00000000</v>
   <v name="AVECCONST">      0.00000000      0.00000000      0.00000000</v>
  </separator>
  <separator name="response functions" >
   <i type="logical" name="LADDER"> F  </i>
   <i type="logical" name="LFXC"> F  </i>
   <i type="logical" name="LHARTREE"> T  </i>
   <i type="int" name="IBSE">     0</i>
   <i type="logical" name="LTCTE"> F  </i>
   <i type="logical" name="LTETE"> F  </i>
   <i type="logical" name="LTRIPLET"> F  </i>
   <i type="logical" name="LFXCEPS"> F  </i>
   <i type="logical" name="L2ORDER"> F  </i>
   <i type="logical" name="LUSEW"> F  </i>
   <i name="ENCUTGW">     -2.00000000</i>
   <i name="ENCUTGWSOFT">     -2.00000000</i>
   <i name="ENCUTLF">     -1.00000000</i>
   <i type="int" name="LMAXMP2">    -1</i>
   <i name="SCISSOR">      0.00000000</i>
   <i type="int" name="NOMEGA">     0</i>
   <i type="int" name="NOMEGAR">     0</i>
   <i type="int" name="NBANDSGW">    -1</i>
   <i type="int" name="NBANDSO">    -1</i>
   <i type="int" name="NBANDSV">    -1</i>
   <i type="int" name="NELM">   100</i>
   <i type="int" name="DIM">     3</i>
   <i type="int" name="ANTIRES">     0</i>
   <i name="OMEGAMAX">    -30.00000000</i>
   <i name="OMEGATL">   -200.00000000</i>
   <i type="int" name="OMEGAGRID">     0</i>
   <i name="CSHIFT">     -0.10000000</i>
   <i type="logical" name="SELFENERGY"> F  </i>
   <i type="logical" name="LSPECTRAL"> F  </i>
   <i type="logical" name="ODDONLYGW"> F  </i>
   <i type="logical" name="EVENONLYGW"> F  </i>
   <i type="int" name="NKREDLFX">     1</i>
   <i type="int" name="NKREDLFY">     1</i>
   <i type="int" name="NKREDLFZ">     1</i>
   <i type="int" name="MAXMEM">  1800</i>
   <i type="int" name="TELESCOPE">     0</i>
  </separator>
 </parameters>
 <atominfo>
  <atoms>     120 </atoms>
  <types>       4 </types>
  <array name="atoms" >
   <dimension dim="1">ion</dimension>
   <field type="string">element</field>
   <field type="int">atomtype</field>
   <set>
    <rc><c>Sb</c><c>   1</c></rc>
    <rc><c>Sb</c><c>   1</c></rc>
    <rc><c>Sb</c><c>   1</c></rc>
    <rc><c>Sb</c><c>   1</c></rc>
    <rc><c>Sb</c><c>   1</c></rc>
    <rc><c>Sb</c><c>   1</c></rc>
    <rc><c>Sb</c><c>   1</c></rc>
    <rc><c>Sb</c><c>   1</c></rc>
    <rc><c>Sb</c><c>   1</c></rc>
    <rc><c>Sb</c><c>   1</c></rc>
    <rc><c>Sb</c><c>   1</c></rc>
    <rc><c>Sb</c><c>   1</c></rc>
    <rc><c>Sb</c><c>   1</c></rc>
    <rc><c>Sb</c><c>   1</c></rc>
    <rc><c>Sb</c><c>   1</c></rc>
    <rc><c>Sb</c><c>   1</c></rc>
    <rc><c>X </c><c>   2</c></rc>
    <rc><c>X </c><c>   2</c></rc>
    <rc><c>X </c><c>   2</c></rc>
    <rc><c>X </c><c>   2</c></rc>
    <rc><c>X </c><c>   2</c></rc>
    <rc><c>X </c><c>   2</c></rc>
    <rc><c>X </c><c>   2</c></rc>
    <rc><c>X </c><c>   2</c></rc>
    <rc><c>Cl</c><c>   3</c></rc>
    <rc><c>Cl</c><c>   3</c></rc>
    <rc><c>Cl</c><c>   3</c></rc>
    <rc><c>Cl</c><c>   3</c></rc>
    <rc><c>Cl</c><c>   3</c></rc>
    <rc><c>Cl</c><c>   3</c></rc>
    <rc><c>Cl</c><c>   3</c></rc>
    <rc><c>Cl</c><c>   3</c></rc>
    <rc><c>F </c><c>   4</c></rc>
    <rc><c>F </c><c>   4</c></rc>
    <rc><c>F </c><c>   4</c></rc>
    <rc><c>F </c><c>   4</c></rc>
    <rc><c>F </c><c>   4</c></rc>
    <rc><c>F </c><c>   4</c></rc>
    <rc><c>F </c><c>   4</c></rc>
    <rc><c>F </c><c>   4</c></rc>
    <rc><c>F </c><c>   4</c></rc>
    <rc><c>F </c><c>   4</c></rc>
    <rc><c>F </c><c>   4</c></rc>
    <rc><c>F </c><c>   4</c></rc>
    <rc><c>F </c><c>   4</c></rc>
    <rc><c>F </c><c>   4</c></rc>
    <rc><c>F </c><c>   4</c></rc>
    <rc><c>F </c><c>   4</c></rc>
    <rc><c>F </c><c>   4</c></rc>
    <rc><c>F </c><c>   4</c></rc>
    <rc><c>F </c><c>   4</c></rc>
    <rc><c>F </c><c>   4</c></rc>
    <rc><c>F </c><c>   4</c></rc>
    <rc><c>F </c><c>   4</c></rc>
    <rc><c>F </c><c>   4</c></rc>
    <rc><c>F </c><c>   4</c></rc>
    <rc><c>F </c><c>   4</c></rc>
    <rc><c>F </c><c>   4</c></rc>
    <rc><c>F </c><c>   4</c></rc>
    <rc><c>F </c><c>   4</c></rc>
    <rc><c>F </c><c>   4</c></rc>
    <rc><c>F </c><c>   4</c></rc>
    <rc><c>F </c><c>   4</c></rc>
    <rc><c>F </c><c>   4</c></rc>
    <rc><c>F </c><c>   4</c></rc>
    <rc><c>F </c><c>   4</c></rc>
    <rc><c>F </c><c>   4</c></rc>
    <rc><c>F </c><c>   4</c></rc>
    <rc><c>F </c><c>   4</c></rc>
    <rc><c>F </c><c>   4</c></rc>
    <rc><c>F </c><c>   4</c></rc>
    <rc><c>F </c><c>   4</c></rc>
    <rc><c>F </c><c>   4</c></rc>
    <rc><c>F </c><c>   4</c></rc>
    <rc><c>F </c><c>   4</c></rc>
    <rc><c>F </c><c>   4</c></rc>
    <rc><c>F </c><c>   4</c></rc>
    <rc><c>F </c><c>   4</c></rc>
    <rc><c>F </c><c>   4</c></rc>
    <rc><c>F </c><c>   4</c></rc>
    <rc><c>F </c><c>   4</c></rc>
    <rc><c>F </c><c>   4</c></rc>
    <rc><c>F </c><c>   4</c></rc>
    <rc><c>F </c><c>   4</c></rc>
    <rc><c>F </c><c>   4</c></rc>
    <rc><c>F </c><c>   4</c></rc>
    <rc><c>F </c><c>   4</c></rc>
    <rc><c>F </c><c>   4</c></rc>
    <rc><c>F </c><c>   4</c></rc>
    <rc><c>F </c><c>   4</c></rc>
    <rc><c>F </c><c>   4</c></rc>
    <rc><c>F </c><c>   4</c></rc>
    <rc><c>F </c><c>   4</c></rc>
    <rc><c>F </c><c>   4</c></rc>
    <rc><c>F </c><c>   4</c></rc>
    <rc><c>F </c><c>   4</c></rc>
    <rc><c>F </c><c>   4</c></rc>
    <rc><c>F </c><c>   4</c></rc>
    <rc><c>F </c><c>   4</c></rc>
    <rc><c>F </c><c>   4</c></rc>
    <rc><c>F </c><c>   4</c></rc>
    <rc><c>F </c><c>   4</c></rc>
    <rc><c>F </c><c>   4</c></rc>
    <rc><c>F </c><c>   4</c></rc>
    <rc><c>F </c><c>   4</c></rc>
    <rc><c>F </c><c>   4</c></rc>
    <rc><c>F </c><c>   4</c></rc>
    <rc><c>F </c><c>   4</c></rc>
    <rc><c>F </c><c>   4</c></rc>
    <rc><c>F </c><c>   4</c></rc>
    <rc><c>F </c><c>   4</c></rc>
    <rc><c>F </c><c>   4</c></rc>
    <rc><c>F </c><c>   4</c></rc>
    <rc><c>F </c><c>   4</c></rc>
    <rc><c>F </c><c>   4</c></rc>
    <rc><c>F </c><c>   4</c></rc>
    <rc><c>F </c><c>   4</c></rc>
    <rc><c>F </c><c>   4</c></rc>
    <rc><c>F </c><c>   4</c></rc>
    <rc><c>F </c><c>   4</c></rc>
   </set>
  </array>
  <array name="atomtypes" >
   <dimension dim="1">type</dimension>
   <field type="int">atomspertype</field>
   <field type="string">element</field>
   <field>mass</field>
   <field>valence</field>
   <field type="string">pseudopotential</field>
   <set>
    <rc><c>  16</c><c>Sb</c><c>    121.75000000</c><c>      5.00000000</c><c> PAW_PBE Sb 06Sep2000                   </c></rc>
    <rc><c>   8</c><c>X </c><c>    131.29400000</c><c>      8.00000000</c><c> PAW_PBE Xe 07Sep2000                   </c></rc>
    <rc><c>   8</c><c>Cl</c><c>     35.45300000</c><c>      7.00000000</c><c>  PAW_PBE Cl 17Jan2003                  </c></rc>
    <rc><c>  88</c><c>F </c><c>     18.99800000</c><c>      7.00000000</c><c> PAW_PBE F 08Apr2002                    </c></rc>
   </set>
  </array>
 </atominfo>
 <structure name="initialpos" >
  <crystal>
   <varray name="basis" >
    <v>      18.03003881       0.00000000       0.00000000 </v>
    <v>       0.00000000       7.53539158       0.00000000 </v>
    <v>       0.00000000       0.00000000      17.32216116 </v>
   </varray>
   <i name="volume">   2353.44775741 </i>
   <varray name="rec_basis" >
    <v>       0.05546300       0.00000000       0.00000000 </v>
    <v>       0.00000000       0.13270710       0.00000000 </v>
    <v>       0.00000000       0.00000000       0.05772952 </v>
   </varray>
  </crystal>
  <varray name="positions" >
   <v>       0.83162289       0.14352411       0.41363756 </v>
   <v>       0.16837711       0.85647589       0.91363756 </v>
   <v>       0.66837711       0.64352411       0.91363756 </v>
   <v>       0.33162289       0.35647589       0.41363756 </v>
   <v>       0.70032351       0.55824722       0.38483959 </v>
   <v>       0.29967649       0.44175278       0.88483959 </v>
   <v>       0.79967649       0.05824722       0.88483959 </v>
   <v>       0.20032351       0.94175278       0.38483959 </v>
   <v>       0.53144645       0.44557575       0.15829665 </v>
   <v>       0.46855355       0.55442425       0.65829665 </v>
   <v>       0.96855355       0.94557575       0.65829665 </v>
   <v>       0.03144645       0.05442425       0.15829665 </v>
   <v>       0.40257672       0.86488847       0.13668907 </v>
   <v>       0.59742328       0.13511153       0.63668907 </v>
   <v>       0.09742328       0.36488847       0.63668907 </v>
   <v>       0.90257672       0.63511153       0.13668907 </v>
   <v>       0.97735418       0.65709414       0.39446364 </v>
   <v>       0.02264582       0.34290586       0.89446364 </v>
   <v>       0.52264582       0.15709414       0.89446364 </v>
   <v>       0.47735418       0.84290586       0.39446364 </v>
   <v>       0.25553525       0.34141628       0.16042472 </v>
   <v>       0.74446475       0.65858372       0.66042472 </v>
   <v>       0.24446475       0.84141628       0.66042472 </v>
   <v>       0.75553525       0.15858372       0.16042472 </v>
   <v>       0.04596220       0.39192825       0.38142114 </v>
   <v>       0.95403780       0.60807175       0.88142114 </v>
   <v>       0.45403780       0.89192825       0.88142114 </v>
   <v>       0.54596220       0.10807175       0.38142114 </v>
   <v>       0.18686376       0.60820422       0.15770365 </v>
   <v>       0.81313624       0.39179578       0.65770365 </v>
   <v>       0.31313624       0.10820422       0.65770365 </v>
   <v>       0.68686376       0.89179578       0.15770365 </v>
   <v>       0.89073537       0.27461748       0.48497654 </v>
   <v>       0.10926463       0.72538252       0.98497654 </v>
   <v>       0.60926463       0.77461748       0.98497654 </v>
   <v>       0.39073537       0.22538252       0.48497654 </v>
   <v>       0.78634057       0.01793799       0.49598546 </v>
   <v>       0.21365943       0.98206201       0.99598546 </v>
   <v>       0.71365943       0.51793799       0.99598546 </v>
   <v>       0.28634057       0.48206201       0.49598546 </v>
   <v>       0.76297239       0.04459618       0.34216361 </v>
   <v>       0.23702761       0.95540382       0.84216361 </v>
   <v>       0.73702761       0.54459618       0.84216361 </v>
   <v>       0.26297239       0.45540382       0.34216361 </v>
   <v>       0.75251841       0.33691772       0.43234038 </v>
   <v>       0.24748159       0.66308228       0.93234038 </v>
   <v>       0.74748159       0.83691772       0.93234038 </v>
   <v>       0.25251841       0.16308228       0.43234038 </v>
   <v>       0.86905374       0.28891049       0.33191043 </v>
   <v>       0.13094626       0.71108951       0.83191043 </v>
   <v>       0.63094626       0.78891049       0.83191043 </v>
   <v>       0.36905374       0.21108951       0.33191043 </v>
   <v>       0.90611651       0.96384860       0.39629273 </v>
   <v>       0.09388349       0.03615140       0.89629273 </v>
   <v>       0.59388349       0.46384860       0.89629273 </v>
   <v>       0.40611651       0.53615140       0.39629273 </v>
   <v>       0.61106610       0.42078582       0.39369937 </v>
   <v>       0.38893390       0.57921418       0.89369937 </v>
   <v>       0.88893390       0.92078582       0.89369937 </v>
   <v>       0.11106610       0.07921418       0.39369937 </v>
   <v>       0.65038946       0.75654953       0.34240344 </v>
   <v>       0.34961054       0.24345047       0.84240344 </v>
   <v>       0.84961054       0.25654953       0.84240344 </v>
   <v>       0.15038946       0.74345047       0.34240344 </v>
   <v>       0.79704547       0.65978520       0.38426881 </v>
   <v>       0.20295453       0.34021480       0.88426881 </v>
   <v>       0.70295453       0.15978520       0.88426881 </v>
   <v>       0.29704547       0.84021480       0.38426881 </v>
   <v>       0.68781471       0.63361345       0.48906768 </v>
   <v>       0.31218529       0.36638655       0.98906768 </v>
   <v>       0.81218529       0.13361345       0.98906768 </v>
   <v>       0.18781471       0.86638655       0.48906768 </v>
   <v>       0.71922141       0.45255072       0.28709620 </v>
   <v>       0.28077859       0.54744928       0.78709620 </v>
   <v>       0.78077859       0.95255072       0.78709620 </v>
   <v>       0.21922141       0.04744928       0.28709620 </v>
   <v>       0.43359956       0.35027810       0.15752995 </v>
   <v>       0.56640044       0.64972190       0.65752995 </v>
   <v>       0.06640044       0.85027810       0.65752995 </v>
   <v>       0.93359956       0.14972190       0.15752995 </v>
   <v>       0.57980098       0.23826727       0.19411373 </v>
   <v>       0.42019902       0.76173273       0.69411373 </v>
   <v>       0.92019902       0.73826727       0.69411373 </v>
   <v>       0.07980098       0.26173273       0.19411373 </v>
   <v>       0.48355370       0.67826060       0.11729507 </v>
   <v>       0.51644630       0.32173940       0.61729507 </v>
   <v>       0.01644630       0.17826060       0.61729507 </v>
   <v>       0.98355370       0.82173940       0.11729507 </v>
   <v>       0.62244357       0.57749931       0.15228845 </v>
   <v>       0.37755643       0.42250069       0.65228845 </v>
   <v>       0.87755643       0.07749931       0.65228845 </v>
   <v>       0.12244357       0.92250069       0.15228845 </v>
   <v>       0.51398351       0.54088527       0.25830115 </v>
   <v>       0.48601649       0.45911473       0.75830115 </v>
   <v>       0.98601649       0.04088527       0.75830115 </v>
   <v>       0.01398351       0.95911473       0.25830115 </v>
   <v>       0.54213009       0.38380061       0.05202419 </v>
   <v>       0.45786991       0.61619939       0.55202419 </v>
   <v>       0.95786991       0.88380061       0.55202419 </v>
   <v>       0.04213009       0.11619939       0.05202419 </v>
   <v>       0.34839436       0.74731600       0.05778749 </v>
   <v>       0.65160564       0.25268400       0.55778749 </v>
   <v>       0.15160564       0.24731600       0.55778749 </v>
   <v>       0.84839436       0.75268400       0.05778749 </v>
   <v>       0.46609181       0.95857532       0.21440426 </v>
   <v>       0.53390819       0.04142468       0.71440426 </v>
   <v>       0.03390819       0.45857532       0.71440426 </v>
   <v>       0.96609181       0.54142468       0.21440426 </v>
   <v>       0.45325633       0.00295751       0.06138865 </v>
   <v>       0.54674367       0.99704249       0.56138865 </v>
   <v>       0.04674367       0.50295751       0.56138865 </v>
   <v>       0.95325633       0.49704249       0.06138865 </v>
   <v>       0.36131364       0.70644242       0.21116251 </v>
   <v>       0.63868636       0.29355758       0.71116251 </v>
   <v>       0.13868636       0.20644242       0.71116251 </v>
   <v>       0.86131364       0.79355758       0.21116251 </v>
   <v>       0.32615497       0.04045006       0.15241388 </v>
   <v>       0.67384503       0.95954994       0.65241388 </v>
   <v>       0.17384503       0.54045006       0.65241388 </v>
   <v>       0.82615497       0.45954994       0.15241388 </v>
  </varray>
 </structure>
 <calculation>
  <scstep>
   <time name="dav">  482.02  483.03</time>
   <time name="total">  487.29  488.32</time>
   <energy>
    <i name="alphaZ">   1612.47830494 </i>
    <i name="ewald"> -36786.50654503 </i>
    <i name="hartreedc"> -26542.09242873 </i>
    <i name="XCdc">   2498.25393266 </i>
    <i name="pawpsdc">  42953.47726810 </i>
    <i name="pawaedc"> -42224.56960749 </i>
    <i name="eentropy">     -0.02726879 </i>
    <i name="bandstr">  -2232.63228447 </i>
    <i name="atom">  67140.38917757 </i>
    <i name="e_fr_energy">   6418.77054875 </i>
    <i name="e_wo_entrp">   6418.79781755 </i>
    <i name="e_0_energy">   6418.78418315 </i>
   </energy>
  </scstep>
  <scstep>
   <time name="dav">  345.66  346.34</time>
   <time name="total">  345.67  346.35</time>
   <energy>
    <i name="e_fr_energy">    693.94497858 </i>
    <i name="e_wo_entrp">    693.96293027 </i>
    <i name="e_0_energy">    693.95395442 </i>
   </energy>
  </scstep>
  <scstep>
   <time name="dav">  497.57  498.53</time>
   <time name="total">  497.58  498.55</time>
   <energy>
    <i name="e_fr_energy">   -498.23864654 </i>
    <i name="e_wo_entrp">   -498.23864654 </i>
    <i name="e_0_energy">   -498.23864654 </i>
   </energy>
  </scstep>
  <scstep>
   <time name="dav">  353.20  354.22</time>
   <time name="total">  353.20  354.23</time>
   <energy>
    <i name="e_fr_energy">   -534.87345898 </i>
    <i name="e_wo_entrp">   -534.87345898 </i>
    <i name="e_0_energy">   -534.87345898 </i>
   </energy>
  </scstep>
  <scstep>
   <time name="dav">  581.89  583.31</time>
   <time name="total">  603.95  605.42</time>
   <energy>
    <i name="e_fr_energy">   -538.55415785 </i>
    <i name="e_wo_entrp">   -538.55415785 </i>
    <i name="e_0_energy">   -538.55415785 </i>
   </energy>
  </scstep>
  <scstep>
   <time name="diag">   66.81   66.94</time>
   <time name="diis">  193.06  193.43</time>
   <time name="orth">   11.30   11.32</time>
   <time name="total">  299.67  300.43</time>
   <energy>
    <i name="e_fr_energy">   -271.31675192 </i>
    <i name="e_wo_entrp">   -271.31675192 </i>
    <i name="e_0_energy">   -271.31675192 </i>
   </energy>
  </scstep>
  <scstep>
   <time name="diag">   64.21   64.33</time>
   <time name="diis">  188.88  189.25</time>
   <time name="orth">   11.20   11.22</time>
   <time name="total">  292.59  293.61</time>
   <energy>
    <i name="e_fr_energy">   -324.78863794 </i>
    <i name="e_wo_entrp">   -324.78863794 </i>
    <i name="e_0_energy">   -324.78863794 </i>
   </energy>
  </scstep>
  <scstep>
   <time name="diag">   66.12   66.32</time>
   <time name="diis">  244.81  245.54</time>
   <time name="orth">   11.22   11.25</time>
   <time name="total">  350.76  351.88</time>
   <energy>
    <i name="e_fr_energy">   -384.93630797 </i>
    <i name="e_wo_entrp">   -384.93630797 </i>
    <i name="e_0_energy">   -384.93630797 </i>
   </energy>
  </scstep>
  <scstep>
   <time name="diag">   64.60   64.71</time>
   <time name="diis">  241.39  241.94</time>
   <time name="orth">   11.31   11.33</time>
   <time name="total">  344.79  345.70</time>
   <energy>
    <i name="e_fr_energy">   -419.57753946 </i>
    <i name="e_wo_entrp">   -419.57753946 </i>
    <i name="e_0_energy">   -419.57753946 </i>
   </energy>
  </scstep>
  <scstep>
   <time name="diag">   64.89   65.05</time>
   <time name="diis">  223.89  224.45</time>
   <time name="orth">   11.27   11.30</time>
   <time name="total">  328.25  329.06</time>
   <energy>
    <i name="e_fr_energy">   -446.83483730 </i>
    <i name="e_wo_entrp">   -446.83483730 </i>
    <i name="e_0_energy">   -446.83483730 </i>
   </energy>
  </scstep>
  <scstep>
   <time name="diag">   66.35   66.49</time>
   <time name="diis">  215.07  215.51</time>
   <time name="orth">   11.28   11.31</time>
   <time name="total">  320.50  321.39</time>
   <energy>
    <i name="e_fr_energy">   -459.04894299 </i>
    <i name="e_wo_entrp">   -459.04894299 </i>
    <i name="e_0_energy">   -459.04894299 </i>
   </energy>
  </scstep>
  <scstep>
   <time name="diag">   65.30   65.43</time>
   <time name="diis">  207.87  208.28</time>
   <time name="orth">   11.17   11.19</time>
   <time name="total">  312.84  313.45</time>
   <energy>
    <i name="e_fr_energy">   -467.63052861 </i>
    <i name="e_wo_entrp">   -467.63052861 </i>
    <i name="e_0_energy">   -467.63052861 </i>
   </energy>
  </scstep>
  <scstep>
   <time name="diag">   66.05   66.21</time>
   <time name="diis">  206.76  207.28</time>
   <time name="orth">   11.28   11.30</time>
   <time name="total">  312.64  313.65</time>
   <energy>
    <i name="e_fr_energy">   -468.78203025 </i>
    <i name="e_wo_entrp">   -468.78203025 </i>
    <i name="e_0_energy">   -468.78203025 </i>
   </energy>
  </scstep>
  <scstep>
   <time name="diag">   65.74   65.86</time>
   <time name="diis">  186.92  187.35</time>
   <time name="orth">   11.26   11.28</time>
   <time name="total">  292.26  292.99</time>
   <energy>
    <i name="e_fr_energy">   -469.00032579 </i>
    <i name="e_wo_entrp">   -469.00032579 </i>
    <i name="e_0_energy">   -469.00032579 </i>
   </energy>
  </scstep>
  <scstep>
   <time name="diag">   64.31   64.50</time>
   <time name="diis">  131.78  132.17</time>
   <time name="orth">   11.21   11.24</time>
   <time name="total">  212.83  213.54</time>
   <energy>
    <i name="alphaZ">   1612.47830494 </i>
    <i name="ewald"> -36786.50654503 </i>
    <i name="hartreedc"> -27725.60898347 </i>
    <i name="XCdc">   2572.14103072 </i>
    <i name="pawpsdc">  46675.73757679 </i>
    <i name="pawaedc"> -45957.52027777 </i>
    <i name="eentropy">     -0.00000000 </i>
    <i name="bandstr">  -8000.10540809 </i>
    <i name="atom">  67140.38917757 </i>
    <i name="e_fr_energy">   -468.99512433 </i>
    <i name="e_wo_entrp">   -468.99512433 </i>
    <i name="e_0_energy">   -468.99512433 </i>
   </energy>
  </scstep>
  <structure>
   <crystal>
    <varray name="basis" >
     <v>      18.03003881       0.00000000       0.00000000 </v>
     <v>       0.00000000       7.53539158       0.00000000 </v>
     <v>       0.00000000       0.00000000      17.32216116 </v>
    </varray>
    <i name="volume">   2353.44775741 </i>
    <varray name="rec_basis" >
     <v>       0.05546300       0.00000000       0.00000000 </v>
     <v>       0.00000000       0.13270710       0.00000000 </v>
     <v>       0.00000000       0.00000000       0.05772952 </v>
    </varray>
   </crystal>
   <varray name="positions" >
    <v>       0.83162289       0.14352411       0.41363756 </v>
    <v>       0.16837711       0.85647589       0.91363756 </v>
    <v>       0.66837711       0.64352411       0.91363756 </v>
    <v>       0.33162289       0.35647589       0.41363756 </v>
    <v>       0.70032351       0.55824722       0.38483959 </v>
    <v>       0.29967649       0.44175278       0.88483959 </v>
    <v>       0.79967649       0.05824722       0.88483959 </v>
    <v>       0.20032351       0.94175278       0.38483959 </v>
    <v>       0.53144645       0.44557575       0.15829665 </v>
    <v>       0.46855355       0.55442425       0.65829665 </v>
    <v>       0.96855355       0.94557575       0.65829665 </v>
    <v>       0.03144645       0.05442425       0.15829665 </v>
    <v>       0.40257672       0.86488847       0.13668907 </v>
    <v>       0.59742328       0.13511153       0.63668907 </v>
    <v>       0.09742328       0.36488847       0.63668907 </v>
    <v>       0.90257672       0.63511153       0.13668907 </v>
    <v>       0.97735418       0.65709414       0.39446364 </v>
    <v>       0.02264582       0.34290586       0.89446364 </v>
    <v>       0.52264582       0.15709414       0.89446364 </v>
    <v>       0.47735418       0.84290586       0.39446364 </v>
    <v>       0.25553525       0.34141628       0.16042472 </v>
    <v>       0.74446475       0.65858372       0.66042472 </v>
    <v>       0.24446475       0.84141628       0.66042472 </v>
    <v>       0.75553525       0.15858372       0.16042472 </v>
    <v>       0.04596220       0.39192825       0.38142114 </v>
    <v>       0.95403780       0.60807175       0.88142114 </v>
    <v>       0.45403780       0.89192825       0.88142114 </v>
    <v>       0.54596220       0.10807175       0.38142114 </v>
    <v>       0.18686376       0.60820422       0.15770365 </v>
    <v>       0.81313624       0.39179578       0.65770365 </v>
    <v>       0.31313624       0.10820422       0.65770365 </v>
    <v>       0.68686376       0.89179578       0.15770365 </v>
    <v>       0.89073537       0.27461748       0.48497654 </v>
    <v>       0.10926463       0.72538252       0.98497654 </v>
    <v>       0.60926463       0.77461748       0.98497654 </v>
    <v>       0.39073537       0.22538252       0.48497654 </v>
    <v>       0.78634057       0.01793799       0.49598546 </v>
    <v>       0.21365943       0.98206201       0.99598546 </v>
    <v>       0.71365943       0.51793799       0.99598546 </v>
    <v>       0.28634057       0.48206201       0.49598546 </v>
    <v>       0.76297239       0.04459618       0.34216361 </v>
    <v>       0.23702761       0.95540382       0.84216361 </v>
    <v>       0.73702761       0.54459618       0.84216361 </v>
    <v>       0.26297239       0.45540382       0.34216361 </v>
    <v>       0.75251841       0.33691772       0.43234038 </v>
    <v>       0.24748159       0.66308228       0.93234038 </v>
    <v>       0.74748159       0.83691772       0.93234038 </v>
    <v>       0.25251841       0.16308228       0.43234038 </v>
    <v>       0.86905374       0.28891049       0.33191043 </v>
    <v>       0.13094626       0.71108951       0.83191043 </v>
    <v>       0.63094626       0.78891049       0.83191043 </v>
    <v>       0.36905374       0.21108951       0.33191043 </v>
    <v>       0.90611651       0.96384860       0.39629273 </v>
    <v>       0.09388349       0.03615140       0.89629273 </v>
    <v>       0.59388349       0.46384860       0.89629273 </v>
    <v>       0.40611651       0.53615140       0.39629273 </v>
    <v>       0.61106610       0.42078582       0.39369937 </v>
    <v>       0.38893390       0.57921418       0.89369937 </v>
    <v>       0.88893390       0.92078582       0.89369937 </v>
    <v>       0.11106610       0.07921418       0.39369937 </v>
    <v>       0.65038946       0.75654953       0.34240344 </v>
    <v>       0.34961054       0.24345047       0.84240344 </v>
    <v>       0.84961054       0.25654953       0.84240344 </v>
    <v>       0.15038946       0.74345047       0.34240344 </v>
    <v>       0.79704547       0.65978520       0.38426881 </v>
    <v>       0.20295453       0.34021480       0.88426881 </v>
    <v>       0.70295453       0.15978520       0.88426881 </v>
    <v>       0.29704547       0.84021480       0.38426881 </v>
    <v>       0.68781471       0.63361345       0.48906768 </v>
    <v>       0.31218529       0.36638655       0.98906768 </v>
    <v>       0.81218529       0.13361345       0.98906768 </v>
    <v>       0.18781471       0.86638655       0.48906768 </v>
    <v>       0.71922141       0.45255072       0.28709620 </v>
    <v>       0.28077859       0.54744928       0.78709620 </v>
    <v>       0.78077859       0.95255072       0.78709620 </v>
    <v>       0.21922141       0.04744928       0.28709620 </v>
    <v>       0.43359956       0.35027810       0.15752995 </v>
    <v>       0.56640044       0.64972190       0.65752995 </v>
    <v>       0.06640044       0.85027810       0.65752995 </v>
    <v>       0.93359956       0.14972190       0.15752995 </v>
    <v>       0.57980098       0.23826727       0.19411373 </v>
    <v>       0.42019902       0.76173273       0.69411373 </v>
    <v>       0.92019902       0.73826727       0.69411373 </v>
    <v>       0.07980098       0.26173273       0.19411373 </v>
    <v>       0.48355370       0.67826060       0.11729507 </v>
    <v>       0.51644630       0.32173940       0.61729507 </v>
    <v>       0.01644630       0.17826060       0.61729507 </v>
    <v>       0.98355370       0.82173940       0.11729507 </v>
    <v>       0.62244357       0.57749931       0.15228845 </v>
    <v>       0.37755643       0.42250069       0.65228845 </v>
    <v>       0.87755643       0.07749931       0.65228845 </v>
    <v>       0.12244357       0.92250069       0.15228845 </v>
    <v>       0.51398351       0.54088527       0.25830115 </v>
    <v>       0.48601649       0.45911473       0.75830115 </v>
    <v>       0.98601649       0.04088527       0.75830115 </v>
    <v>       0.01398351       0.95911473       0.25830115 </v>
    <v>       0.54213009       0.38380061       0.05202419 </v>
    <v>       0.45786991       0.61619939       0.55202419 </v>
    <v>       0.95786991       0.88380061       0.55202419 </v>
    <v>       0.04213009       0.11619939       0.05202419 </v>
    <v>       0.34839436       0.74731600       0.05778749 </v>
    <v>       0.65160564       0.25268400       0.55778749 </v>
    <v>       0.15160564       0.24731600       0.55778749 </v>
    <v>       0.84839436       0.75268400       0.05778749 </v>
    <v>       0.46609181       0.95857532       0.21440426 </v>
    <v>       0.53390819       0.04142468       0.71440426 </v>
    <v>       0.03390819       0.45857532       0.71440426 </v>
    <v>       0.96609181       0.54142468       0.21440426 </v>
    <v>       0.45325633       0.00295751       0.06138865 </v>
    <v>       0.54674367       0.99704249       0.56138865 </v>
    <v>       0.04674367       0.50295751       0.56138865 </v>
    <v>       0.95325633       0.49704249       0.06138865 </v>
    <v>       0.36131364       0.70644242       0.21116251 </v>
    <v>       0.63868636       0.29355758       0.71116251 </v>
    <v>       0.13868636       0.20644242       0.71116251 </v>
    <v>       0.86131364       0.79355758       0.21116251 </v>
    <v>       0.32615497       0.04045006       0.15241388 </v>
    <v>       0.67384503       0.95954994       0.65241388 </v>
    <v>       0.17384503       0.54045006       0.65241388 </v>
    <v>       0.82615497       0.45954994       0.15241388 </v>
   </varray>
  </structure>
  <varray name="forces" >
   <v>       0.09728039       0.03105188      -0.04150683 </v>
   <v>      -0.09728039      -0.03105188      -0.04150683 </v>
   <v>      -0.09728039       0.03105188      -0.04150683 </v>
   <v>       0.09728039      -0.03105188      -0.04150683 </v>
   <v>       0.03908396      -0.09174806       0.04578988 </v>
   <v>      -0.03908396       0.09174806       0.04578988 </v>
   <v>      -0.03908396      -0.09174806       0.04578988 </v>
   <v>       0.03908396       0.09174806       0.04578988 </v>
   <v>      -0.04390461       0.09279519      -0.08541280 </v>
   <v>       0.04390461      -0.09279519      -0.08541280 </v>
   <v>       0.04390461       0.09279519      -0.08541280 </v>
   <v>      -0.04390461      -0.09279519      -0.08541280 </v>
   <v>      -0.01858718       0.02646506       0.00372108 </v>
   <v>       0.01858718      -0.02646506       0.00372108 </v>
   <v>       0.01858718       0.02646506       0.00372108 </v>
   <v>      -0.01858718      -0.02646506       0.00372108 </v>
   <v>       0.00723708      -0.02260243      -0.01041571 </v>
   <v>      -0.00723708       0.02260243      -0.01041571 </v>
   <v>      -0.00723708      -0.02260243      -0.01041571 </v>
   <v>       0.00723708       0.02260243      -0.01041571 </v>
   <v>      -0.01642615       0.00395272      -0.04953713 </v>
   <v>       0.01642615      -0.00395272      -0.04953713 </v>
   <v>       0.01642615       0.00395272      -0.04953713 </v>
   <v>      -0.01642615      -0.00395272      -0.04953713 </v>
   <v>       0.00315549       0.04343084       0.05062520 </v>
   <v>      -0.00315549      -0.04343084       0.05062520 </v>
   <v>      -0.00315549       0.04343084       0.05062520 </v>
   <v>       0.00315549      -0.04343084       0.05062520 </v>
   <v>      -0.02446561      -0.03375151      -0.00081615 </v>
   <v>       0.02446561       0.03375151      -0.00081615 </v>
   <v>       0.02446561      -0.03375151      -0.00081615 </v>
   <v>      -0.02446561       0.03375151      -0.00081615 </v>
   <v>      -0.05427351      -0.07834884      -0.13471499 </v>
   <v>       0.05427351       0.07834884      -0.13471499 </v>
   <v>       0.05427351      -0.07834884      -0.13471499 </v>
   <v>      -0.05427351       0.07834884      -0.13471499 </v>
   <v>       0.02055082      -0.00907786      -0.06047174 </v>
   <v>      -0.02055082       0.00907786      -0.06047174 </v>
   <v>      -0.02055082      -0.00907786      -0.06047174 </v>
   <v>       0.02055082       0.00907786      -0.06047174 </v>
   <v>       0.05309359       0.00612496       0.07721588 </v>
   <v>      -0.05309359      -0.00612496       0.07721588 </v>
   <v>      -0.05309359       0.00612496       0.07721588 </v>
   <v>       0.05309359      -0.00612496       0.07721588 </v>
   <v>      -0.07094427       0.04383681       0.04565936 </v>
   <v>       0.07094427      -0.04383681       0.04565936 </v>
   <v>       0.07094427       0.04383681       0.04565936 </v>
   <v>      -0.07094427      -0.04383681       0.04565936 </v>
   <v>      -0.00815715      -0.16367865       0.19218318 </v>
   <v>       0.00815715       0.16367865       0.19218318 </v>
   <v>       0.00815715      -0.16367865       0.19218318 </v>
   <v>      -0.00815715       0.16367865       0.19218318 </v>
   <v>       0.04778165       0.01756766      -0.01716879 </v>
   <v>      -0.04778165      -0.01756766      -0.01716879 </v>
   <v>      -0.04778165       0.01756766      -0.01716879 </v>
   <v>       0.04778165      -0.01756766      -0.01716879 </v>
   <v>       0.05166864       0.03722830      -0.00629703 </v>
   <v>      -0.05166864      -0.03722830      -0.00629703 </v>
   <v>      -0.05166864       0.03722830      -0.00629703 </v>
   <v>       0.05166864      -0.03722830      -0.00629703 </v>
   <v>      -0.03602704       0.04177066       0.02744564 </v>
   <v>       0.03602704      -0.04177066       0.02744564 </v>
   <v>       0.03602704       0.04177066       0.02744564 </v>
   <v>      -0.03602704      -0.04177066       0.02744564 </v>
   <v>      -0.08001910      -0.01223516       0.02011365 </v>
   <v>       0.08001910       0.01223516       0.02011365 </v>
   <v>       0.08001910      -0.01223516       0.02011365 </v>
   <v>      -0.08001910       0.01223516       0.02011365 </v>
   <v>      -0.02804418      -0.00244901      -0.14818071 </v>
   <v>       0.02804418       0.00244901      -0.14818071 </v>
   <v>       0.02804418      -0.00244901      -0.14818071 </v>
   <v>      -0.02804418       0.00244901      -0.14818071 </v>
   <v>      -0.06459265       0.02434810       0.06605807 </v>
   <v>       0.06459265      -0.02434810       0.06605807 </v>
   <v>       0.06459265       0.02434810       0.06605807 </v>
   <v>      -0.06459265      -0.02434810       0.06605807 </v>
   <v>       0.14511886       0.03314318      -0.00650807 </v>
   <v>      -0.14511886      -0.03314318      -0.00650807 </v>
   <v>      -0.14511886       0.03314318      -0.00650807 </v>
   <v>       0.14511886      -0.03314318      -0.00650807 </v>
   <v>       0.03524278      -0.02394813       0.01132924 </v>
   <v>      -0.03524278       0.02394813       0.01132924 </v>
   <v>      -0.03524278      -0.02394813       0.01132924 </v>
   <v>       0.03524278       0.02394813       0.01132924 </v>
   <v>       0.10885906      -0.02681210      -0.10504560 </v>
   <v>      -0.10885906       0.02681210      -0.10504560 </v>
   <v>      -0.10885906      -0.02681210      -0.10504560 </v>
   <v>       0.10885906       0.02681210      -0.10504560 </v>
   <v>      -0.08162012      -0.05128349       0.00538880 </v>
   <v>       0.08162012       0.05128349       0.00538880 </v>
   <v>       0.08162012      -0.05128349       0.00538880 </v>
   <v>      -0.08162012       0.05128349       0.00538880 </v>
   <v>       0.07145985      -0.05799011      -0.05511180 </v>
   <v>      -0.07145985       0.05799011      -0.05511180 </v>
   <v>      -0.07145985      -0.05799011      -0.05511180 </v>
   <v>       0.07145985       0.05799011      -0.05511180 </v>
   <v>       0.01002153       0.02508453       0.16822616 </v>
   <v>      -0.01002153      -0.02508453       0.16822616 </v>
   <v>      -0.01002153       0.02508453       0.16822616 </v>
   <v>       0.01002153      -0.02508453       0.16822616 </v>
   <v>       0.05742220       0.10778406       0.12573417 </v>
   <v>      -0.05742220      -0.10778406       0.12573417 </v>
   <v>      -0.05742220       0.10778406       0.12573417 </v>
   <v>       0.05742220      -0.10778406       0.12573417 </v>
   <v>      -0.11571082      -0.06255458      -0.08213305 </v>
   <v>       0.11571082       0.06255458      -0.08213305 </v>
   <v>       0.11571082      -0.06255458      -0.08213305 </v>
   <v>      -0.11571082       0.06255458      -0.08213305 </v>
   <v>      -0.07075445      -0.03086058       0.06225907 </v>
   <v>       0.07075445       0.03086058       0.06225907 </v>
   <v>       0.07075445      -0.03086058       0.06225907 </v>
   <v>      -0.07075445       0.03086058       0.06225907 </v>
   <v>       0.01685795       0.17532014      -0.09160761 </v>
   <v>      -0.01685795      -0.17532014      -0.09160761 </v>
   <v>      -0.01685795       0.17532014      -0.09160761 </v>
   <v>       0.01685795      -0.17532014      -0.09160761 </v>
   <v>      -0.08358053       0.01431006      -0.00682133 </v>
   <v>       0.08358053      -0.01431006      -0.00682133 </v>
   <v>       0.08358053       0.01431006      -0.00682133 </v>
   <v>      -0.08358053      -0.01431006      -0.00682133 </v>
  </varray>
  <varray name="stress" >
   <v>       3.50455625       0.00000000       0.00000000 </v>
   <v>       0.00000000       1.64910580       0.00000000 </v>
   <v>       0.00000000       0.00000000       3.29085595 </v>
  </varray>
  <energy>
   <i name="e_fr_energy">   -468.99512433 </i>
   <i name="e_wo_entrp">   -468.99512433 </i>
   <i name="e_0_energy">     -0.00000000 </i>
  </energy>
  <time name="totalsc"> 5740.43 5757.16</time>
 </calculation>
 <calculation>
  <scstep>
   <time name="dav">  461.02  462.00</time>
   <time name="total">  489.40  490.44</time>
   <energy>
    <i name="alphaZ">   1604.46449014 </i>
    <i name="ewald"> -36658.64007425 </i>
    <i name="hartreedc"> -27731.04712617 </i>
    <i name="XCdc">   2566.96805309 </i>
    <i name="pawpsdc">  46680.30114911 </i>
    <i name="pawaedc"> -45962.24408592 </i>
    <i name="eentropy">     -0.00000000 </i>
    <i name="bandstr">  -8109.36604094 </i>
    <i name="atom">  67140.38917757 </i>
    <i name="e_fr_energy">   -469.17445737 </i>
    <i name="e_wo_entrp">   -469.17445737 </i>
    <i name="e_0_energy">   -469.17445737 </i>
   </energy>
  </scstep>
  <scstep>
   <time name="diag">   66.90   67.04</time>
   <time name="diis">  216.60  217.08</time>
   <time name="orth">   11.31   11.34</time>
   <time name="total">  322.84  323.55</time>
   <energy>
    <i name="e_fr_energy">   -468.98747877 </i>
    <i name="e_wo_entrp">   -468.98747877 </i>
    <i name="e_0_energy">   -468.98747877 </i>
   </energy>
  </scstep>
  <scstep>
   <time name="diag">   67.04   67.18</time>
   <time name="diis">  176.19  176.57</time>
   <time name="orth">   11.34   11.36</time>
   <time name="total">  282.59  283.19</time>
   <energy>
    <i name="e_fr_energy">   -469.04632399 </i>
    <i name="e_wo_entrp">   -469.04632399 </i>
    <i name="e_0_energy">   -469.04632399 </i>
   </energy>
  </scstep>
  <scstep>
   <time name="diag">   66.90   67.04</time>
   <time name="diis">  178.54  178.92</time>
   <time name="orth">   11.29   11.31</time>
   <time name="total">  284.64  285.25</time>
   <energy>
    <i name="e_fr_energy">   -469.04367085 </i>
    <i name="e_wo_entrp">   -469.04367085 </i>
    <i name="e_0_energy">   -469.04367085 </i>
   </energy>
  </scstep>
  <scstep>
   <time name="diag">   65.97   66.10</time>
   <time name="diis">  123.91  124.16</time>
   <time name="orth">   11.22   11.24</time>
   <time name="total">  230.15  230.95</time>
   <energy>
    <i name="e_fr_energy">   -469.04382650 </i>
    <i name="e_wo_entrp">   -469.04382650 </i>
    <i name="e_0_energy">   -469.04382650 </i>
   </energy>
  </scstep>
  <scstep>
   <time name="diag">   66.31   66.44</time>
   <time name="diis">  115.39  115.61</time>
   <time name="orth">   11.23   11.25</time>
   <time name="total">  198.27  198.80</time>
   <energy>
    <i name="alphaZ">   1604.46449014 </i>
    <i name="ewald"> -36658.64007425 </i>
    <i name="hartreedc"> -27822.00579124 </i>
    <i name="XCdc">   2572.17800290 </i>
    <i name="pawpsdc">  46693.52578487 </i>
    <i name="pawaedc"> -45975.40170149 </i>
    <i name="eentropy">     -0.00000000 </i>
    <i name="bandstr">  -8023.55350085 </i>
    <i name="atom">  67140.38917757 </i>
    <i name="e_fr_energy">   -469.04361233 </i>
    <i name="e_wo_entrp">   -469.04361233 </i>
    <i name="e_0_energy">   -469.04361233 </i>
   </energy>
  </scstep>
  <structure>
   <crystal>
    <varray name="basis" >
     <v>      18.06735297       0.00000000       0.00000000 </v>
     <v>       0.00000000       7.54272993       0.00000000 </v>
     <v>       0.00000000       0.00000000      17.35582432 </v>
    </varray>
    <i name="volume">   2365.20251707 </i>
    <varray name="rec_basis" >
     <v>       0.05534845       0.00000000       0.00000000 </v>
     <v>       0.00000000       0.13257799       0.00000000 </v>
     <v>       0.00000000       0.00000000       0.05761755 </v>
    </varray>
   </crystal>
   <varray name="positions" >
    <v>       0.83188318       0.14372291       0.41352197 </v>
    <v>       0.16811682       0.85627709       0.91352197 </v>
    <v>       0.66811682       0.64372291       0.91352197 </v>
    <v>       0.33188318       0.35627709       0.41352197 </v>
    <v>       0.70042808       0.55765984       0.38496711 </v>
    <v>       0.29957192       0.44234016       0.88496711 </v>
    <v>       0.79957192       0.05765984       0.88496711 </v>
    <v>       0.20042808       0.94234016       0.38496711 </v>
    <v>       0.53132897       0.44616984       0.15805877 </v>
    <v>       0.46867103       0.55383016       0.65805877 </v>
    <v>       0.96867103       0.94616984       0.65805877 </v>
    <v>       0.03132897       0.05383016       0.15805877 </v>
    <v>       0.40252699       0.86505790       0.13669944 </v>
    <v>       0.59747301       0.13494210       0.63669944 </v>
    <v>       0.09747301       0.36505790       0.63669944 </v>
    <v>       0.90252699       0.63494210       0.13669944 </v>
    <v>       0.97737355       0.65694944       0.39443463 </v>
    <v>       0.02262645       0.34305056       0.89443463 </v>
    <v>       0.52262645       0.15694944       0.89443463 </v>
    <v>       0.47737355       0.84305056       0.39443463 </v>
    <v>       0.25549129       0.34144158       0.16028676 </v>
    <v>       0.74450871       0.65855842       0.66028676 </v>
    <v>       0.24450871       0.84144158       0.66028676 </v>
    <v>       0.75549129       0.15855842       0.16028676 </v>
    <v>       0.04597064       0.39220630       0.38156213 </v>
    <v>       0.95402936       0.60779370       0.88156213 </v>
    <v>       0.45402936       0.89220630       0.88156213 </v>
    <v>       0.54597064       0.10779370       0.38156213 </v>
    <v>       0.18679830       0.60798813       0.15770137 </v>
    <v>       0.81320170       0.39201187       0.65770137 </v>
    <v>       0.31320170       0.10798813       0.65770137 </v>
    <v>       0.68679830       0.89201187       0.15770137 </v>
    <v>       0.89059015       0.27411588       0.48460135 </v>
    <v>       0.10940985       0.72588412       0.98460135 </v>
    <v>       0.60940985       0.77411588       0.98460135 </v>
    <v>       0.39059015       0.22588412       0.48460135 </v>
    <v>       0.78639556       0.01787987       0.49581704 </v>
    <v>       0.21360444       0.98212013       0.99581704 </v>
    <v>       0.71360444       0.51787987       0.99581704 </v>
    <v>       0.28639556       0.48212013       0.49581704 </v>
    <v>       0.76311446       0.04463539       0.34237866 </v>
    <v>       0.23688554       0.95536461       0.84237866 </v>
    <v>       0.73688554       0.54463539       0.84237866 </v>
    <v>       0.26311446       0.45536461       0.34237866 </v>
    <v>       0.75232859       0.33719837       0.43246754 </v>
    <v>       0.24767141       0.66280163       0.93246754 </v>
    <v>       0.74767141       0.83719837       0.93246754 </v>
    <v>       0.25232859       0.16280163       0.43246754 </v>
    <v>       0.86903191       0.28786260       0.33244566 </v>
    <v>       0.13096809       0.71213740       0.83244566 </v>
    <v>       0.63096809       0.78786260       0.83244566 </v>
    <v>       0.36903191       0.21213740       0.33244566 </v>
    <v>       0.90624436       0.96396107       0.39624492 </v>
    <v>       0.09375564       0.03603893       0.89624492 </v>
    <v>       0.59375564       0.46396107       0.89624492 </v>
    <v>       0.40624436       0.53603893       0.39624492 </v>
    <v>       0.61120434       0.42102416       0.39368184 </v>
    <v>       0.38879566       0.57897584       0.89368184 </v>
    <v>       0.88879566       0.92102416       0.89368184 </v>
    <v>       0.11120434       0.07897584       0.39368184 </v>
    <v>       0.65029306       0.75681695       0.34247988 </v>
    <v>       0.34970694       0.24318305       0.84247988 </v>
    <v>       0.84970694       0.25681695       0.84247988 </v>
    <v>       0.15029306       0.74318305       0.34247988 </v>
    <v>       0.79683136       0.65970687       0.38432482 </v>
    <v>       0.20316864       0.34029313       0.88432482 </v>
    <v>       0.70316864       0.15970687       0.88432482 </v>
    <v>       0.29683136       0.84029313       0.38432482 </v>
    <v>       0.68773967       0.63359777       0.48865499 </v>
    <v>       0.31226033       0.36640223       0.98865499 </v>
    <v>       0.81226033       0.13359777       0.98865499 </v>
    <v>       0.18773967       0.86640223       0.48865499 </v>
    <v>       0.71904858       0.45270660       0.28728017 </v>
    <v>       0.28095142       0.54729340       0.78728017 </v>
    <v>       0.78095142       0.95270660       0.78728017 </v>
    <v>       0.21904858       0.04729340       0.28728017 </v>
    <v>       0.43398786       0.35049028       0.15751183 </v>
    <v>       0.56601214       0.64950972       0.65751183 </v>
    <v>       0.06601214       0.85049028       0.65751183 </v>
    <v>       0.93398786       0.14950972       0.15751183 </v>
    <v>       0.57989528       0.23811395       0.19414529 </v>
    <v>       0.42010472       0.76188605       0.69414529 </v>
    <v>       0.92010472       0.73811395       0.69414529 </v>
    <v>       0.07989528       0.26188605       0.19414529 </v>
    <v>       0.48384497       0.67808895       0.11700252 </v>
    <v>       0.51615503       0.32191105       0.61700252 </v>
    <v>       0.01615503       0.17808895       0.61700252 </v>
    <v>       0.98384497       0.82191105       0.11700252 </v>
    <v>       0.62222518       0.57717099       0.15230346 </v>
    <v>       0.37777482       0.42282901       0.65230346 </v>
    <v>       0.87777482       0.07717099       0.65230346 </v>
    <v>       0.12222518       0.92282901       0.15230346 </v>
    <v>       0.51417471       0.54051401       0.25814767 </v>
    <v>       0.48582529       0.45948599       0.75814767 </v>
    <v>       0.98582529       0.04051401       0.75814767 </v>
    <v>       0.01417471       0.95948599       0.25814767 </v>
    <v>       0.54215690       0.38396120       0.05249271 </v>
    <v>       0.45784310       0.61603880       0.55249271 </v>
    <v>       0.95784310       0.88396120       0.55249271 </v>
    <v>       0.04215690       0.11603880       0.05249271 </v>
    <v>       0.34854800       0.74800605       0.05813767 </v>
    <v>       0.65145200       0.25199395       0.55813767 </v>
    <v>       0.15145200       0.24800605       0.55813767 </v>
    <v>       0.84854800       0.75199395       0.05813767 </v>
    <v>       0.46578221       0.95817483       0.21417552 </v>
    <v>       0.53421779       0.04182517       0.71417552 </v>
    <v>       0.03421779       0.45817483       0.71417552 </v>
    <v>       0.96578221       0.54182517       0.21417552 </v>
    <v>       0.45306702       0.00275994       0.06156204 </v>
    <v>       0.54693298       0.99724006       0.56156204 </v>
    <v>       0.04693298       0.50275994       0.56156204 </v>
    <v>       0.95306702       0.49724006       0.06156204 </v>
    <v>       0.36135875       0.70756484       0.21090738 </v>
    <v>       0.63864125       0.29243516       0.71090738 </v>
    <v>       0.13864125       0.20756484       0.71090738 </v>
    <v>       0.86135875       0.79243516       0.21090738 </v>
    <v>       0.32593133       0.04054167       0.15239488 </v>
    <v>       0.67406867       0.95945833       0.65239488 </v>
    <v>       0.17406867       0.54054167       0.65239488 </v>
    <v>       0.82593133       0.45945833       0.15239488 </v>
   </varray>
  </structure>
  <varray name="forces" >
   <v>      -0.18046654      -0.28361879       0.14775371 </v>
   <v>       0.18046654       0.28361879       0.14775371 </v>
   <v>       0.18046654      -0.28361879       0.14775371 </v>
   <v>      -0.18046654       0.28361879       0.14775371 </v>
   <v>      -0.09862451       0.11396150      -0.09687865 </v>
   <v>       0.09862451      -0.11396150      -0.09687865 </v>
   <v>       0.09862451       0.11396150      -0.09687865 </v>
   <v>      -0.09862451      -0.11396150      -0.09687865 </v>
   <v>       0.15141227      -0.08705585       0.18064432 </v>
   <v>      -0.15141227       0.08705585       0.18064432 </v>
   <v>      -0.15141227      -0.08705585       0.18064432 </v>
   <v>       0.15141227       0.08705585       0.18064432 </v>
   <v>      -0.01413020       0.12839017      -0.04375523 </v>
   <v>       0.01413020      -0.12839017      -0.04375523 </v>
   <v>       0.01413020       0.12839017      -0.04375523 </v>
   <v>      -0.01413020      -0.12839017      -0.04375523 </v>
   <v>       0.00869014       0.01250314      -0.03142092 </v>
   <v>      -0.00869014      -0.01250314      -0.03142092 </v>
   <v>      -0.00869014       0.01250314      -0.03142092 </v>
   <v>       0.00869014      -0.01250314      -0.03142092 </v>
   <v>      -0.03916349      -0.00101143      -0.02911116 </v>
   <v>       0.03916349       0.00101143      -0.02911116 </v>
   <v>       0.03916349      -0.00101143      -0.02911116 </v>
   <v>      -0.03916349       0.00101143      -0.02911116 </v>
   <v>      -0.00478448       0.03822729       0.03795387 </v>
   <v>       0.00478448      -0.03822729       0.03795387 </v>
   <v>       0.00478448       0.03822729       0.03795387 </v>
   <v>      -0.00478448      -0.03822729       0.03795387 </v>
   <v>       0.01596669      -0.04227687       0.00680128 </v>
   <v>      -0.01596669       0.04227687       0.00680128 </v>
   <v>      -0.01596669      -0.04227687       0.00680128 </v>
   <v>       0.01596669       0.04227687       0.00680128 </v>
   <v>      -0.04502677      -0.06738712      -0.10039518 </v>
   <v>       0.04502677       0.06738712      -0.10039518 </v>
   <v>       0.04502677      -0.06738712      -0.10039518 </v>
   <v>      -0.04502677       0.06738712      -0.10039518 </v>
   <v>       0.12494639       0.10594591      -0.24582115 </v>
   <v>      -0.12494639      -0.10594591      -0.24582115 </v>
   <v>      -0.12494639       0.10594591      -0.24582115 </v>
   <v>       0.12494639      -0.10594591      -0.24582115 </v>
   <v>       0.12292767       0.04556321       0.16381484 </v>
   <v>      -0.12292767      -0.04556321       0.16381484 </v>
   <v>      -0.12292767       0.04556321       0.16381484 </v>
   <v>       0.12292767      -0.04556321       0.16381484 </v>
   <v>      -0.01708285       0.00164358      -0.00319550 </v>
   <v>       0.01708285      -0.00164358      -0.00319550 </v>
   <v>       0.01708285       0.00164358      -0.00319550 </v>
   <v>      -0.01708285      -0.00164358      -0.00319550 </v>
   <v>       0.01267077      -0.03064311       0.06823129 </v>
   <v>      -0.01267077       0.03064311       0.06823129 </v>
   <v>      -0.01267077      -0.03064311       0.06823129 </v>
   <v>       0.01267077       0.03064311       0.06823129 </v>
   <v>      -0.01323802       0.02258665       0.01564824 </v>
   <v>       0.01323802      -0.02258665       0.01564824 </v>
   <v>       0.01323802       0.02258665       0.01564824 </v>
   <v>      -0.01323802      -0.02258665       0.01564824 </v>
   <v>       0.09889674       0.03771468      -0.02783124 </v>
   <v>      -0.09889674      -0.03771468      -0.02783124 </v>
   <v>      -0.09889674       0.03771468      -0.02783124 </v>
   <v>       0.09889674      -0.03771468      -0.02783124 </v>
   <v>       0.10467951      -0.19548443       0.14107480 </v>
   <v>      -0.10467951       0.19548443       0.14107480 </v>
   <v>      -0.10467951      -0.19548443       0.14107480 </v>
   <v>       0.10467951       0.19548443       0.14107480 </v>
   <v>      -0.13123826      -0.01651556       0.02151217 </v>
   <v>       0.13123826       0.01651556       0.02151217 </v>
   <v>       0.13123826      -0.01651556       0.02151217 </v>
   <v>      -0.13123826       0.01651556       0.02151217 </v>
   <v>      -0.02107196      -0.01927021      -0.15546356 </v>
   <v>       0.02107196       0.01927021      -0.15546356 </v>
   <v>       0.02107196      -0.01927021      -0.15546356 </v>
   <v>      -0.02107196       0.01927021      -0.15546356 </v>
   <v>      -0.06379609       0.01686188       0.10029491 </v>
   <v>       0.06379609      -0.01686188       0.10029491 </v>
   <v>       0.06379609       0.01686188       0.10029491 </v>
   <v>      -0.06379609      -0.01686188       0.10029491 </v>
   <v>       0.12362088       0.00714661      -0.00893792 </v>
   <v>      -0.12362088      -0.00714661      -0.00893792 </v>
   <v>      -0.12362088       0.00714661      -0.00893792 </v>
   <v>       0.12362088      -0.00714661      -0.00893792 </v>
   <v>      -0.10472754       0.22998038      -0.08536565 </v>
   <v>       0.10472754      -0.22998038      -0.08536565 </v>
   <v>       0.10472754       0.22998038      -0.08536565 </v>
   <v>      -0.10472754      -0.22998038      -0.08536565 </v>
   <v>       0.02293282       0.01172790      -0.05269225 </v>
   <v>      -0.02293282      -0.01172790      -0.05269225 </v>
   <v>      -0.02293282       0.01172790      -0.05269225 </v>
   <v>       0.02293282      -0.01172790      -0.05269225 </v>
   <v>      -0.09824634      -0.03465457       0.01401010 </v>
   <v>       0.09824634       0.03465457       0.01401010 </v>
   <v>       0.09824634      -0.03465457       0.01401010 </v>
   <v>      -0.09824634       0.03465457       0.01401010 </v>
   <v>       0.08247647      -0.06366384      -0.13437492 </v>
   <v>      -0.08247647       0.06366384      -0.13437492 </v>
   <v>      -0.08247647      -0.06366384      -0.13437492 </v>
   <v>       0.08247647       0.06366384      -0.13437492 </v>
   <v>       0.02329763       0.01828738       0.08478161 </v>
   <v>      -0.02329763      -0.01828738       0.08478161 </v>
   <v>      -0.02329763       0.01828738       0.08478161 </v>
   <v>       0.02329763      -0.01828738       0.08478161 </v>
   <v>       0.04454747       0.06982602       0.10665200 </v>
   <v>      -0.04454747      -0.06982602       0.10665200 </v>
   <v>      -0.04454747       0.06982602       0.10665200 </v>
   <v>       0.04454747      -0.06982602       0.10665200 </v>
   <v>      -0.10412198      -0.05229642      -0.08763466 </v>
   <v>       0.10412198       0.05229642      -0.08763466 </v>
   <v>       0.10412198      -0.05229642      -0.08763466 </v>
   <v>      -0.10412198       0.05229642      -0.08763466 </v>
   <v>      -0.09471339      -0.04428079       0.11397809 </v>
   <v>       0.09471339       0.04428079       0.11397809 </v>
   <v>       0.09471339      -0.04428079       0.11397809 </v>
   <v>      -0.09471339       0.04428079       0.11397809 </v>
   <v>       0.03142302       0.11903167      -0.09269039 </v>
   <v>      -0.03142302      -0.11903167      -0.09269039 </v>
   <v>      -0.03142302       0.11903167      -0.09269039 </v>
   <v>       0.03142302      -0.11903167      -0.09269039 </v>
   <v>       0.01004688      -0.02374226      -0.00758285 </v>
   <v>      -0.01004688       0.02374226      -0.00758285 </v>
   <v>      -0.01004688      -0.02374226      -0.00758285 </v>
   <v>       0.01004688       0.02374226      -0.00758285 </v>
  </varray>
  <varray name="stress" >
   <v>       0.57207968       0.00000000       0.00000000 </v>
   <v>       0.00000000      -2.87270797       0.00000000 </v>
   <v>       0.00000000       0.00000000       3.14367680 </v>
  </varray>
  <energy>
   <i name="e_fr_energy">   -469.04361233 </i>
   <i name="e_wo_entrp">   -469.04361233 </i>
   <i name="e_0_energy">     -0.00000000 </i>
  </energy>
  <time name="totalsc"> 2193.03 2198.10</time>
 </calculation>
 <calculation>
  <scstep>
   <time name="dav">  463.97  464.83</time>
   <time name="total">  492.18  493.09</time>
   <energy>
    <i name="alphaZ">   1598.50433798 </i>
    <i name="ewald"> -36562.48692991 </i>
    <i name="hartreedc"> -27825.57108849 </i>
    <i name="XCdc">   2568.21432083 </i>
    <i name="pawpsdc">  46689.89571466 </i>
    <i name="pawaedc"> -45971.70123268 </i>
    <i name="eentropy">     -0.00000000 </i>
    <i name="bandstr">  -8106.35507854 </i>
    <i name="atom">  67140.38917757 </i>
    <i name="e_fr_energy">   -469.11077858 </i>
    <i name="e_wo_entrp">   -469.11077858 </i>
    <i name="e_0_energy">   -469.11077858 </i>
   </energy>
  </scstep>
  <scstep>
   <time name="diag">   64.34   64.46</time>
   <time name="diis">  192.64  193.06</time>
   <time name="orth">   11.27   11.29</time>
   <time name="total">  295.63  296.24</time>
   <energy>
    <i name="e_fr_energy">   -469.01406478 </i>
    <i name="e_wo_entrp">   -469.01406478 </i>
    <i name="e_0_energy">   -469.01406478 </i>
   </energy>
  </scstep>
  <scstep>
   <time name="diag">   68.41   68.53</time>
   <time name="diis">  172.68  173.00</time>
   <time name="orth">   11.31   11.33</time>
   <time name="total">  280.85  281.37</time>
   <energy>
    <i name="e_fr_energy">   -469.03558459 </i>
    <i name="e_wo_entrp">   -469.03558459 </i>
    <i name="e_0_energy">   -469.03558459 </i>
   </energy>
  </scstep>
  <scstep>
   <time name="diag">   64.35   64.47</time>
   <time name="diis">  171.72  172.04</time>
   <time name="orth">   11.21   11.23</time>
   <time name="total">  275.51  276.03</time>
   <energy>
    <i name="e_fr_energy">   -469.03416278 </i>
    <i name="e_wo_entrp">   -469.03416278 </i>
    <i name="e_0_energy">   -469.03416278 </i>
   </energy>
  </scstep>
  <scstep>
   <time name="diag">   64.39   64.51</time>
   <time name="diis">  117.63  117.85</time>
   <time name="orth">   11.18   11.20</time>
   <time name="total">  220.97  221.39</time>
   <energy>
    <i name="e_fr_energy">   -469.03431114 </i>
    <i name="e_wo_entrp">   -469.03431114 </i>
    <i name="e_0_energy">   -469.03431114 </i>
   </energy>
  </scstep>
  <scstep>
   <time name="diag">   63.36   63.49</time>
   <time name="diis">  107.78  107.98</time>
   <time name="orth">   11.30   11.32</time>
   <time name="total">  188.22  188.58</time>
   <energy>
    <i name="alphaZ">   1598.50433798 </i>
    <i name="ewald"> -36562.48692991 </i>
    <i name="hartreedc"> -27892.88668222 </i>
    <i name="XCdc">   2572.05684379 </i>
    <i name="pawpsdc">  46694.13926472 </i>
    <i name="pawaedc"> -45975.94349986 </i>
    <i name="eentropy">     -0.00000000 </i>
    <i name="bandstr">  -8042.80658767 </i>
    <i name="atom">  67140.38917757 </i>
    <i name="e_fr_energy">   -469.03407561 </i>
    <i name="e_wo_entrp">   -469.03407561 </i>
    <i name="e_0_energy">   -469.03407561 </i>
   </energy>
  </scstep>
  <structure>
   <crystal>
    <varray name="basis" >
     <v>      18.09526982       0.00000000       0.00000000 </v>
     <v>       0.00000000       7.54822017       0.00000000 </v>
     <v>       0.00000000       0.00000000      17.38100965 </v>
    </varray>
    <i name="volume">   2374.02136513 </i>
    <varray name="rec_basis" >
     <v>       0.05526306       0.00000000       0.00000000 </v>
     <v>       0.00000000       0.13248156       0.00000000 </v>
     <v>       0.00000000       0.00000000       0.05753406 </v>
    </varray>
   </crystal>
   <varray name="positions" >
    <v>       0.83207752       0.14387150       0.41343565 </v>
    <v>       0.16792248       0.85612850       0.91343565 </v>
    <v>       0.66792248       0.64387150       0.91343565 </v>
    <v>       0.33207752       0.35612850       0.41343565 </v>
    <v>       0.70050616       0.55722081       0.38506234 </v>
    <v>       0.29949384       0.44277919       0.88506234 </v>
    <v>       0.79949384       0.05722081       0.88506234 </v>
    <v>       0.20050616       0.94277919       0.38506234 </v>
    <v>       0.53124126       0.44661388       0.15788115 </v>
    <v>       0.46875874       0.55338612       0.65788115 </v>
    <v>       0.96875874       0.94661388       0.65788115 </v>
    <v>       0.03124126       0.05338612       0.15788115 </v>
    <v>       0.40248986       0.86518454       0.13670717 </v>
    <v>       0.59751014       0.13481546       0.63670717 </v>
    <v>       0.09751014       0.36518454       0.63670717 </v>
    <v>       0.90248986       0.63481546       0.13670717 </v>
    <v>       0.97738801       0.65684128       0.39441297 </v>
    <v>       0.02261199       0.34315872       0.89441297 </v>
    <v>       0.52261199       0.15684128       0.89441297 </v>
    <v>       0.47738801       0.84315872       0.39441297 </v>
    <v>       0.25545848       0.34146050       0.16018374 </v>
    <v>       0.74454152       0.65853950       0.66018374 </v>
    <v>       0.24454152       0.84146050       0.66018374 </v>
    <v>       0.75545848       0.15853950       0.16018374 </v>
    <v>       0.04597695       0.39241412       0.38166741 </v>
    <v>       0.95402305       0.60758588       0.88166741 </v>
    <v>       0.45402305       0.89241412       0.88166741 </v>
    <v>       0.54597695       0.10758588       0.38166741 </v>
    <v>       0.18674943       0.60782663       0.15769968 </v>
    <v>       0.81325057       0.39217337       0.65769968 </v>
    <v>       0.31325057       0.10782663       0.65769968 </v>
    <v>       0.68674943       0.89217337       0.15769968 </v>
    <v>       0.89048173       0.27374096       0.48432120 </v>
    <v>       0.10951827       0.72625904       0.98432120 </v>
    <v>       0.60951827       0.77374096       0.98432120 </v>
    <v>       0.39048173       0.22625904       0.48432120 </v>
    <v>       0.78643661       0.01783643       0.49569129 </v>
    <v>       0.21356339       0.98216357       0.99569129 </v>
    <v>       0.71356339       0.51783643       0.99569129 </v>
    <v>       0.28643661       0.48216357       0.49569129 </v>
    <v>       0.76322052       0.04466470       0.34253923 </v>
    <v>       0.23677948       0.95533530       0.84253923 </v>
    <v>       0.73677948       0.54466470       0.84253923 </v>
    <v>       0.26322052       0.45533530       0.34253923 </v>
    <v>       0.75218686       0.33740813       0.43256249 </v>
    <v>       0.24781314       0.66259187       0.93256249 </v>
    <v>       0.74781314       0.83740813       0.93256249 </v>
    <v>       0.25218686       0.16259187       0.43256249 </v>
    <v>       0.86901561       0.28707937       0.33284532 </v>
    <v>       0.13098439       0.71292063       0.83284532 </v>
    <v>       0.63098439       0.78707937       0.83284532 </v>
    <v>       0.36901561       0.21292063       0.33284532 </v>
    <v>       0.90633982       0.96404514       0.39620921 </v>
    <v>       0.09366018       0.03595486       0.89620921 </v>
    <v>       0.59366018       0.46404514       0.89620921 </v>
    <v>       0.40633982       0.53595486       0.39620921 </v>
    <v>       0.61130756       0.42120230       0.39366874 </v>
    <v>       0.38869244       0.57879770       0.89366874 </v>
    <v>       0.88869244       0.92120230       0.89366874 </v>
    <v>       0.11130756       0.07879770       0.39366874 </v>
    <v>       0.65022109       0.75701683       0.34253695 </v>
    <v>       0.34977891       0.24298317       0.84253695 </v>
    <v>       0.84977891       0.25701683       0.84253695 </v>
    <v>       0.15022109       0.74298317       0.34253695 </v>
    <v>       0.79667151       0.65964832       0.38436665 </v>
    <v>       0.20332849       0.34035168       0.88436665 </v>
    <v>       0.70332849       0.15964832       0.88436665 </v>
    <v>       0.29667151       0.84035168       0.38436665 </v>
    <v>       0.68768365       0.63358605       0.48834683 </v>
[...]
       <r>   -19.3423     0.0000    88.0000 </r>
       <r>   -19.2160     0.0000    88.0000 </r>
       <r>   -19.0897     0.0000    88.0000 </r>
       <r>   -18.9634     0.0000    88.0000 </r>
       <r>   -18.8371     0.0000    88.0000 </r>
       <r>   -18.7109     0.0000    88.0000 </r>
       <r>   -18.5846     0.0000    88.0000 </r>
       <r>   -18.4583     0.0000    88.0000 </r>
       <r>   -18.3320     0.0000    88.0000 </r>
       <r>   -18.2057     0.0000    88.0000 </r>
       <r>   -18.0795     0.8831    88.1115 </r>
       <r>   -17.9532    53.9317    94.9220 </r>
       <r>   -17.8269     8.5368    96.0000 </r>
       <r>   -17.7006     0.0002    96.0000 </r>
       <r>   -17.5744     0.0000    96.0000 </r>
       <r>   -17.4481     0.0000    96.0000 </r>
       <r>   -17.3218     0.0000    96.0000 </r>
       <r>   -17.1955     0.0000    96.0000 </r>
       <r>   -17.0692     0.0000    96.0000 </r>
       <r>   -16.9430     0.0000    96.0000 </r>
       <r>   -16.8167     0.0000    96.0000 </r>
       <r>   -16.6904     0.0000    96.0000 </r>
       <r>   -16.5641     0.0000    96.0000 </r>
       <r>   -16.4378     0.0000    96.0000 </r>
       <r>   -16.3116     0.0000    96.0000 </r>
       <r>   -16.1853     0.0000    96.0000 </r>
       <r>   -16.0590     0.0000    96.0000 </r>
       <r>   -15.9327     0.0000    96.0000 </r>
       <r>   -15.8064     0.0000    96.0000 </r>
       <r>   -15.6802     0.0000    96.0000 </r>
       <r>   -15.5539     0.0000    96.0000 </r>
       <r>   -15.4276     0.0005    96.0001 </r>
       <r>   -15.3013    14.4956    97.8306 </r>
       <r>   -15.1751    48.7039   103.9808 </r>
       <r>   -15.0488     0.1517   104.0000 </r>
       <r>   -14.9225     0.0000   104.0000 </r>
       <r>   -14.7962     0.0000   104.0000 </r>
       <r>   -14.6699     0.0000   104.0000 </r>
       <r>   -14.5437     0.0000   104.0000 </r>
       <r>   -14.4174     0.0000   104.0000 </r>
       <r>   -14.2911     0.0000   104.0000 </r>
       <r>   -14.1648     0.0000   104.0000 </r>
       <r>   -14.0385     0.0000   104.0000 </r>
       <r>   -13.9123     0.0000   104.0000 </r>
       <r>   -13.7860     0.0000   104.0000 </r>
       <r>   -13.6597     0.0000   104.0000 </r>
       <r>   -13.5334     0.0000   104.0000 </r>
       <r>   -13.4071     0.0000   104.0000 </r>
       <r>   -13.2809     0.0000   104.0000 </r>
       <r>   -13.1546     0.0000   104.0000 </r>
       <r>   -13.0283     0.0000   104.0000 </r>
       <r>   -12.9020     0.0000   104.0000 </r>
       <r>   -12.7757     0.0000   104.0000 </r>
       <r>   -12.6495     0.0000   104.0000 </r>
       <r>   -12.5232     0.0000   104.0000 </r>
       <r>   -12.3969     0.0000   104.0000 </r>
       <r>   -12.2706     0.0000   104.0000 </r>
       <r>   -12.1444     0.0000   104.0000 </r>
       <r>   -12.0181     0.0000   104.0000 </r>
       <r>   -11.8918     0.0000   104.0000 </r>
       <r>   -11.7655     0.0000   104.0000 </r>
       <r>   -11.6392     0.0000   104.0000 </r>
       <r>   -11.5130     0.0000   104.0000 </r>
       <r>   -11.3867     0.0000   104.0000 </r>
       <r>   -11.2604     0.0008   104.0001 </r>
       <r>   -11.1341    10.1750   105.2850 </r>
       <r>   -11.0078    50.7211   111.6900 </r>
       <r>   -10.8816     2.4549   112.0000 </r>
       <r>   -10.7553     0.0000   112.0000 </r>
       <r>   -10.6290     0.0000   112.0000 </r>
       <r>   -10.5027     0.0000   112.0000 </r>
       <r>   -10.3764     0.0001   112.0000 </r>
       <r>   -10.2502     4.3658   112.5513 </r>
       <r>   -10.1239    54.5002   119.4336 </r>
       <r>    -9.9976     4.4856   120.0000 </r>
       <r>    -9.8713     0.0001   120.0000 </r>
       <r>    -9.7451     0.0000   120.0000 </r>
       <r>    -9.6188     0.0000   120.0000 </r>
       <r>    -9.4925     0.0000   120.0000 </r>
       <r>    -9.3662     0.0000   120.0000 </r>
       <r>    -9.2399     0.0000   120.0000 </r>
       <r>    -9.1137     0.0000   120.0000 </r>
       <r>    -8.9874     0.0000   120.0000 </r>
       <r>    -8.8611     0.0000   120.0000 </r>
       <r>    -8.7348     0.0000   120.0000 </r>
       <r>    -8.6085     0.0000   120.0000 </r>
       <r>    -8.4823     0.6938   120.0876 </r>
       <r>    -8.3560    29.4035   123.8007 </r>
       <r>    -8.2297    32.3665   127.8879 </r>
       <r>    -8.1034     0.8880   128.0000 </r>
       <r>    -7.9771     0.0000   128.0000 </r>
       <r>    -7.8509     0.0000   128.0000 </r>
       <r>    -7.7246     0.0001   128.0000 </r>
       <r>    -7.5983     4.5364   128.5729 </r>
       <r>    -7.4720    41.1858   133.7738 </r>
       <r>    -7.3458    18.1554   136.0664 </r>
       <r>    -7.2195    46.0066   141.8761 </r>
       <r>    -7.0932    73.7155   151.1848 </r>
       <r>    -6.9669    75.8557   160.7638 </r>
       <r>    -6.8406    53.8777   167.5674 </r>
       <r>    -6.7144     3.4273   168.0002 </r>
       <r>    -6.5881     5.7107   168.7214 </r>
       <r>    -6.4618    42.9454   174.1445 </r>
       <r>    -6.3355    14.6753   175.9976 </r>
       <r>    -6.2092     0.0187   176.0000 </r>
       <r>    -6.0830     4.0181   176.5074 </r>
       <r>    -5.9567    58.4333   183.8863 </r>
       <r>    -5.8304    48.5523   190.0174 </r>
       <r>    -5.7041    29.0560   193.6866 </r>
       <r>    -5.5778    54.8709   200.6156 </r>
       <r>    -5.4516    56.6758   207.7726 </r>
       <r>    -5.3253    55.4387   214.7734 </r>
       <r>    -5.1990    84.6898   225.4679 </r>
       <r>    -5.0727    82.9905   235.9479 </r>
       <r>    -4.9464    88.4399   247.1160 </r>
       <r>    -4.8202   115.2679   261.6719 </r>
       <r>    -4.6939   125.0561   277.4639 </r>
       <r>    -4.5676   104.3025   290.6351 </r>
       <r>    -4.4413   138.0149   308.0634 </r>
       <r>    -4.3151   160.2061   328.2941 </r>
       <r>    -4.1888   171.5848   349.9617 </r>
       <r>    -4.0625    92.6560   361.6622 </r>
       <r>    -3.9362   109.6716   375.5114 </r>
       <r>    -3.8099    49.6144   381.7767 </r>
       <r>    -3.6837    80.0459   391.8848 </r>
       <r>    -3.5574     0.9124   392.0000 </r>
       <r>    -3.4311     0.0000   392.0000 </r>
       <r>    -3.3048     0.0000   392.0000 </r>
       <r>    -3.1785     0.0000   392.0000 </r>
       <r>    -3.0523     2.5373   392.3204 </r>
       <r>    -2.9260    90.0978   403.6979 </r>
       <r>    -2.7997    34.0469   407.9973 </r>
       <r>    -2.6734     0.0215   408.0000 </r>
       <r>    -2.5471     0.0000   408.0000 </r>
       <r>    -2.4209     0.0000   408.0000 </r>
       <r>    -2.2946     0.0000   408.0000 </r>
       <r>    -2.1683     0.0000   408.0000 </r>
       <r>    -2.0420     0.0000   408.0000 </r>
       <r>    -1.9158     0.0000   408.0000 </r>
       <r>    -1.7895     0.0000   408.0000 </r>
       <r>    -1.6632     0.0000   408.0000 </r>
       <r>    -1.5369     0.0000   408.0000 </r>
       <r>    -1.4106     0.0000   408.0000 </r>
       <r>    -1.2844     0.0000   408.0000 </r>
       <r>    -1.1581     0.0000   408.0000 </r>
       <r>    -1.0318     0.0000   408.0000 </r>
       <r>    -0.9055     0.8598   408.1086 </r>
       <r>    -0.7792    43.0171   413.5407 </r>
       <r>    -0.6530    19.4610   415.9982 </r>
       <r>    -0.5267     0.0139   416.0000 </r>
       <r>    -0.4004     0.0000   416.0000 </r>
       <r>    -0.2741     0.0000   416.0000 </r>
       <r>    -0.1478     0.0000   416.0000 </r>
       <r>    -0.0216     0.0000   416.0000 </r>
       <r>     0.1047     0.0000   416.0000 </r>
       <r>     0.2310     0.0000   416.0000 </r>
       <r>     0.3573     0.0000   416.0000 </r>
       <r>     0.4835     0.0000   416.0000 </r>
       <r>     0.6098     0.0000   416.0000 </r>
       <r>     0.7361     0.0021   416.0003 </r>
       <r>     0.8624     2.4410   416.3085 </r>
       <r>     0.9887     6.1675   417.0873 </r>
       <r>     1.1149    25.2930   420.2813 </r>
       <r>     1.2412    27.4755   423.7509 </r>
       <r>     1.3675     1.9725   424.0000 </r>
       <r>     1.4938     0.0001   424.0000 </r>
       <r>     1.6201     0.0000   424.0000 </r>
       <r>     1.7463     0.3698   424.0467 </r>
       <r>     1.8726    28.5327   427.6498 </r>
       <r>     1.9989    33.3386   431.8597 </r>
       <r>     2.1252     1.1107   432.0000 </r>
       <r>     2.2515     0.0000   432.0000 </r>
       <r>     2.3777     0.0000   432.0000 </r>
       <r>     2.5040     0.0000   432.0000 </r>
       <r>     2.6303     0.0000   432.0000 </r>
       <r>     2.7566     0.0000   432.0000 </r>
       <r>     2.8829     0.0000   432.0000 </r>
       <r>     3.0091     0.0000   432.0000 </r>
       <r>     3.1354     0.0000   432.0000 </r>
       <r>     3.2617     0.0000   432.0000 </r>
       <r>     3.3880     0.0000   432.0000 </r>
       <r>     3.5142     0.0000   432.0000 </r>
       <r>     3.6405     0.0000   432.0000 </r>
       <r>     3.7668     0.0000   432.0000 </r>
       <r>     3.8931     0.0000   432.0000 </r>
       <r>     4.0194     0.0000   432.0000 </r>
       <r>     4.1456     0.0000   432.0000 </r>
       <r>     4.2719     0.0000   432.0000 </r>
       <r>     4.3982     0.0000   432.0000 </r>
       <r>     4.5245     0.0000   432.0000 </r>
       <r>     4.6508     0.0000   432.0000 </r>
       <r>     4.7770     0.0000   432.0000 </r>
       <r>     4.9033     0.0000   432.0000 </r>
       <r>     5.0296     0.0000   432.0000 </r>
       <r>     5.1559     0.0000   432.0000 </r>
       <r>     5.2822     0.4972   432.0628 </r>
       <r>     5.4084    17.3296   434.2512 </r>
       <r>     5.5347    23.7127   437.2456 </r>
       <r>     5.6610    24.1288   440.2925 </r>
       <r>     5.7873    16.4806   442.3737 </r>
       <r>     5.9135    16.6735   444.4792 </r>
       <r>     6.0398    10.0261   445.7453 </r>
       <r>     6.1661    14.1450   447.5315 </r>
       <r>     6.2924    14.7169   449.3899 </r>
       <r>     6.4187    30.9187   453.2943 </r>
       <r>     6.5449    37.1265   457.9826 </r>
       <r>     6.6712    36.5617   462.5996 </r>
       <r>     6.7975    39.3142   467.5641 </r>
       <r>     6.9238    42.8989   472.9814 </r>
       <r>     7.0501    37.9969   477.7796 </r>
       <r>     7.1763    30.1014   481.5808 </r>
       <r>     7.3026    22.6293   484.4384 </r>
       <r>     7.4289    18.0087   486.7125 </r>
       <r>     7.5552    15.5656   488.6781 </r>
       <r>     7.6815    24.0321   491.7128 </r>
       <r>     7.8077    29.6911   495.4622 </r>
       <r>     7.9340    30.7005   499.3390 </r>
       <r>     8.0603    31.0385   503.2586 </r>
       <r>     8.1866    36.7048   507.8936 </r>
       <r>     8.3128    40.4569   513.0025 </r>
       <r>     8.4391    29.4340   516.7194 </r>
       <r>     8.5654    24.6304   519.8297 </r>
       <r>     8.6917    19.1887   522.2528 </r>
       <r>     8.8180    24.3770   525.3311 </r>
       <r>     8.9442    14.5736   527.1714 </r>
       <r>     9.0705     6.5449   527.9979 </r>
       <r>     9.1968     0.0164   528.0000 </r>
       <r>     9.3231     0.0000   528.0000 </r>
       <r>     9.4494     0.0000   528.0000 </r>
       <r>     9.5756     0.0000   528.0000 </r>
       <r>     9.7019     0.0000   528.0000 </r>
       <r>     9.8282     0.0000   528.0000 </r>
       <r>     9.9545     0.0000   528.0000 </r>
       <r>    10.0808     0.0000   528.0000 </r>
       <r>    10.2070     0.0000   528.0000 </r>
       <r>    10.3333     0.0000   528.0000 </r>
       <r>    10.4596     0.0000   528.0000 </r>
       <r>    10.5859     0.0000   528.0000 </r>
       <r>    10.7122     0.0000   528.0000 </r>
      </set>
     </set>
    </array>
   </total>
  </dos>
  </calculation>
  <structure name="finalpos" >
  <crystal>
   <varray name="basis" >
    <v>      18.09526982       0.00000000       0.00000000 </v>
    <v>       0.00000000       7.54822017       0.00000000 </v>
    <v>       0.00000000       0.00000000      17.38100965 </v>
   </varray>
   <i name="volume">   2374.02136513 </i>
   <varray name="rec_basis" >
    <v>       0.05526306       0.00000000       0.00000000 </v>
    <v>       0.00000000       0.13248156       0.00000000 </v>
    <v>       0.00000000       0.00000000       0.05753406 </v>
   </varray>
  </crystal>
  <varray name="positions" >
   <v>       0.83207752       0.14387150       0.41343565 </v>
   <v>       0.16792248       0.85612850       0.91343565 </v>
   <v>       0.66792248       0.64387150       0.91343565 </v>
   <v>       0.33207752       0.35612850       0.41343565 </v>
   <v>       0.70050616       0.55722081       0.38506234 </v>
   <v>       0.29949384       0.44277919       0.88506234 </v>
   <v>       0.79949384       0.05722081       0.88506234 </v>
   <v>       0.20050616       0.94277919       0.38506234 </v>
   <v>       0.53124126       0.44661388       0.15788115 </v>
   <v>       0.46875874       0.55338612       0.65788115 </v>
   <v>       0.96875874       0.94661388       0.65788115 </v>
   <v>       0.03124126       0.05338612       0.15788115 </v>
   <v>       0.40248986       0.86518454       0.13670717 </v>
   <v>       0.59751014       0.13481546       0.63670717 </v>
   <v>       0.09751014       0.36518454       0.63670717 </v>
   <v>       0.90248986       0.63481546       0.13670717 </v>
   <v>       0.97738801       0.65684128       0.39441297 </v>
   <v>       0.02261199       0.34315872       0.89441297 </v>
   <v>       0.52261199       0.15684128       0.89441297 </v>
   <v>       0.47738801       0.84315872       0.39441297 </v>
   <v>       0.25545848       0.34146050       0.16018374 </v>
   <v>       0.74454152       0.65853950       0.66018374 </v>
   <v>       0.24454152       0.84146050       0.66018374 </v>
   <v>       0.75545848       0.15853950       0.16018374 </v>
   <v>       0.04597695       0.39241412       0.38166741 </v>
   <v>       0.95402305       0.60758588       0.88166741 </v>
   <v>       0.45402305       0.89241412       0.88166741 </v>
   <v>       0.54597695       0.10758588       0.38166741 </v>
   <v>       0.18674943       0.60782663       0.15769968 </v>
   <v>       0.81325057       0.39217337       0.65769968 </v>
   <v>       0.31325057       0.10782663       0.65769968 </v>
   <v>       0.68674943       0.89217337       0.15769968 </v>
   <v>       0.89048173       0.27374096       0.48432120 </v>
   <v>       0.10951827       0.72625904       0.98432120 </v>
   <v>       0.60951827       0.77374096       0.98432120 </v>
   <v>       0.39048173       0.22625904       0.48432120 </v>
   <v>       0.78643661       0.01783643       0.49569129 </v>
   <v>       0.21356339       0.98216357       0.99569129 </v>
   <v>       0.71356339       0.51783643       0.99569129 </v>
   <v>       0.28643661       0.48216357       0.49569129 </v>
   <v>       0.76322052       0.04466470       0.34253923 </v>
   <v>       0.23677948       0.95533530       0.84253923 </v>
   <v>       0.73677948       0.54466470       0.84253923 </v>
   <v>       0.26322052       0.45533530       0.34253923 </v>
   <v>       0.75218686       0.33740813       0.43256249 </v>
   <v>       0.24781314       0.66259187       0.93256249 </v>
   <v>       0.74781314       0.83740813       0.93256249 </v>
   <v>       0.25218686       0.16259187       0.43256249 </v>
   <v>       0.86901561       0.28707937       0.33284532 </v>
   <v>       0.13098439       0.71292063       0.83284532 </v>
   <v>       0.63098439       0.78707937       0.83284532 </v>
   <v>       0.36901561       0.21292063       0.33284532 </v>
   <v>       0.90633982       0.96404514       0.39620921 </v>
   <v>       0.09366018       0.03595486       0.89620921 </v>
   <v>       0.59366018       0.46404514       0.89620921 </v>
   <v>       0.40633982       0.53595486       0.39620921 </v>
   <v>       0.61130756       0.42120230       0.39366874 </v>
   <v>       0.38869244       0.57879770       0.89366874 </v>
   <v>       0.88869244       0.92120230       0.89366874 </v>
   <v>       0.11130756       0.07879770       0.39366874 </v>
   <v>       0.65022109       0.75701683       0.34253695 </v>
   <v>       0.34977891       0.24298317       0.84253695 </v>
   <v>       0.84977891       0.25701683       0.84253695 </v>
   <v>       0.15022109       0.74298317       0.34253695 </v>
   <v>       0.79667151       0.65964832       0.38436665 </v>
   <v>       0.20332849       0.34035168       0.88436665 </v>
   <v>       0.70332849       0.15964832       0.88436665 </v>
   <v>       0.29667151       0.84035168       0.38436665 </v>
   <v>       0.68768365       0.63358605       0.48834683 </v>
   <v>       0.31231635       0.36641395       0.98834683 </v>
   <v>       0.81231635       0.13358605       0.98834683 </v>
   <v>       0.18768365       0.86641395       0.48834683 </v>
   <v>       0.71891954       0.45282311       0.28741754 </v>
   <v>       0.28108046       0.54717689       0.78741754 </v>
   <v>       0.78108046       0.95282311       0.78741754 </v>
   <v>       0.21891954       0.04717689       0.28741754 </v>
   <v>       0.43427776       0.35064888       0.15749829 </v>
   <v>       0.56572224       0.64935112       0.65749829 </v>
   <v>       0.06572224       0.85064888       0.65749829 </v>
   <v>       0.93427776       0.14935112       0.15749829 </v>
   <v>       0.57996568       0.23799936       0.19416885 </v>
   <v>       0.42003432       0.76200064       0.69416885 </v>
   <v>       0.92003432       0.73799936       0.69416885 </v>
   <v>       0.07996568       0.26200064       0.19416885 </v>
   <v>       0.48406244       0.67796065       0.11678406 </v>
   <v>       0.51593756       0.32203935       0.61678406 </v>
   <v>       0.01593756       0.17796065       0.61678406 </v>
   <v>       0.98406244       0.82203935       0.11678406 </v>
   <v>       0.62206212       0.57692559       0.15231466 </v>
   <v>       0.37793788       0.42307441       0.65231466 </v>
   <v>       0.87793788       0.07692559       0.65231466 </v>
   <v>       0.12206212       0.92307441       0.15231466 </v>
   <v>       0.51431747       0.54023652       0.25803306 </v>
   <v>       0.48568253       0.45976348       0.75803306 </v>
   <v>       0.98568253       0.04023652       0.75803306 </v>
   <v>       0.01431747       0.95976348       0.25803306 </v>
   <v>       0.54217692       0.38408123       0.05284255 </v>
   <v>       0.45782308       0.61591877       0.55284255 </v>
   <v>       0.95782308       0.88408123       0.55284255 </v>
   <v>       0.04217692       0.11591877       0.05284255 </v>
   <v>       0.34866271       0.74852182       0.05839914 </v>
   <v>       0.65133729       0.25147818       0.55839914 </v>
   <v>       0.15133729       0.24852182       0.55839914 </v>
   <v>       0.84866271       0.75147818       0.05839914 </v>
   <v>       0.46555105       0.95787550       0.21400472 </v>
   <v>       0.53444895       0.04212450       0.71400472 </v>
   <v>       0.03444895       0.45787550       0.71400472 </v>
   <v>       0.96555105       0.54212450       0.21400472 </v>
   <v>       0.45292567       0.00261226       0.06169152 </v>
   <v>       0.54707433       0.99738774       0.56169152 </v>
   <v>       0.04707433       0.50261226       0.56169152 </v>
   <v>       0.95292567       0.49738774       0.06169152 </v>
   <v>       0.36139243       0.70840378       0.21071687 </v>
   <v>       0.63860757       0.29159622       0.71071687 </v>
   <v>       0.13860757       0.20840378       0.71071687 </v>
   <v>       0.86139243       0.79159622       0.21071687 </v>
   <v>       0.32576437       0.04061015       0.15238070 </v>
   <v>       0.67423563       0.95938985       0.65238070 </v>
   <v>       0.17423563       0.54061015       0.65238070 </v>
   <v>       0.82576437       0.45938985       0.15238070 </v>
  </varray>
 </structure>
</modeling>
