<?xml version="1.0" encoding="ISO-8859-1"?>
<modeling>
 <generator>
  <i name="program" type="string">vasp </i>
  <i name="version" type="string">6.1.1  </i>
  <i name="subversion" type="string">19Jun20 (build Sep 15 2020 22:57:04) complex                          parallel </i>
  <i name="platform" type="string">VASP6.1.1-r2SCAN-MP </i>
  <i name="date" type="string">2020 10 09 </i>
  <i name="time" type="string">21:08:49 </i>
 </generator>
 <incar>
  <i type="string" name="PREC"> Accurate</i>
  <i type="string" name="ALGO"> All</i>
  <i type="int" name="ISPIN">     2</i>
  <i type="int" name="ICHARG">     1</i>
  <i type="int" name="NELM">   200</i>
  <i type="int" name="IBRION">     2</i>
  <i name="EDIFF">      0.00001000</i>
  <i name="EDIFFG">     -0.02000000</i>
  <i type="int" name="NSW">    99</i>
  <i type="int" name="ISIF">     3</i>
  <i name="ENCUT">    680.00000000</i>
  <i name="ENAUG">   1360.00000000</i>
  <v name="MAGMOM">      0.60000000      0.60000000      0.60000000      0.60000000</v>
  <i type="string" name="LREAL"> Auto</i>
  <i type="int" name="ISMEAR">    -5</i>
  <i name="SIGMA">      0.05000000</i>
  <i name="KSPACING">      0.26670552</i>
  <i type="logical" name="LWAVE"> F  </i>
  <i type="logical" name="LCHARG"> T  </i>
  <i type="logical" name="LVTOT"> T  </i>
  <i type="logical" name="LELF"> T  </i>
  <i type="logical" name="LASPH"> T  </i>
  <i type="logical" name="LAECHG"> T  </i>
  <i type="string" name="ALGO"> All</i>
  <i type="int" name="NELM">   200</i>
  <i name="EDIFF">      0.00001000</i>
  <i type="string" name="METAGGA"> R2scan</i>
  <i type="logical" name="LASPH"> T  </i>
  <i type="logical" name="LMIXTAU"> T  </i>
  <i type="int" name="ISPIN">     2</i>
 </incar>
 <structure name="primitive_cell" >
  <crystal>
   <varray name="basis" >
    <v>       0.00000000       3.83405700       3.83405700 </v>
    <v>       3.83405700       0.00000000       3.83405700 </v>
    <v>       3.83405700       3.83405700       0.00000000 </v>
   </varray>
   <i name="volume">    112.72122273 </i>
   <varray name="rec_basis" >
    <v>      -0.13041016       0.13041016       0.13041016 </v>
    <v>       0.13041016      -0.13041016       0.13041016 </v>
    <v>       0.13041016       0.13041016      -0.13041016 </v>
   </varray>
  </crystal>
  <varray name="positions" >
   <v>       0.75000000       0.75000000       0.75000000 </v>
   <v>       0.25000000       0.25000000       0.25000000 </v>
   <v>       0.00000000       0.00000000       0.00000000 </v>
   <v>       0.50000100       0.50000100       0.50000100 </v>
  </varray>
 </structure>
 <varray name="primitive_index" >
  <v type="int" >        1 </v>
  <v type="int" >        2 </v>
  <v type="int" >        3 </v>
  <v type="int" >        4 </v>
 </varray>
 <kpoints>
  <generation param="Gamma">
   <v type="int" name="divisions">       6        6        6 </v>
   <v name="usershift">      0.00000000       0.00000000       0.00000000 </v>
   <v name="genvec1">      0.16666667      -0.00000000       0.00000000 </v>
   <v name="genvec2">     -0.00000000       0.16666667      -0.00000000 </v>
   <v name="genvec3">      0.00000000       0.00000000       0.16666667 </v>
   <v name="shift">      0.00000000       0.00000000       0.00000000 </v>
  </generation>
  <varray name="kpointlist" >
   <v>       0.00000000       0.00000000       0.00000000 </v>
   <v>       0.16666667      -0.00000000      -0.00000000 </v>
   <v>       0.33333333       0.00000000      -0.00000000 </v>
   <v>       0.50000000       0.00000000      -0.00000000 </v>
   <v>       0.16666667       0.16666667       0.00000000 </v>
   <v>       0.33333333       0.16666667       0.00000000 </v>
   <v>       0.50000000       0.16666667      -0.00000000 </v>
   <v>      -0.33333333       0.16666667       0.00000000 </v>
   <v>      -0.16666667       0.16666667      -0.00000000 </v>
   <v>       0.33333333       0.33333333      -0.00000000 </v>
   <v>       0.50000000       0.33333333      -0.00000000 </v>
   <v>      -0.33333333       0.33333333       0.00000000 </v>
   <v>       0.50000000       0.50000000      -0.00000000 </v>
   <v>       0.50000000       0.33333333       0.16666667 </v>
   <v>      -0.33333333       0.33333333       0.16666667 </v>
   <v>      -0.33333333       0.50000000       0.16666667 </v>
  </varray>
  <varray name="weights" >
   <v>       0.00462963 </v>
   <v>       0.03703704 </v>
   <v>       0.03703704 </v>
   <v>       0.01851852 </v>
   <v>       0.02777778 </v>
   <v>       0.11111111 </v>
   <v>       0.11111111 </v>
   <v>       0.11111111 </v>
   <v>       0.05555556 </v>
   <v>       0.02777778 </v>
   <v>       0.11111111 </v>
   <v>       0.05555556 </v>
   <v>       0.01388889 </v>
   <v>       0.11111111 </v>
   <v>       0.11111111 </v>
   <v>       0.05555556 </v>
  </varray>
  <varray name="tetrahedronlist"  type="int" >
   <v type="int" >       24        1        2        2        5 </v>
   <v type="int" >       48        2        5        6        9 </v>
   <v type="int" >       48        2        3        6        9 </v>
   <v type="int" >       24        2        2        5        9 </v>
   <v type="int" >       48        3        6        7        8 </v>
   <v type="int" >       48        3        4        7        8 </v>
   <v type="int" >       48        3        6        8        9 </v>
   <v type="int" >       48        4        7        7        8 </v>
   <v type="int" >       24        5        6        6       10 </v>
   <v type="int" >       24        5        6        6        9 </v>
   <v type="int" >       48        6       10       11       14 </v>
   <v type="int" >       48        6        7       11       14 </v>
   <v type="int" >       48        6        7        8       14 </v>
   <v type="int" >       24        6        6       10       14 </v>
   <v type="int" >       24        6        6        9       14 </v>
   <v type="int" >       48        6        8        9       14 </v>
   <v type="int" >       48        7       11       12       15 </v>
   <v type="int" >       48        7        8       12       15 </v>
   <v type="int" >       48        7        7        8       15 </v>
   <v type="int" >       48        7       11       14       15 </v>
   <v type="int" >       48        7        8       14       15 </v>
   <v type="int" >       24        8        8       12       14 </v>
   <v type="int" >       24        8        8        9       14 </v>
   <v type="int" >       48        8       12       14       15 </v>
   <v type="int" >       24       10       11       11       13 </v>
   <v type="int" >       24       10       11       11       14 </v>
   <v type="int" >       48       11       11       13       16 </v>
   <v type="int" >       24       11       11       12       16 </v>
   <v type="int" >       48       11       12       15       16 </v>
   <v type="int" >       24       11       11       14       16 </v>
   <v type="int" >       48       11       14       15       16 </v>
   <v type="int" >       24       12       15       15       16 </v>
   <v type="int" >       24       12       14       15       15 </v>
   <v type="int" >       24       14       15       15       16 </v>
   <v type="int" >       24       15       15       16       16 </v>
  </varray>
  <i name="volumeweight">      0.00077160 </i>
 </kpoints>
 <parameters>
  <separator name="general" >
   <i type="string" name="SYSTEM">unknown system</i>
   <i type="logical" name="LCOMPAT"> F  </i>
  </separator>
  <separator name="electronic" >
   <i type="string" name="PREC">accura</i>
   <i name="ENMAX">    680.00000000</i>
   <i name="ENAUG">   1360.00000000</i>
   <i name="EDIFF">      0.00001000</i>
   <i type="int" name="IALGO">    58</i>
   <i type="int" name="IWAVPR">    11</i>
   <i type="int" name="NBANDS">    28</i>
   <i type="int" name="NBANDSLOW">    -1</i>
   <i type="int" name="NBANDSHIGH">    -1</i>
   <i name="NELECT">     40.00000000</i>
   <i type="int" name="TURBO">     0</i>
   <i type="int" name="IRESTART">     0</i>
   <i type="int" name="NREBOOT">     0</i>
   <i type="int" name="NMIN">     0</i>
   <i name="EREF">      0.00000000</i>
   <separator name="electronic smearing" >
    <i type="int" name="ISMEAR">    -5</i>
    <i name="SIGMA">      0.05000000</i>
    <i name="KSPACING">      0.26670552</i>
    <i type="logical" name="KGAMMA"> T  </i>
    <i type="logical" name="KBLOWUP"> T  </i>
   </separator>
   <separator name="electronic projectors" >
    <i type="logical" name="LREAL"> T  </i>
    <v name="ROPT">     -0.00025000     -0.00025000     -0.00025000</v>
    <i type="int" name="LMAXPAW">  -100</i>
    <i type="int" name="LMAXMIX">     2</i>
    <i type="logical" name="NLSPLINE"> F  </i>
   </separator>
   <separator name="electronic startup" >
    <i type="int" name="ISTART">     0</i>
    <i type="int" name="ICHARG">     1</i>
    <i type="int" name="INIWAV">     1</i>
   </separator>
   <separator name="electronic spin" >
    <i type="int" name="ISPIN">     2</i>
    <i type="logical" name="LNONCOLLINEAR"> F  </i>
    <v name="MAGMOM">      0.60000000      0.60000000      0.60000000      0.60000000</v>
    <i name="NUPDOWN">     -1.00000000</i>
    <i type="logical" name="LSORBIT"> F  </i>
    <v name="SAXIS">      0.00000000      0.00000000      1.00000000</v>
    <i type="logical" name="LSPIRAL"> F  </i>
    <v name="QSPIRAL">      0.00000000      0.00000000      0.00000000</v>
    <i type="logical" name="LZEROZ"> F  </i>
   </separator>
   <separator name="electronic exchange-correlation" >
    <i type="logical" name="LASPH"> T  </i>
    <i type="logical" name="LMETAGGA"> F  </i>
   </separator>
   <separator name="electronic convergence" >
    <i type="int" name="NELM">   200</i>
    <i type="int" name="NELMDL">    -5</i>
    <i type="int" name="NELMIN">     2</i>
    <i name="ENINI">    680.00000000</i>
    <separator name="electronic convergence detail" >
     <i type="logical" name="LDIAG"> T  </i>
     <i type="logical" name="LSUBROT"> F  </i>
     <i name="WEIMIN">      0.00100000</i>
     <i name="EBREAK">      0.00000009</i>
     <i name="DEPER">      0.30000000</i>
     <i type="int" name="NRMM">     4</i>
     <i name="TIME">      0.40000000</i>
    </separator>
   </separator>
   <separator name="electronic mixer" >
    <i name="AMIX">      0.40000000</i>
    <i name="BMIX">      1.00000000</i>
    <i name="AMIN">      0.10000000</i>
    <i name="AMIX_MAG">      1.60000000</i>
    <i name="BMIX_MAG">      1.00000000</i>
    <separator name="electronic mixer details" >
     <i type="int" name="IMIX">     4</i>
     <i type="logical" name="MIXFIRST"> F  </i>
     <i type="int" name="MAXMIX">   -45</i>
     <i name="WC">    100.00000000</i>
     <i type="int" name="INIMIX">     1</i>
     <i type="int" name="MIXPRE">     1</i>
     <i type="int" name="MREMOVE">     5</i>
    </separator>
   </separator>
   <separator name="electronic dipolcorrection" >
    <i type="logical" name="LDIPOL"> F  </i>
    <i type="logical" name="LMONO"> F  </i>
    <i type="int" name="IDIPOL">     0</i>
    <i name="EPSILON">      1.00000000</i>
    <v name="DIPOL">   -100.00000000   -100.00000000   -100.00000000</v>
    <i name="EFIELD">      0.00000000</i>
   </separator>
  </separator>
  <separator name="grids" >
   <i type="int" name="NGX">    48</i>
   <i type="int" name="NGY">    48</i>
   <i type="int" name="NGZ">    48</i>
   <i type="int" name="NGXF">    96</i>
   <i type="int" name="NGYF">    96</i>
   <i type="int" name="NGZF">    96</i>
   <i type="logical" name="ADDGRID"> F  </i>
  </separator>
  <separator name="ionic" >
   <i type="int" name="NSW">    99</i>
   <i type="int" name="IBRION">     2</i>
   <i type="int" name="MDALGO">     0</i>
   <i type="int" name="ISIF">     3</i>
   <i name="PSTRESS">      0.00000000</i>
   <i name="EDIFFG">     -0.02000000</i>
   <i type="int" name="NFREE">     1</i>
   <i name="POTIM">      0.50000000</i>
   <i name="SMASS">     -3.00000000</i>
   <i name="SCALEE">      1.00000000</i>
  </separator>
  <separator name="ionic md" >
   <i name="TEBEG">      0.00010000</i>
   <i name="TEEND">      0.00010000</i>
   <i type="int" name="NBLOCK">     1</i>
   <i type="int" name="KBLOCK">    99</i>
   <i type="int" name="NPACO">   256</i>
   <i name="APACO">     16.00000000</i>
  </separator>
  <separator name="symmetry" >
   <i type="int" name="ISYM">     2</i>
   <i name="SYMPREC">      0.00001000</i>
  </separator>
  <separator name="dos" >
   <i type="int" name="LORBIT">    11</i>
   <v name="RWIGS">     -1.00000000     -1.00000000     -1.00000000</v>
   <i type="int" name="NEDOS">   301</i>
   <i name="EMIN">     10.00000000</i>
   <i name="EMAX">    -10.00000000</i>
   <i name="EFERMI">      0.00000000</i>
  </separator>
  <separator name="writing" >
   <i type="int" name="NWRITE">     2</i>
   <i type="logical" name="LWAVE"> F  </i>
   <i type="logical" name="LDOWNSAMPLE"> F  </i>
   <i type="logical" name="LCHARG"> T  </i>
   <i type="logical" name="LPARD"> F  </i>
   <i type="logical" name="LVTOT"> T  </i>
   <i type="logical" name="LVHAR"> F  </i>
   <i type="logical" name="LELF"> T  </i>
   <i type="logical" name="LOPTICS"> F  </i>
   <v name="STM">      0.00000000      0.00000000      0.00000000      0.00000000      0.00000000      0.00000000      0.00000000</v>
  </separator>
  <separator name="performance" >
   <i type="int" name="NPAR">     4</i>
   <i type="int" name="NSIM">     4</i>
   <i type="int" name="NBLK">    -1</i>
   <i type="logical" name="LPLANE"> T  </i>
   <i type="logical" name="LSCALAPACK"> T  </i>
   <i type="logical" name="LSCAAWARE"> F  </i>
   <i type="logical" name="LSCALU"> F  </i>
   <i type="logical" name="LASYNC"> F  </i>
   <i type="logical" name="LORBITALREAL"> F  </i>
  </separator>
  <separator name="miscellaneous" >
   <i type="int" name="IDIOT">     3</i>
   <i type="int" name="PHON_NSTRUCT">    -1</i>
   <i type="logical" name="LMUSIC"> F  </i>
   <v name="POMASS">      7.01000000    227.02800000    204.38000000</v>
   <v name="DARWINR">      0.00000000      0.00000000      0.00000000</v>
   <v name="DARWINV">      1.00000000      1.00000000      1.00000000</v>
   <i type="logical" name="LCORR"> T  </i>
  </separator>
  <i type="logical" name="GGA_COMPAT"> T  </i>
  <i type="logical" name="LBERRY"> F  </i>
  <i type="int" name="ICORELEVEL">     0</i>
  <i type="logical" name="LDAU"> F  </i>
  <i type="int" name="I_CONSTRAINED_M">     0</i>
  <separator name="electronic exchange-correlation" >
   <i type="string" name="GGA">--</i>
   <i type="int" name="VOSKOWN">     0</i>
   <i type="logical" name="LHFCALC"> F  </i>
   <i type="string" name="PRECFOCK"></i>
   <i type="logical" name="LSYMGRAD"> F  </i>
   <i type="logical" name="LHFONE"> F  </i>
   <i type="logical" name="LRHFCALC"> F  </i>
   <i type="logical" name="LTHOMAS"> F  </i>
   <i type="logical" name="LMODELHF"> F  </i>
   <i type="logical" name="LFOCKACE"> F  </i>
   <i name="ENCUT4O">     -1.00000000</i>
   <i type="int" name="EXXOEP">     0</i>
   <i type="int" name="FOURORBIT">     0</i>
   <i name="AEXX">      0.00000000</i>
   <i name="HFALPHA">      0.00000000</i>
   <i name="MCALPHA">      0.00000000</i>
   <i name="ALDAX">      1.00000000</i>
   <i name="AGGAX">      1.00000000</i>
   <i name="ALDAC">      1.00000000</i>
   <i name="AGGAC">      1.00000000</i>
   <i type="int" name="NKREDX">     1</i>
   <i type="int" name="NKREDY">     1</i>
   <i type="int" name="NKREDZ">     1</i>
   <i type="logical" name="SHIFTRED"> F  </i>
   <i type="logical" name="ODDONLY"> F  </i>
   <i type="logical" name="EVENONLY"> F  </i>
   <i type="int" name="LMAXFOCK">     0</i>
   <i type="int" name="NMAXFOCKAE">     0</i>
   <i type="logical" name="LFOCKAEDFT"> F  </i>
   <i name="HFSCREEN">      0.00000000</i>
   <i name="HFSCREENC">      0.00000000</i>
   <i type="int" name="NBANDSGWLOW">     0</i>
  </separator>
  <separator name="vdW DFT" >
   <i type="logical" name="LUSE_VDW"> F  </i>
   <i name="Zab_VDW">     -0.84910000</i>
   <i name="PARAM1">      0.12340000</i>
   <i name="PARAM2">      1.00000000</i>
   <i name="PARAM3">      0.00000000</i>
  </separator>
  <separator name="model GW" >
   <i type="int" name="MODEL_GW">     0</i>
   <i name="MODEL_EPS0">     16.90818341</i>
   <i name="MODEL_ALPHA">      1.00000000</i>
  </separator>
  <separator name="linear response parameters" >
   <i type="logical" name="LEPSILON"> F  </i>
   <i type="logical" name="LRPA"> F  </i>
   <i type="logical" name="LNABLA"> F  </i>
   <i type="logical" name="LVEL"> F  </i>
   <i type="int" name="KINTER">     0</i>
   <i name="CSHIFT">      0.10000000</i>
   <i name="OMEGAMAX">     -1.00000000</i>
   <i name="DEG_THRESHOLD">      0.00200000</i>
   <i name="RTIME">     -0.10000000</i>
   <i name="WPLASMAI">      0.00000000</i>
   <v name="DFIELD">      0.00000000      0.00000000      0.00000000</v>
   <v name="WPLASMA">      0.00000000      0.00000000      0.00000000      0.00000000      0.00000000      0.00000000      0.00000000      0.00000000      0.00000000</v>
  </separator>
  <separator name="orbital magnetization" >
   <i type="logical" name="NUCIND"> F  </i>
   <v name="MAGPOS">      0.00000000      0.00000000      0.00000000</v>
   <i type="logical" name="LNICSALL"> T  </i>
   <i type="logical" name="ORBITALMAG"> F  </i>
   <i type="logical" name="LMAGBLOCH"> F  </i>
   <i type="logical" name="LCHIMAG"> F  </i>
   <i type="logical" name="LGAUGE"> T  </i>
   <i type="int" name="MAGATOM">     0</i>
   <v name="MAGDIPOL">      0.00000000      0.00000000      0.00000000</v>
   <v name="AVECCONST">      0.00000000      0.00000000      0.00000000</v>
  </separator>
  <separator name="response functions" >
   <i type="logical" name="LFINITE_TEMPERATURE"> F  </i>
   <i type="logical" name="LADDER"> F  </i>
   <i type="logical" name="LRPAFORCE"> F  </i>
   <i type="logical" name="LFXC"> F  </i>
   <i type="logical" name="LHARTREE"> T  </i>
   <i type="int" name="IBSE">     0</i>
   <v type="int" name="KPOINT">    -1     0     0     0</v>
   <i type="logical" name="LTCTC"> F  </i>
   <i type="logical" name="LTCTE"> F  </i>
   <i type="logical" name="LTETE"> F  </i>
   <i type="logical" name="LTRIPLET"> F  </i>
   <i type="logical" name="LFXCEPS"> F  </i>
   <i type="logical" name="LFXHEG"> F  </i>
   <i type="int" name="NATURALO">     2</i>
   <i type="logical" name="LHOLEGF"> F  </i>
   <i type="logical" name="L2ORDER"> F  </i>
   <i type="logical" name="LDMP1"> F  </i>
   <i type="logical" name="LMP2LT"> F  </i>
   <i type="logical" name="LSMP2LT"> F  </i>
   <i type="logical" name="LGWLF"> F  </i>
   <i name="ENCUTGW">     -2.00000000</i>
   <i name="ENCUTGWSOFT">     -2.00000000</i>
   <i name="ENCUTLF">     -1.00000000</i>
   <i type="logical" name="LESF_SPLINES"> F  </i>
   <i type="int" name="LMAXMP2">    -1</i>
   <i name="SCISSOR">      0.00000000</i>
   <i type="int" name="NOMEGA">     0</i>
   <i type="int" name="NOMEGAR">     0</i>
   <i type="int" name="NBANDSGW">    -1</i>
   <i type="int" name="NBANDSO">    -1</i>
   <i type="int" name="NBANDSV">    -1</i>
   <i type="int" name="NELM">   200</i>
   <i type="int" name="NELMHF">     1</i>
   <i type="int" name="DIM">     3</i>
   <i type="int" name="IESPILON">     4</i>
   <i type="int" name="ANTIRES">     0</i>
   <i name="OMEGAMAX">    -30.00000000</i>
   <i name="OMEGAMIN">    -30.00000000</i>
   <i name="OMEGATL">   -200.00000000</i>
   <i type="int" name="OMEGAGRID">     0</i>
   <i name="CSHIFT">     -0.10000000</i>
   <i type="logical" name="LSELFENERGY"> F  </i>
   <i type="logical" name="LSPECTRAL"> F  </i>
   <i type="logical" name="LSPECTRALGW"> F  </i>
   <i type="logical" name="LSINGLES"> F  </i>
   <i type="logical" name="LFERMIGW"> F  </i>
   <i type="logical" name="ODDONLYGW"> F  </i>
   <i type="logical" name="EVENONLYGW"> F  </i>
   <i type="int" name="NKREDLFX">     1</i>
   <i type="int" name="NKREDLFY">     1</i>
   <i type="int" name="NKREDLFZ">     1</i>
   <i type="int" name="MAXMEM">  2800</i>
   <i type="int" name="TELESCOPE">     0</i>
   <i type="int" name="NTAUPAR">    -1</i>
   <i type="int" name="NOMEGAPAR">    -1</i>
   <i name="LAMBDA">      1.00000000</i>
  </separator>
  <separator name="External order field" >
   <i name="OFIELD_KAPPA">      0.00000000</i>
   <v name="OFIELD_K">      0.00000000      0.00000000      0.00000000</v>
   <i name="OFIELD_Q6_NEAR">      0.00000000</i>
   <i name="OFIELD_Q6_FAR">      0.00000000</i>
   <i name="OFIELD_A">      0.00000000</i>
  </separator>
 </parameters>
 <atominfo>
  <atoms>       4 </atoms>
  <types>       3 </types>
  <array name="atoms" >
   <dimension dim="1">ion</dimension>
   <field type="string">element</field>
   <field type="int">atomtype</field>
   <set>
    <rc><c>Li</c><c>   1</c></rc>
    <rc><c>Ac</c><c>   2</c></rc>
    <rc><c>Tl</c><c>   3</c></rc>
    <rc><c>Tl</c><c>   3</c></rc>
   </set>
  </array>
  <array name="atomtypes" >
   <dimension dim="1">type</dimension>
   <field type="int">atomspertype</field>
   <field type="string">element</field>
   <field>mass</field>
   <field>valence</field>
   <field type="string">pseudopotential</field>
   <set>
    <rc><c>   1</c><c>Li</c><c>      7.01000000</c><c>      3.00000000</c><c>  PAW_PBE Li_sv 10Sep2004               </c></rc>
    <rc><c>   1</c><c>Ac</c><c>    227.02800000</c><c>     11.00000000</c><c>  PAW_PBE Ac 06Sep2000                  </c></rc>
    <rc><c>   2</c><c>Tl</c><c>    204.38000000</c><c>     13.00000000</c><c>  PAW_PBE Tl_d 06Sep2000                </c></rc>
   </set>
  </array>
 </atominfo>
 <structure name="initialpos" >
  <crystal>
   <varray name="basis" >
    <v>       0.00000000       3.83405700       3.83405700 </v>
    <v>       3.83405700       0.00000000       3.83405700 </v>
    <v>       3.83405700       3.83405700       0.00000000 </v>
   </varray>
   <i name="volume">    112.72122273 </i>
   <varray name="rec_basis" >
    <v>      -0.13041016       0.13041016       0.13041016 </v>
    <v>       0.13041016      -0.13041016       0.13041016 </v>
    <v>       0.13041016       0.13041016      -0.13041016 </v>
   </varray>
  </crystal>
  <varray name="positions" >
   <v>       0.75000000       0.75000000       0.75000000 </v>
   <v>       0.25000000       0.25000000       0.25000000 </v>
   <v>       0.00000000       0.00000000       0.00000000 </v>
   <v>       0.50000100       0.50000100       0.50000100 </v>
  </varray>
 </structure>
 <calculation>
  <scstep>
   <time name="total">   43.75   44.00</time>
   <energy>
    <i name="alphaZ">    154.27061938 </i>
    <i name="ewald">  -2976.22818355 </i>
    <i name="hartreedc">   -845.01318850 </i>
    <i name="XCdc">     69.19975315 </i>
    <i name="pawpsdc">   3660.68089535 </i>
    <i name="pawaedc">  -3744.96795913 </i>
    <i name="eentropy">      0.00000000 </i>
    <i name="bandstr">    110.16324835 </i>
    <i name="atom">   3799.92359331 </i>
    <i name="e_fr_energy">    228.02877837 </i>
    <i name="e_wo_entrp">    228.02877837 </i>
    <i name="e_0_energy">    228.02877837 </i>
   </energy>
  </scstep>
  <scstep>
   <time name="total">   27.25   27.30</time>
   <energy>
    <i name="e_fr_energy">   -153.27140034 </i>
    <i name="e_wo_entrp">   -153.27140034 </i>
    <i name="e_0_energy">   -153.27140034 </i>
   </energy>
  </scstep>
  <scstep>
   <time name="total">   34.25   34.31</time>
   <energy>
    <i name="e_fr_energy">   -186.20529622 </i>
    <i name="e_wo_entrp">   -186.20529622 </i>
    <i name="e_0_energy">   -186.20529622 </i>
   </energy>
  </scstep>
  <scstep>
   <time name="total">   36.69   36.72</time>
   <energy>
    <i name="e_fr_energy">   -188.87737455 </i>
    <i name="e_wo_entrp">   -188.87737455 </i>
    <i name="e_0_energy">   -188.87737455 </i>
   </energy>
  </scstep>
  <scstep>
   <time name="total">   39.63   39.64</time>
   <energy>
    <i name="e_fr_energy">   -189.10865194 </i>
    <i name="e_wo_entrp">   -189.10865194 </i>
    <i name="e_0_energy">   -189.10865194 </i>
   </energy>
  </scstep>
  <scstep>
   <time name="total">   76.63   76.83</time>
   <energy>
    <i name="e_fr_energy">   -178.71399276 </i>
    <i name="e_wo_entrp">   -178.71399276 </i>
    <i name="e_0_energy">   -178.71399276 </i>
   </energy>
  </scstep>
  <scstep>
   <time name="total">   73.94   76.58</time>
   <energy>
    <i name="e_fr_energy">   -178.86403777 </i>
    <i name="e_wo_entrp">   -178.86403777 </i>
    <i name="e_0_energy">   -178.86403777 </i>
   </energy>
  </scstep>
  <scstep>
   <time name="total">   76.55   76.57</time>
   <energy>
    <i name="e_fr_energy">   -178.89689710 </i>
    <i name="e_wo_entrp">   -178.89689710 </i>
    <i name="e_0_energy">   -178.89689710 </i>
   </energy>
  </scstep>
  <scstep>
   <time name="total">   76.54   76.58</time>
   <energy>
    <i name="e_fr_energy">   -178.90718612 </i>
    <i name="e_wo_entrp">   -178.90718612 </i>
    <i name="e_0_energy">   -178.90718612 </i>
   </energy>
  </scstep>
  <scstep>
   <time name="total">   76.57   76.64</time>
   <energy>
    <i name="e_fr_energy">   -178.91119640 </i>
    <i name="e_wo_entrp">   -178.91119640 </i>
    <i name="e_0_energy">   -178.91119640 </i>
   </energy>
  </scstep>
  <scstep>
   <time name="total">   74.01   76.53</time>
   <energy>
    <i name="e_fr_energy">   -178.91279188 </i>
    <i name="e_wo_entrp">   -178.91279188 </i>
    <i name="e_0_energy">   -178.91279188 </i>
   </energy>
  </scstep>
  <scstep>
   <time name="total">   76.53   76.59</time>
   <energy>
    <i name="e_fr_energy">   -178.91358663 </i>
    <i name="e_wo_entrp">   -178.91358663 </i>
    <i name="e_0_energy">   -178.91358663 </i>
   </energy>
  </scstep>
  <scstep>
   <time name="total">   76.54   76.61</time>
   <energy>
    <i name="e_fr_energy">   -178.91386267 </i>
    <i name="e_wo_entrp">   -178.91386267 </i>
    <i name="e_0_energy">   -178.91386267 </i>
   </energy>
  </scstep>
  <scstep>
   <time name="total">   76.53   76.57</time>
   <energy>
    <i name="e_fr_energy">   -178.91397383 </i>
    <i name="e_wo_entrp">   -178.91397383 </i>
    <i name="e_0_energy">   -178.91397383 </i>
   </energy>
  </scstep>
  <scstep>
   <time name="total">   74.05   76.63</time>
   <energy>
    <i name="e_fr_energy">   -178.91404458 </i>
    <i name="e_wo_entrp">   -178.91404458 </i>
    <i name="e_0_energy">   -178.91404458 </i>
   </energy>
  </scstep>
  <scstep>
   <time name="total">   76.56   76.63</time>
   <energy>
    <i name="e_fr_energy">   -178.91409950 </i>
    <i name="e_wo_entrp">   -178.91409950 </i>
    <i name="e_0_energy">   -178.91409950 </i>
   </energy>
  </scstep>
  <scstep>
   <time name="total">   76.51   76.57</time>
   <energy>
    <i name="e_fr_energy">   -178.91412127 </i>
    <i name="e_wo_entrp">   -178.91412127 </i>
    <i name="e_0_energy">   -178.91412127 </i>
   </energy>
  </scstep>
  <scstep>
   <time name="total">   76.41   76.44</time>
   <energy>
    <i name="e_fr_energy">   -178.91416102 </i>
    <i name="e_wo_entrp">   -178.91416102 </i>
    <i name="e_0_energy">   -178.91416102 </i>
   </energy>
  </scstep>
  <scstep>
   <time name="total">   73.61   76.46</time>
   <energy>
    <i name="e_fr_energy">   -178.91417671 </i>
    <i name="e_wo_entrp">   -178.91417671 </i>
    <i name="e_0_energy">   -178.91417671 </i>
   </energy>
  </scstep>
  <scstep>
   <time name="total">   76.40   76.41</time>
   <energy>
    <i name="e_fr_energy">   -178.91418712 </i>
    <i name="e_wo_entrp">   -178.91418712 </i>
    <i name="e_0_energy">   -178.91418712 </i>
   </energy>
  </scstep>
  <scstep>
   <time name="total">   81.65   81.66</time>
   <energy>
    <i name="alphaZ">    154.27061938 </i>
    <i name="ewald">  -2976.22818355 </i>
    <i name="hartreedc">   -849.26219661 </i>
    <i name="XCdc">     76.20772130 </i>
    <i name="pawpsdc">   3678.07417601 </i>
    <i name="pawaedc">  -3763.43080274 </i>
    <i name="eentropy">      0.00000000 </i>
    <i name="bandstr">   -298.46912142 </i>
    <i name="atom">   3799.92359331 </i>
    <i name="e_fr_energy">   -178.91419432 </i>
    <i name="e_wo_entrp">   -178.91419432 </i>
    <i name="e_0_energy">   -178.91419432 </i>
   </energy>
  </scstep>
  <structure>
   <crystal>
    <varray name="basis" >
     <v>       0.00000000       3.83405700       3.83405700 </v>
     <v>       3.83405700       0.00000000       3.83405700 </v>
     <v>       3.83405700       3.83405700       0.00000000 </v>
    </varray>
    <i name="volume">    112.72122273 </i>
    <varray name="rec_basis" >
     <v>      -0.13041016       0.13041016       0.13041016 </v>
     <v>       0.13041016      -0.13041016       0.13041016 </v>
     <v>       0.13041016       0.13041016      -0.13041016 </v>
    </varray>
   </crystal>
   <varray name="positions" >
    <v>       0.75000000       0.75000000       0.75000000 </v>
    <v>       0.25000000       0.25000000       0.25000000 </v>
    <v>       0.00000000       0.00000000       0.00000000 </v>
    <v>       0.50000100       0.50000100       0.50000100 </v>
   </varray>
  </structure>
  <varray name="forces" >
   <v>       0.00000000      -0.00000000       0.00000000 </v>
   <v>       0.00000000      -0.00000000      -0.00000000 </v>
   <v>       0.00000000       0.00000000       0.00000000 </v>
   <v>      -0.00000000      -0.00000000      -0.00000000 </v>
  </varray>
  <varray name="stress" >
   <v>      19.48637081       0.00000000       0.00000000 </v>
   <v>       0.00000000      19.48637081       0.00000000 </v>
   <v>       0.00000000       0.00000000      19.48637081 </v>
  </varray>
  <energy>
   <i name="e_fr_energy">   -178.91419432 </i>
   <i name="e_wo_entrp">   -178.91419432 </i>
   <i name="e_0_energy">   -178.91419432 </i>
  </energy>
  <time name="totalsc"> 1577.97 1592.75</time>
 </calculation>
 <calculation>
  <scstep>
   <time name="total">   76.37   76.39</time>
   <energy>
    <i name="alphaZ">    146.86440573 </i>
    <i name="ewald">  -2927.81749340 </i>
    <i name="hartreedc">   -847.38687395 </i>
    <i name="XCdc">     74.71408496 </i>
    <i name="pawpsdc">   3585.68314122 </i>
    <i name="pawaedc">  -3669.65621983 </i>
    <i name="eentropy">      0.00000000 </i>
    <i name="bandstr">   -340.37496351 </i>
    <i name="atom">   3799.92359331 </i>
    <i name="e_fr_energy">   -178.05032546 </i>
    <i name="e_wo_entrp">   -178.05032546 </i>
    <i name="e_0_energy">   -178.05032546 </i>
   </energy>
  </scstep>
  <scstep>
   <time name="total">   76.38   76.46</time>
   <energy>
    <i name="e_fr_energy">   -178.77041392 </i>
    <i name="e_wo_entrp">   -178.77041392 </i>
    <i name="e_0_energy">   -178.77041392 </i>
   </energy>
  </scstep>
  <scstep>
   <time name="total">   76.34   79.01</time>
   <energy>
    <i name="e_fr_energy">   -178.88422687 </i>
    <i name="e_wo_entrp">   -178.88422687 </i>
    <i name="e_0_energy">   -178.88422687 </i>
   </energy>
  </scstep>
  <scstep>
   <time name="total">   76.36   76.47</time>
   <energy>
    <i name="e_fr_energy">   -178.91185178 </i>
    <i name="e_wo_entrp">   -178.91185178 </i>
    <i name="e_0_energy">   -178.91185178 </i>
   </energy>
  </scstep>
  <scstep>
   <time name="total">   76.34   76.35</time>
   <energy>
    <i name="e_fr_energy">   -178.92886593 </i>
    <i name="e_wo_entrp">   -178.92886593 </i>
    <i name="e_0_energy">   -178.92886593 </i>
   </energy>
  </scstep>
  <scstep>
   <time name="total">   76.35   76.36</time>
   <energy>
    <i name="e_fr_energy">   -178.93672826 </i>
    <i name="e_wo_entrp">   -178.93672826 </i>
    <i name="e_0_energy">   -178.93672826 </i>
   </energy>
  </scstep>
  <scstep>
   <time name="total">   76.35   79.02</time>
   <energy>
    <i name="e_fr_energy">   -178.93935703 </i>
    <i name="e_wo_entrp">   -178.93935703 </i>
    <i name="e_0_energy">   -178.93935703 </i>
   </energy>
  </scstep>
  <scstep>
   <time name="total">   76.37   76.49</time>
   <energy>
    <i name="e_fr_energy">   -178.94000722 </i>
    <i name="e_wo_entrp">   -178.94000722 </i>
    <i name="e_0_energy">   -178.94000722 </i>
   </energy>
  </scstep>
  <scstep>
   <time name="total">   76.38   76.39</time>
   <energy>
    <i name="e_fr_energy">   -178.94015833 </i>
    <i name="e_wo_entrp">   -178.94015833 </i>
    <i name="e_0_energy">   -178.94015833 </i>
   </energy>
  </scstep>
  <scstep>
   <time name="total">   76.39   76.41</time>
   <energy>
    <i name="e_fr_energy">   -178.94019594 </i>
    <i name="e_wo_entrp">   -178.94019594 </i>
    <i name="e_0_energy">   -178.94019594 </i>
   </energy>
  </scstep>
  <scstep>
   <time name="total">   76.35   79.24</time>
   <energy>
    <i name="e_fr_energy">   -178.94021046 </i>
    <i name="e_wo_entrp">   -178.94021046 </i>
    <i name="e_0_energy">   -178.94021046 </i>
   </energy>
  </scstep>
  <scstep>
   <time name="total">   81.70   81.71</time>
   <energy>
    <i name="alphaZ">    146.86440573 </i>
    <i name="ewald">  -2927.81749340 </i>
    <i name="hartreedc">   -874.42322506 </i>
    <i name="XCdc">     75.76724390 </i>
    <i name="pawpsdc">   3622.57018221 </i>
    <i name="pawaedc">  -3707.45258348 </i>
    <i name="eentropy">      0.00000000 </i>
    <i name="bandstr">   -314.37233969 </i>
    <i name="atom">   3799.92359331 </i>
    <i name="e_fr_energy">   -178.94021648 </i>
    <i name="e_wo_entrp">   -178.94021648 </i>
    <i name="e_0_energy">   -178.94021648 </i>
   </energy>
  </scstep>
  <structure>
   <crystal>
    <varray name="basis" >
     <v>       0.00000000       3.89745212       3.89745212 </v>
     <v>       3.89745212       0.00000000       3.89745212 </v>
     <v>       3.89745212       3.89745212       0.00000000 </v>
    </varray>
    <i name="volume">    118.40563247 </i>
    <varray name="rec_basis" >
     <v>      -0.12828894       0.12828894       0.12828894 </v>
     <v>       0.12828894      -0.12828894       0.12828894 </v>
     <v>       0.12828894       0.12828894      -0.12828894 </v>
    </varray>
   </crystal>
   <varray name="positions" >
    <v>       0.75000000       0.75000000       0.75000000 </v>
    <v>       0.25000000       0.25000000       0.25000000 </v>
    <v>       0.00000000       0.00000000       0.00000000 </v>
    <v>       0.50000100       0.50000100       0.50000100 </v>
   </varray>
  </structure>
  <varray name="forces" >
   <v>       0.00000000      -0.00000000      -0.00000000 </v>
   <v>       0.00000000      -0.00000000      -0.00000000 </v>
   <v>      -0.00000000       0.00000000      -0.00000000 </v>
   <v>       0.00000000      -0.00000000       0.00000000 </v>
  </varray>
  <varray name="stress" >
   <v>      -2.65735348       0.00000000       0.00000000 </v>
   <v>       0.00000000      -2.65735348      -0.00000000 </v>
   <v>       0.00000000      -0.00000000      -2.65735348 </v>
  </varray>
  <energy>
   <i name="e_fr_energy">   -178.94021648 </i>
   <i name="e_wo_entrp">   -178.94021648 </i>
   <i name="e_0_energy">   -178.94021648 </i>
  </energy>
  <time name="totalsc"> 1088.38 1097.19</time>
 </calculation>
 <calculation>
  <scstep>
   <time name="total">   73.94   76.49</time>
   <energy>
    <i name="alphaZ">    147.99587020 </i>
    <i name="ewald">  -2935.31704247 </i>
    <i name="hartreedc">   -874.54983307 </i>
    <i name="XCdc">     75.99206733 </i>
    <i name="pawpsdc">   3638.15735369 </i>
    <i name="pawaedc">  -3723.27805845 </i>
    <i name="eentropy">      0.00000000 </i>
    <i name="bandstr">   -307.84375137 </i>
    <i name="atom">   3799.92359331 </i>
    <i name="e_fr_energy">   -178.91980083 </i>
    <i name="e_wo_entrp">   -178.91980083 </i>
    <i name="e_0_energy">   -178.91980083 </i>
   </energy>
  </scstep>
  <scstep>
   <time name="total">   76.47   76.48</time>
   <energy>
    <i name="e_fr_energy">   -178.93683829 </i>
    <i name="e_wo_entrp">   -178.93683829 </i>
    <i name="e_0_energy">   -178.93683829 </i>
   </energy>
  </scstep>
  <scstep>
   <time name="total">   76.40   76.41</time>
   <energy>
    <i name="e_fr_energy">   -178.93964349 </i>
    <i name="e_wo_entrp">   -178.93964349 </i>
    <i name="e_0_energy">   -178.93964349 </i>
   </energy>
  </scstep>
  <scstep>
   <time name="total">   76.42   76.44</time>
   <energy>
    <i name="e_fr_energy">   -178.94033332 </i>
    <i name="e_wo_entrp">   -178.94033332 </i>
    <i name="e_0_energy">   -178.94033332 </i>
   </energy>
  </scstep>
  <scstep>
   <time name="total">   73.90   76.44</time>
   <energy>
    <i name="e_fr_energy">   -178.94071459 </i>
    <i name="e_wo_entrp">   -178.94071459 </i>
    <i name="e_0_energy">   -178.94071459 </i>
   </energy>
  </scstep>
  <scstep>
   <time name="total">   76.45   76.46</time>
   <energy>
    <i name="e_fr_energy">   -178.94087507 </i>
    <i name="e_wo_entrp">   -178.94087507 </i>
    <i name="e_0_energy">   -178.94087507 </i>
   </energy>
  </scstep>
  <scstep>
   <time name="total">   76.44   76.45</time>
   <energy>
    <i name="e_fr_energy">   -178.94092508 </i>
    <i name="e_wo_entrp">   -178.94092508 </i>
    <i name="e_0_energy">   -178.94092508 </i>
   </energy>
  </scstep>
  <scstep>
   <time name="total">   76.43   76.44</time>
   <energy>
    <i name="e_fr_energy">   -178.94093733 </i>
    <i name="e_wo_entrp">   -178.94093733 </i>
    <i name="e_0_energy">   -178.94093733 </i>
   </energy>
  </scstep>
  <scstep>
   <time name="total">   78.91   81.71</time>
   <energy>
    <i name="alphaZ">    147.99587020 </i>
    <i name="ewald">  -2935.31704247 </i>
    <i name="hartreedc">   -870.52143984 </i>
    <i name="XCdc">     75.83194628 </i>
    <i name="pawpsdc">   3630.72673361 </i>
    <i name="pawaedc">  -3715.67113502 </i>
    <i name="eentropy">      0.00000000 </i>
    <i name="bandstr">   -311.90946828 </i>
    <i name="atom">   3799.92359331 </i>
    <i name="e_fr_energy">   -178.94094223 </i>
    <i name="e_wo_entrp">   -178.94094223 </i>
    <i name="e_0_energy">   -178.94094223 </i>
   </energy>
  </scstep>
  <structure>
   <crystal>
    <varray name="basis" >
     <v>       0.00000000       3.88749438       3.88749438 </v>
     <v>       3.88749438       0.00000000       3.88749438 </v>
     <v>       3.88749438       3.88749438       0.00000000 </v>
    </varray>
    <i name="volume">    117.50039258 </i>
    <varray name="rec_basis" >
     <v>      -0.12861755       0.12861755       0.12861755 </v>
     <v>       0.12861755      -0.12861755       0.12861755 </v>
     <v>       0.12861755       0.12861755      -0.12861755 </v>
    </varray>
   </crystal>
   <varray name="positions" >
    <v>       0.75000000       0.75000000       0.75000000 </v>
    <v>       0.25000000       0.25000000       0.25000000 </v>
    <v>       0.00000000       0.00000000       0.00000000 </v>
    <v>       0.50000100       0.50000100       0.50000100 </v>
   </varray>
  </structure>
  <varray name="forces" >
   <v>      -0.00000000       0.00000000      -0.00000000 </v>
   <v>      -0.00000000      -0.00000000      -0.00000000 </v>
   <v>      -0.00000000      -0.00000000      -0.00000000 </v>
   <v>       0.00000000       0.00000000       0.00000000 </v>
  </varray>
  <varray name="stress" >
   <v>       1.06262666       0.00000000       0.00000000 </v>
   <v>       0.00000000       1.06262666       0.00000000 </v>
   <v>      -0.00000000      -0.00000000       1.06262666 </v>
  </varray>
  <energy>
   <i name="e_fr_energy">   -178.94094223 </i>
   <i name="e_wo_entrp">   -178.94094223 </i>
   <i name="e_0_energy">   -178.94094223 </i>
  </energy>
  <time name="totalsc">  821.21  829.31</time>
  <eigenvalues>
   <array>
    <dimension dim="1">band</dimension>
    <dimension dim="2">kpoint</dimension>
    <dimension dim="3">spin</dimension>
    <field>eigene</field>
    <field>occ</field>
    <set>
     <set comment="spin 1">
      <set comment="kpoint 1">
       <r>  -42.7821    1.0000 </r>
       <r>  -31.0118    1.0000 </r>
       <r>  -10.4707    1.0000 </r>
       <r>  -10.4707    1.0000 </r>
       <r>  -10.4706    1.0000 </r>
       <r>   -6.3676    1.0000 </r>
       <r>   -6.3676    1.0000 </r>
       <r>   -6.1712    1.0000 </r>
       <r>   -6.1712    1.0000 </r>
       <r>   -6.1712    1.0000 </r>
       <r>   -6.1551    1.0000 </r>
       <r>   -6.1551    1.0000 </r>
       <r>   -6.1551    1.0000 </r>
       <r>   -5.9952    1.0000 </r>
       <r>   -5.9952    1.0000 </r>
       <r>   -2.9079    1.0000 </r>
       <r>    0.9669    1.0000 </r>
       <r>    4.0836    1.0000 </r>
       <r>    4.0836    1.0000 </r>
       <r>    4.0836    1.0000 </r>
       <r>    7.5484   -0.0033 </r>
       <r>    7.5484    0.0000 </r>
       <r>    7.5485    0.0000 </r>
       <r>    7.7900    0.0000 </r>
       <r>    7.7900    0.0000 </r>
       <r>   10.9478    0.0000 </r>
       <r>   10.9892    0.0000 </r>
       <r>   10.9906    0.0000 </r>
      </set>
      <set comment="kpoint 2">
       <r>  -42.7821    1.0000 </r>
       <r>  -31.0114    1.0000 </r>
       <r>  -10.4881    1.0000 </r>
       <r>  -10.4694    1.0000 </r>
       <r>  -10.4694    1.0000 </r>
       <r>   -6.3438    1.0000 </r>
       <r>   -6.3438    1.0000 </r>
       <r>   -6.2382    1.0000 </r>
       <r>   -6.2028    1.0000 </r>
       <r>   -6.2028    1.0000 </r>
       <r>   -6.1339    1.0000 </r>
       <r>   -6.1339    1.0000 </r>
       <r>   -6.1323    1.0000 </r>
       <r>   -6.0214    1.0000 </r>
       <r>   -6.0214    1.0000 </r>
       <r>   -2.6321    1.0000 </r>
       <r>    0.4561    1.0000 </r>
       <r>    4.2435    1.0000 </r>
       <r>    4.2436    1.0000 </r>
       <r>    4.7667    1.0048 </r>
       <r>    6.7421   -0.0126 </r>
       <r>    6.7422    0.0000 </r>
       <r>    7.4086    0.0000 </r>
       <r>    8.9038    0.0000 </r>
       <r>    8.9038    0.0000 </r>
       <r>    9.6728    0.0000 </r>
       <r>   10.6344    0.0000 </r>
       <r>   10.6720    0.0000 </r>
      </set>
      <set comment="kpoint 3">
       <r>  -42.7821    1.0000 </r>
       <r>  -31.0106    1.0000 </r>
       <r>  -10.5216    1.0000 </r>
       <r>  -10.4670    1.0000 </r>
       <r>  -10.4670    1.0000 </r>
       <r>   -6.2797    1.0000 </r>
       <r>   -6.2797    1.0000 </r>
       <r>   -6.2783    1.0000 </r>
       <r>   -6.2384    1.0000 </r>
       <r>   -6.2384    1.0000 </r>
       <r>   -6.1768    1.0000 </r>
       <r>   -6.1232    1.0000 </r>
       <r>   -6.1232    1.0000 </r>
       <r>   -6.0852    1.0000 </r>
       <r>   -6.0852    1.0000 </r>
       <r>   -1.9881    1.0000 </r>
       <r>   -0.2701    1.0000 </r>
       <r>    4.4949    1.0000 </r>
       <r>    4.4949    1.0000 </r>
       <r>    5.5604    0.9931 </r>
       <r>    6.5531    0.0000 </r>
       <r>    6.5531    0.0000 </r>
       <r>    6.5967    0.0000 </r>
       <r>    8.9748    0.0000 </r>
       <r>    8.9749    0.0000 </r>
       <r>    9.1960    0.0000 </r>
       <r>   10.3985    0.0000 </r>
       <r>   10.4022    0.0000 </r>
      </set>
      <set comment="kpoint 4">
       <r>  -42.7821    1.0000 </r>
       <r>  -31.0102    1.0000 </r>
       <r>  -10.5376    1.0000 </r>
       <r>  -10.4658    1.0000 </r>
       <r>  -10.4657    1.0000 </r>
       <r>   -6.2581    1.0000 </r>
       <r>   -6.2581    1.0000 </r>
       <r>   -6.2486    1.0000 </r>
       <r>   -6.2474    1.0000 </r>
       <r>   -6.1889    1.0000 </r>
       <r>   -6.1889    1.0000 </r>
       <r>   -6.1872    1.0000 </r>
       <r>   -6.1872    1.0000 </r>
       <r>   -6.1045    1.0000 </r>
       <r>   -6.1045    1.0000 </r>
       <r>   -1.5594    1.0000 </r>
       <r>   -0.6175    1.0000 </r>
       <r>    4.5471    1.0000 </r>
       <r>    4.5471    1.0000 </r>
       <r>    5.7334    0.9839 </r>
       <r>    5.8929    0.0000 </r>
       <r>    6.9899    0.0000 </r>
       <r>    6.9900    0.0000 </r>
       <r>    8.0401    0.0000 </r>
       <r>    8.0402    0.0000 </r>
       <r>   10.3460    0.0000 </r>
       <r>   10.8405    0.0000 </r>
       <r>   10.9281    0.0000 </r>
      </set>
      <set comment="kpoint 5">
       <r>  -42.7821    1.0000 </r>
       <r>  -31.0113    1.0000 </r>
       <r>  -10.4939    1.0000 </r>
       <r>  -10.4691    1.0000 </r>
       <r>  -10.4691    1.0000 </r>
       <r>   -6.3618    1.0000 </r>
       <r>   -6.3179    1.0000 </r>
       <r>   -6.2315    1.0000 </r>
       <r>   -6.2315    1.0000 </r>
       <r>   -6.1942    1.0000 </r>
       <r>   -6.1691    1.0000 </r>
       <r>   -6.1169    1.0000 </r>
       <r>   -6.1169    1.0000 </r>
       <r>   -6.0605    1.0000 </r>
       <r>   -5.9965    1.0000 </r>
       <r>   -2.5328    1.0000 </r>
       <r>    0.3557    1.0000 </r>
       <r>    4.1535    1.0000 </r>
       <r>    4.1535    1.0000 </r>
       <r>    5.3501    0.9989 </r>
       <r>    5.5940    0.0294 </r>
       <r>    7.8793    0.0000 </r>
       <r>    8.0959    0.0000 </r>
       <r>    8.0960    0.0000 </r>
       <r>    8.9524    0.0000 </r>
       <r>   10.1151    0.0000 </r>
       <r>   10.1576    0.0000 </r>
       <r>   10.2552    0.0000 </r>
      </set>
      <set comment="kpoint 6">
       <r>  -42.7821    1.0000 </r>
       <r>  -31.0106    1.0000 </r>
       <r>  -10.5177    1.0000 </r>
       <r>  -10.4714    1.0000 </r>
       <r>  -10.4671    1.0000 </r>
       <r>   -6.3337    1.0000 </r>
       <r>   -6.2916    1.0000 </r>
       <r>   -6.2542    1.0000 </r>
       <r>   -6.2539    1.0000 </r>
       <r>   -6.1910    1.0000 </r>
       <r>   -6.1814    1.0000 </r>
       <r>   -6.1380    1.0000 </r>
       <r>   -6.1248    1.0000 </r>
       <r>   -6.1191    1.0000 </r>
       <r>   -6.0212    1.0000 </r>
       <r>   -1.9814    1.0000 </r>
       <r>   -0.1816    1.0000 </r>
       <r>    4.2479    1.0000 </r>
       <r>    4.3408    1.0000 </r>
       <r>    4.9234    1.0038 </r>
       <r>    6.4253   -0.0032 </r>
       <r>    7.4954    0.0000 </r>
       <r>    7.5384    0.0000 </r>
       <r>    8.6277    0.0000 </r>
       <r>    9.0647    0.0000 </r>
       <r>    9.6907    0.0000 </r>
       <r>    9.7097    0.0000 </r>
       <r>   10.5647    0.0000 </r>
      </set>
      <set comment="kpoint 7">
       <r>  -42.7821    1.0000 </r>
       <r>  -31.0101    1.0000 </r>
       <r>  -10.5302    1.0000 </r>
       <r>  -10.4789    1.0000 </r>
       <r>  -10.4655    1.0000 </r>
       <r>   -6.2808    1.0000 </r>
       <r>   -6.2681    1.0000 </r>
       <r>   -6.2557    1.0000 </r>
       <r>   -6.2405    1.0000 </r>
       <r>   -6.2241    1.0000 </r>
       <r>   -6.2105    1.0000 </r>
       <r>   -6.1817    1.0000 </r>
       <r>   -6.1440    1.0000 </r>
       <r>   -6.1163    1.0000 </r>
       <r>   -6.0767    1.0000 </r>
       <r>   -1.3868    1.0000 </r>
       <r>   -0.6093    1.0000 </r>
       <r>    3.9410    1.0000 </r>
       <r>    4.5883    1.0000 </r>
       <r>    4.8996    1.0025 </r>
       <r>    6.7626    0.0000 </r>
       <r>    7.0872    0.0000 </r>
       <r>    7.2441    0.0000 </r>
       <r>    8.1987    0.0000 </r>
       <r>    8.9333    0.0000 </r>
       <r>   10.1396    0.0000 </r>
       <r>   10.6185    0.0000 </r>
       <r>   10.7614    0.0000 </r>
      </set>
      <set comment="kpoint 8">
       <r>  -42.7821    1.0000 </r>
       <r>  -31.0102    1.0000 </r>
       <r>  -10.5230    1.0000 </r>
       <r>  -10.4811    1.0000 </r>
       <r>  -10.4659    1.0000 </r>
       <r>   -6.2911    1.0000 </r>
       <r>   -6.2851    1.0000 </r>
       <r>   -6.2379    1.0000 </r>
       <r>   -6.2341    1.0000 </r>
       <r>   -6.2116    1.0000 </r>
       <r>   -6.2016    1.0000 </r>
       <r>   -6.1795    1.0000 </r>
       <r>   -6.1458    1.0000 </r>
       <r>   -6.1245    1.0000 </r>
       <r>   -6.0660    1.0000 </r>
       <r>   -1.5611    1.0000 </r>
       <r>   -0.5057    1.0000 </r>
       <r>    3.8782    1.0000 </r>
       <r>    4.8972    1.0000 </r>
       <r>    5.3046    1.0006 </r>
       <r>    5.9150    0.0000 </r>
       <r>    6.5910    0.0000 </r>
       <r>    8.0869    0.0000 </r>
       <r>    8.2389    0.0000 </r>
       <r>    9.2109    0.0000 </r>
       <r>    9.6125    0.0000 </r>
       <r>   10.3366    0.0000 </r>
       <r>   10.8051    0.0000 </r>
      </set>
      <set comment="kpoint 9">
       <r>  -42.7821    1.0000 </r>
       <r>  -31.0109    1.0000 </r>
       <r>  -10.5049    1.0000 </r>
       <r>  -10.4738    1.0000 </r>
       <r>  -10.4678    1.0000 </r>
       <r>   -6.3333    1.0000 </r>
       <r>   -6.2860    1.0000 </r>
       <r>   -6.2789    1.0000 </r>
       <r>   -6.2343    1.0000 </r>
       <r>   -6.1915    1.0000 </r>
       <r>   -6.1577    1.0000 </r>
       <r>   -6.1508    1.0000 </r>
       <r>   -6.1156    1.0000 </r>
       <r>   -6.0903    1.0000 </r>
       <r>   -6.0268    1.0000 </r>
       <r>   -2.2180    1.0000 </r>
       <r>   -0.0126    1.0000 </r>
       <r>    4.0028    1.0000 </r>
       <r>    4.7237    1.0000 </r>
       <r>    5.7344    0.9873 </r>
       <r>    5.7874    0.0065 </r>
       <r>    6.3212    0.0000 </r>
       <r>    8.1074    0.0000 </r>
       <r>    8.6652    0.0000 </r>
       <r>    9.1354    0.0000 </r>
       <r>    9.7632    0.0000 </r>
       <r>    9.8129    0.0000 </r>
       <r>   10.8152    0.0000 </r>
      </set>
      <set comment="kpoint 10">
       <r>  -42.7821    1.0000 </r>
       <r>  -31.0102    1.0000 </r>
       <r>  -10.5389    1.0000 </r>
       <r>  -10.4662    1.0000 </r>
       <r>  -10.4662    1.0000 </r>
       <r>   -6.3503    1.0000 </r>
       <r>   -6.3115    1.0000 </r>
       <r>   -6.2606    1.0000 </r>
       <r>   -6.2606    1.0000 </r>
       <r>   -6.1943    1.0000 </r>
       <r>   -6.1668    1.0000 </r>
       <r>   -6.1624    1.0000 </r>
       <r>   -6.1335    1.0000 </r>
       <r>   -6.1335    1.0000 </r>
       <r>   -5.9991    1.0000 </r>
       <r>   -1.5694    1.0000 </r>
       <r>   -0.3477    1.0000 </r>
       <r>    3.5500    1.0000 </r>
       <r>    4.4760    1.0000 </r>
       <r>    4.4760    1.0000 </r>
       <r>    7.7972   -0.0013 </r>
       <r>    8.0655    0.0000 </r>
       <r>    8.0924    0.0000 </r>
       <r>    8.1715    0.0000 </r>
       <r>    8.1715    0.0000 </r>
       <r>    9.6916    0.0000 </r>
       <r>    9.6938    0.0000 </r>
       <r>   10.1170    0.0000 </r>
      </set>
      <set comment="kpoint 11">
       <r>  -42.7821    1.0000 </r>
       <r>  -31.0099    1.0000 </r>
       <r>  -10.5442    1.0000 </r>
       <r>  -10.4760    1.0000 </r>
       <r>  -10.4650    1.0000 </r>
       <r>   -6.3250    1.0000 </r>
       <r>   -6.3177    1.0000 </r>
       <r>   -6.2518    1.0000 </r>
       <r>   -6.2500    1.0000 </r>
       <r>   -6.2431    1.0000 </r>
       <r>   -6.1850    1.0000 </r>
       <r>   -6.1707    1.0000 </r>
       <r>   -6.1578    1.0000 </r>
       <r>   -6.1173    1.0000 </r>
       <r>   -6.0218    1.0000 </r>
       <r>   -1.0238    1.0000 </r>
       <r>   -0.5942    1.0000 </r>
       <r>    2.9326    1.0000 </r>
       <r>    4.5386    1.0000 </r>
       <r>    4.7109    1.0000 </r>
       <r>    7.2813    0.0000 </r>
       <r>    7.3270    0.0000 </r>
       <r>    8.3226    0.0000 </r>
       <r>    8.3858    0.0000 </r>
       <r>    8.6777    0.0000 </r>
       <r>   10.1103    0.0000 </r>
       <r>   10.3572    0.0000 </r>
       <r>   10.5656    0.0000 </r>
      </set>
      <set comment="kpoint 12">
       <r>  -42.7821    1.0000 </r>
       <r>  -31.0099    1.0000 </r>
       <r>  -10.5187    1.0000 </r>
       <r>  -10.5011    1.0000 </r>
       <r>  -10.4649    1.0000 </r>
       <r>   -6.2851    1.0000 </r>
       <r>   -6.2732    1.0000 </r>
       <r>   -6.2663    1.0000 </r>
       <r>   -6.2497    1.0000 </r>
       <r>   -6.2288    1.0000 </r>
       <r>   -6.2095    1.0000 </r>
       <r>   -6.1936    1.0000 </r>
       <r>   -6.1811    1.0000 </r>
       <r>   -6.0796    1.0000 </r>
       <r>   -6.0781    1.0000 </r>
       <r>   -0.9732    1.0000 </r>
       <r>   -0.7053    1.0000 </r>
       <r>    3.1945    1.0000 </r>
       <r>    4.4334    1.0000 </r>
       <r>    4.9265    1.0000 </r>
       <r>    6.2916    0.0000 </r>
       <r>    7.5806    0.0000 </r>
       <r>    8.4443    0.0000 </r>
       <r>    8.5322    0.0000 </r>
       <r>    8.9383    0.0000 </r>
       <r>    9.7609    0.0000 </r>
       <r>   10.5193    0.0000 </r>
       <r>   10.5769    0.0000 </r>
      </set>
      <set comment="kpoint 13">
       <r>  -42.7820    1.0000 </r>
       <r>  -31.0097    1.0000 </r>
       <r>  -10.5606    1.0000 </r>
       <r>  -10.4648    1.0000 </r>
       <r>  -10.4648    1.0000 </r>
       <r>   -6.3445    1.0000 </r>
       <r>   -6.3427    1.0000 </r>
       <r>   -6.2593    1.0000 </r>
       <r>   -6.2500    1.0000 </r>
       <r>   -6.2500    1.0000 </r>
       <r>   -6.1677    1.0000 </r>
       <r>   -6.1677    1.0000 </r>
       <r>   -6.1612    1.0000 </r>
       <r>   -6.1139    1.0000 </r>
       <r>   -6.0004    1.0000 </r>
       <r>   -0.8153    1.0000 </r>
       <r>   -0.5942    1.0000 </r>
       <r>    2.4122    1.0000 </r>
       <r>    4.7964    1.0000 </r>
       <r>    4.7964    1.0000 </r>
       <r>    7.3810    0.0000 </r>
       <r>    7.3810    0.0000 </r>
       <r>    7.5507    0.0000 </r>
       <r>    8.2254    0.0000 </r>
       <r>    9.5868    0.0000 </r>
       <r>   10.3696    0.0000 </r>
       <r>   10.4014    0.0000 </r>
       <r>   10.5053    0.0000 </r>
      </set>
      <set comment="kpoint 14">
       <r>  -42.7821    1.0000 </r>
       <r>  -31.0101    1.0000 </r>
       <r>  -10.5262    1.0000 </r>
       <r>  -10.4835    1.0000 </r>
       <r>  -10.4657    1.0000 </r>
       <r>   -6.3147    1.0000 </r>
       <r>   -6.3008    1.0000 </r>
       <r>   -6.2444    1.0000 </r>
       <r>   -6.2434    1.0000 </r>
       <r>   -6.2121    1.0000 </r>
       <r>   -6.1867    1.0000 </r>
       <r>   -6.1799    1.0000 </r>
       <r>   -6.1487    1.0000 </r>
       <r>   -6.1324    1.0000 </r>
       <r>   -6.0360    1.0000 </r>
       <r>   -1.4016    1.0000 </r>
       <r>   -0.4966    1.0000 </r>
       <r>    3.7243    1.0000 </r>
       <r>    4.1135    1.0000 </r>
       <r>    5.1299    1.0005 </r>
       <r>    6.4382    0.0000 </r>
       <r>    7.5896    0.0000 </r>
       <r>    8.2029    0.0000 </r>
       <r>    8.2286    0.0000 </r>
       <r>    9.0725    0.0000 </r>
       <r>    9.5543    0.0000 </r>
       <r>   10.2483    0.0000 </r>
       <r>   10.8441    0.0000 </r>
      </set>
      <set comment="kpoint 15">
       <r>  -42.7821    1.0000 </r>
       <r>  -31.0099    1.0000 </r>
       <r>  -10.5188    1.0000 </r>
       <r>  -10.5009    1.0000 </r>
       <r>  -10.4649    1.0000 </r>
       <r>   -6.2775    1.0000 </r>
       <r>   -6.2747    1.0000 </r>
       <r>   -6.2726    1.0000 </r>
       <r>   -6.2499    1.0000 </r>
       <r>   -6.2336    1.0000 </r>
       <r>   -6.2064    1.0000 </r>
       <r>   -6.1905    1.0000 </r>
       <r>   -6.1815    1.0000 </r>
       <r>   -6.0794    1.0000 </r>
       <r>   -6.0790    1.0000 </r>
       <r>   -0.9759    1.0000 </r>
       <r>   -0.7039    1.0000 </r>
       <r>    3.5725    1.0000 </r>
       <r>    3.6437    1.0000 </r>
       <r>    5.5481    1.0000 </r>
       <r>    6.1782    0.0000 </r>
       <r>    7.5526    0.0000 </r>
       <r>    8.2323    0.0000 </r>
       <r>    8.4388    0.0000 </r>
       <r>    9.0516    0.0000 </r>
       <r>   10.2458    0.0000 </r>
       <r>   10.2804    0.0000 </r>
       <r>   10.6629    0.0000 </r>
      </set>
      <set comment="kpoint 16">
       <r>  -42.7821    1.0000 </r>
       <r>  -31.0097    1.0000 </r>
       <r>  -10.5365    1.0000 </r>
       <r>  -10.4886    1.0000 </r>
       <r>  -10.4647    1.0000 </r>
       <r>   -6.3109    1.0000 </r>
       <r>   -6.3071    1.0000 </r>
       <r>   -6.2722    1.0000 </r>
       <r>   -6.2355    1.0000 </r>
       <r>   -6.2293    1.0000 </r>
       <r>   -6.2069    1.0000 </r>
       <r>   -6.1892    1.0000 </r>
       <r>   -6.1825    1.0000 </r>
       <r>   -6.0934    1.0000 </r>
       <r>   -6.0379    1.0000 </r>
       <r>   -0.7804    1.0000 </r>
       <r>   -0.6735    1.0000 </r>
       <r>    2.8072    1.0000 </r>
       <r>    3.9053    1.0000 </r>
       <r>    5.4053    1.0000 </r>
       <r>    6.7015    0.0000 </r>
       <r>    7.4729    0.0000 </r>
       <r>    7.9395    0.0000 </r>
       <r>    8.9287    0.0000 </r>
       <r>    9.3743    0.0000 </r>
       <r>   10.1703    0.0000 </r>
       <r>   10.3706    0.0000 </r>
       <r>   10.5214    0.0000 </r>
      </set>
     </set>
     <set comment="spin 2">
      <set comment="kpoint 1">
       <r>  -42.7821    1.0000 </r>
       <r>  -31.0118    1.0000 </r>
       <r>  -10.4707    1.0000 </r>
       <r>  -10.4707    1.0000 </r>
       <r>  -10.4706    1.0000 </r>
       <r>   -6.3676    1.0000 </r>
       <r>   -6.3676    1.0000 </r>
       <r>   -6.1712    1.0000 </r>
       <r>   -6.1712    1.0000 </r>
       <r>   -6.1712    1.0000 </r>
       <r>   -6.1551    1.0000 </r>
       <r>   -6.1551    1.0000 </r>
       <r>   -6.1551    1.0000 </r>
       <r>   -5.9952    1.0000 </r>
       <r>   -5.9952    1.0000 </r>
       <r>   -2.9079    1.0000 </r>
       <r>    0.9669    1.0000 </r>
       <r>    4.0836    1.0000 </r>
       <r>    4.0836    1.0000 </r>
       <r>    4.0836    1.0000 </r>
       <r>    7.5484   -0.0033 </r>
       <r>    7.5484    0.0000 </r>
       <r>    7.5485    0.0000 </r>
       <r>    7.7900    0.0000 </r>
       <r>    7.7900    0.0000 </r>
       <r>   10.9708    0.0000 </r>
       <r>   10.9888    0.0000 </r>
       <r>   10.9900    0.0000 </r>
      </set>
      <set comment="kpoint 2">
       <r>  -42.7821    1.0000 </r>
       <r>  -31.0114    1.0000 </r>
       <r>  -10.4881    1.0000 </r>
       <r>  -10.4694    1.0000 </r>
       <r>  -10.4694    1.0000 </r>
       <r>   -6.3438    1.0000 </r>
       <r>   -6.3438    1.0000 </r>
       <r>   -6.2382    1.0000 </r>
       <r>   -6.2028    1.0000 </r>
       <r>   -6.2028    1.0000 </r>
       <r>   -6.1339    1.0000 </r>
       <r>   -6.1339    1.0000 </r>
       <r>   -6.1323    1.0000 </r>
       <r>   -6.0214    1.0000 </r>
       <r>   -6.0214    1.0000 </r>
       <r>   -2.6321    1.0000 </r>
       <r>    0.4561    1.0000 </r>
       <r>    4.2435    1.0000 </r>
       <r>    4.2436    1.0000 </r>
       <r>    4.7667    1.0048 </r>
       <r>    6.7421   -0.0126 </r>
       <r>    6.7422    0.0000 </r>
       <r>    7.4086    0.0000 </r>
       <r>    8.9038    0.0000 </r>
       <r>    8.9038    0.0000 </r>
       <r>    9.6648    0.0000 </r>
       <r>   10.6259    0.0000 </r>
       <r>   10.6679    0.0000 </r>
      </set>
      <set comment="kpoint 3">
       <r>  -42.7821    1.0000 </r>
       <r>  -31.0106    1.0000 </r>
       <r>  -10.5216    1.0000 </r>
       <r>  -10.4670    1.0000 </r>
       <r>  -10.4670    1.0000 </r>
       <r>   -6.2797    1.0000 </r>
       <r>   -6.2797    1.0000 </r>
       <r>   -6.2783    1.0000 </r>
       <r>   -6.2384    1.0000 </r>
       <r>   -6.2384    1.0000 </r>
       <r>   -6.1768    1.0000 </r>
       <r>   -6.1232    1.0000 </r>
       <r>   -6.1232    1.0000 </r>
       <r>   -6.0852    1.0000 </r>
       <r>   -6.0852    1.0000 </r>
       <r>   -1.9881    1.0000 </r>
       <r>   -0.2701    1.0000 </r>
       <r>    4.4949    1.0000 </r>
       <r>    4.4949    1.0000 </r>
       <r>    5.5604    0.9931 </r>
       <r>    6.5531    0.0000 </r>
       <r>    6.5531    0.0000 </r>
       <r>    6.5967    0.0000 </r>
       <r>    8.9748    0.0000 </r>
       <r>    8.9749    0.0000 </r>
       <r>    9.1959    0.0000 </r>
       <r>   10.3983    0.0000 </r>
       <r>   10.4048    0.0000 </r>
      </set>
      <set comment="kpoint 4">
       <r>  -42.7821    1.0000 </r>
       <r>  -31.0103    1.0000 </r>
       <r>  -10.5376    1.0000 </r>
       <r>  -10.4658    1.0000 </r>
       <r>  -10.4657    1.0000 </r>
       <r>   -6.2581    1.0000 </r>
       <r>   -6.2581    1.0000 </r>
       <r>   -6.2486    1.0000 </r>
       <r>   -6.2474    1.0000 </r>
       <r>   -6.1889    1.0000 </r>
       <r>   -6.1889    1.0000 </r>
       <r>   -6.1872    1.0000 </r>
       <r>   -6.1872    1.0000 </r>
       <r>   -6.1045    1.0000 </r>
       <r>   -6.1045    1.0000 </r>
       <r>   -1.5594    1.0000 </r>
       <r>   -0.6175    1.0000 </r>
       <r>    4.5471    1.0000 </r>
       <r>    4.5471    1.0000 </r>
       <r>    5.7334    0.9839 </r>
       <r>    5.8929    0.0000 </r>
       <r>    6.9899    0.0000 </r>
       <r>    6.9900    0.0000 </r>
       <r>    8.0401    0.0000 </r>
       <r>    8.0402    0.0000 </r>
       <r>   10.3474    0.0000 </r>
       <r>   10.8413    0.0000 </r>
       <r>   10.8700    0.0000 </r>
      </set>
      <set comment="kpoint 5">
       <r>  -42.7821    1.0000 </r>
       <r>  -31.0113    1.0000 </r>
       <r>  -10.4939    1.0000 </r>
       <r>  -10.4691    1.0000 </r>
       <r>  -10.4691    1.0000 </r>
       <r>   -6.3618    1.0000 </r>
       <r>   -6.3179    1.0000 </r>
       <r>   -6.2315    1.0000 </r>
       <r>   -6.2315    1.0000 </r>
       <r>   -6.1942    1.0000 </r>
       <r>   -6.1691    1.0000 </r>
       <r>   -6.1169    1.0000 </r>
       <r>   -6.1169    1.0000 </r>
       <r>   -6.0605    1.0000 </r>
       <r>   -5.9965    1.0000 </r>
       <r>   -2.5328    1.0000 </r>
       <r>    0.3557    1.0000 </r>
       <r>    4.1535    1.0000 </r>
       <r>    4.1535    1.0000 </r>
       <r>    5.3501    0.9989 </r>
       <r>    5.5940    0.0294 </r>
       <r>    7.8793    0.0000 </r>
       <r>    8.0959    0.0000 </r>
       <r>    8.0960    0.0000 </r>
       <r>    8.9526    0.0000 </r>
       <r>   10.0897    0.0000 </r>
       <r>   10.1603    0.0000 </r>
       <r>   10.3275    0.0000 </r>
      </set>
      <set comment="kpoint 6">
       <r>  -42.7821    1.0000 </r>
       <r>  -31.0106    1.0000 </r>
       <r>  -10.5177    1.0000 </r>
       <r>  -10.4714    1.0000 </r>
       <r>  -10.4671    1.0000 </r>
       <r>   -6.3337    1.0000 </r>
       <r>   -6.2916    1.0000 </r>
       <r>   -6.2542    1.0000 </r>
       <r>   -6.2539    1.0000 </r>
       <r>   -6.1910    1.0000 </r>
       <r>   -6.1814    1.0000 </r>
       <r>   -6.1380    1.0000 </r>
       <r>   -6.1248    1.0000 </r>
       <r>   -6.1191    1.0000 </r>
       <r>   -6.0212    1.0000 </r>
       <r>   -1.9814    1.0000 </r>
       <r>   -0.1816    1.0000 </r>
       <r>    4.2479    1.0000 </r>
       <r>    4.3408    1.0000 </r>
       <r>    4.9234    1.0038 </r>
       <r>    6.4253   -0.0032 </r>
       <r>    7.4954    0.0000 </r>
       <r>    7.5384    0.0000 </r>
       <r>    8.6277    0.0000 </r>
       <r>    9.0649    0.0000 </r>
       <r>    9.7038    0.0000 </r>
       <r>    9.7156    0.0000 </r>
       <r>   10.7784    0.0000 </r>
      </set>
      <set comment="kpoint 7">
       <r>  -42.7821    1.0000 </r>
       <r>  -31.0101    1.0000 </r>
       <r>  -10.5302    1.0000 </r>
       <r>  -10.4789    1.0000 </r>
       <r>  -10.4655    1.0000 </r>
       <r>   -6.2808    1.0000 </r>
       <r>   -6.2681    1.0000 </r>
       <r>   -6.2557    1.0000 </r>
       <r>   -6.2405    1.0000 </r>
       <r>   -6.2241    1.0000 </r>
       <r>   -6.2105    1.0000 </r>
       <r>   -6.1817    1.0000 </r>
       <r>   -6.1440    1.0000 </r>
       <r>   -6.1163    1.0000 </r>
       <r>   -6.0767    1.0000 </r>
       <r>   -1.3868    1.0000 </r>
       <r>   -0.6093    1.0000 </r>
       <r>    3.9411    1.0000 </r>
       <r>    4.5883    1.0000 </r>
       <r>    4.8996    1.0025 </r>
       <r>    6.7626    0.0000 </r>
       <r>    7.0872    0.0000 </r>
       <r>    7.2441    0.0000 </r>
       <r>    8.1987    0.0000 </r>
       <r>    8.9334    0.0000 </r>
       <r>   10.1433    0.0000 </r>
       <r>   10.6303    0.0000 </r>
       <r>   10.8603    0.0000 </r>
      </set>
      <set comment="kpoint 8">
       <r>  -42.7821    1.0000 </r>
       <r>  -31.0103    1.0000 </r>
       <r>  -10.5230    1.0000 </r>
       <r>  -10.4811    1.0000 </r>
       <r>  -10.4659    1.0000 </r>
       <r>   -6.2911    1.0000 </r>
       <r>   -6.2851    1.0000 </r>
       <r>   -6.2379    1.0000 </r>
       <r>   -6.2341    1.0000 </r>
       <r>   -6.2116    1.0000 </r>
       <r>   -6.2016    1.0000 </r>
       <r>   -6.1795    1.0000 </r>
       <r>   -6.1458    1.0000 </r>
       <r>   -6.1245    1.0000 </r>
       <r>   -6.0660    1.0000 </r>
       <r>   -1.5611    1.0000 </r>
       <r>   -0.5057    1.0000 </r>
       <r>    3.8782    1.0000 </r>
       <r>    4.8972    1.0000 </r>
       <r>    5.3046    1.0006 </r>
       <r>    5.9150    0.0000 </r>
       <r>    6.5910    0.0000 </r>
       <r>    8.0869    0.0000 </r>
       <r>    8.2389    0.0000 </r>
       <r>    9.2109    0.0000 </r>
       <r>    9.6127    0.0000 </r>
       <r>   10.4016    0.0000 </r>
       <r>   10.8218    0.0000 </r>
      </set>
      <set comment="kpoint 9">
       <r>  -42.7821    1.0000 </r>
       <r>  -31.0109    1.0000 </r>
       <r>  -10.5049    1.0000 </r>
       <r>  -10.4738    1.0000 </r>
       <r>  -10.4678    1.0000 </r>
       <r>   -6.3333    1.0000 </r>
       <r>   -6.2860    1.0000 </r>
       <r>   -6.2789    1.0000 </r>
       <r>   -6.2343    1.0000 </r>
       <r>   -6.1915    1.0000 </r>
       <r>   -6.1577    1.0000 </r>
       <r>   -6.1508    1.0000 </r>
       <r>   -6.1156    1.0000 </r>
       <r>   -6.0903    1.0000 </r>
       <r>   -6.0268    1.0000 </r>
       <r>   -2.2180    1.0000 </r>
       <r>   -0.0126    1.0000 </r>
       <r>    4.0028    1.0000 </r>
       <r>    4.7237    1.0000 </r>
       <r>    5.7344    0.9873 </r>
       <r>    5.7874    0.0065 </r>
       <r>    6.3212    0.0000 </r>
       <r>    8.1074    0.0000 </r>
       <r>    8.6651    0.0000 </r>
       <r>    9.1354    0.0000 </r>
       <r>    9.7568    0.0000 </r>
       <r>    9.8128    0.0000 </r>
       <r>   10.8173    0.0000 </r>
      </set>
      <set comment="kpoint 10">
       <r>  -42.7821    1.0000 </r>
       <r>  -31.0103    1.0000 </r>
       <r>  -10.5389    1.0000 </r>
       <r>  -10.4662    1.0000 </r>
       <r>  -10.4662    1.0000 </r>
       <r>   -6.3503    1.0000 </r>
       <r>   -6.3115    1.0000 </r>
       <r>   -6.2606    1.0000 </r>
       <r>   -6.2606    1.0000 </r>
       <r>   -6.1943    1.0000 </r>
       <r>   -6.1668    1.0000 </r>
       <r>   -6.1624    1.0000 </r>
       <r>   -6.1335    1.0000 </r>
       <r>   -6.1335    1.0000 </r>
       <r>   -5.9991    1.0000 </r>
       <r>   -1.5694    1.0000 </r>
       <r>   -0.3477    1.0000 </r>
       <r>    3.5500    1.0000 </r>
       <r>    4.4760    1.0000 </r>
       <r>    4.4760    1.0000 </r>
       <r>    7.7971   -0.0013 </r>
       <r>    8.0655    0.0000 </r>
       <r>    8.0924    0.0000 </r>
       <r>    8.1715    0.0000 </r>
       <r>    8.1715    0.0000 </r>
       <r>    9.6914    0.0000 </r>
       <r>    9.7163    0.0000 </r>
       <r>   10.1986    0.0000 </r>
      </set>
      <set comment="kpoint 11">
       <r>  -42.7821    1.0000 </r>
       <r>  -31.0099    1.0000 </r>
       <r>  -10.5442    1.0000 </r>
       <r>  -10.4760    1.0000 </r>
       <r>  -10.4650    1.0000 </r>
       <r>   -6.3250    1.0000 </r>
       <r>   -6.3177    1.0000 </r>
       <r>   -6.2518    1.0000 </r>
       <r>   -6.2500    1.0000 </r>
       <r>   -6.2431    1.0000 </r>
       <r>   -6.1850    1.0000 </r>
       <r>   -6.1707    1.0000 </r>
       <r>   -6.1578    1.0000 </r>
       <r>   -6.1173    1.0000 </r>
       <r>   -6.0218    1.0000 </r>
       <r>   -1.0238    1.0000 </r>
       <r>   -0.5942    1.0000 </r>
       <r>    2.9326    1.0000 </r>
       <r>    4.5386    1.0000 </r>
       <r>    4.7109    1.0000 </r>
       <r>    7.2813    0.0000 </r>
       <r>    7.3270    0.0000 </r>
       <r>    8.3227    0.0000 </r>
       <r>    8.3858    0.0000 </r>
       <r>    8.6777    0.0000 </r>
       <r>   10.1190    0.0000 </r>
       <r>   10.3495    0.0000 </r>
       <r>   10.5672    0.0000 </r>
      </set>
      <set comment="kpoint 12">
       <r>  -42.7821    1.0000 </r>
       <r>  -31.0099    1.0000 </r>
       <r>  -10.5187    1.0000 </r>
       <r>  -10.5011    1.0000 </r>
       <r>  -10.4649    1.0000 </r>
       <r>   -6.2851    1.0000 </r>
       <r>   -6.2732    1.0000 </r>
       <r>   -6.2663    1.0000 </r>
       <r>   -6.2497    1.0000 </r>
       <r>   -6.2288    1.0000 </r>
       <r>   -6.2095    1.0000 </r>
       <r>   -6.1936    1.0000 </r>
       <r>   -6.1811    1.0000 </r>
       <r>   -6.0796    1.0000 </r>
       <r>   -6.0781    1.0000 </r>
       <r>   -0.9732    1.0000 </r>
       <r>   -0.7053    1.0000 </r>
       <r>    3.1945    1.0000 </r>
       <r>    4.4334    1.0000 </r>
       <r>    4.9265    1.0000 </r>
       <r>    6.2916    0.0000 </r>
       <r>    7.5806    0.0000 </r>
       <r>    8.4443    0.0000 </r>
       <r>    8.5322    0.0000 </r>
       <r>    8.9382    0.0000 </r>
       <r>    9.7547    0.0000 </r>
       <r>   10.5189    0.0000 </r>
       <r>   10.5829    0.0000 </r>
      </set>
      <set comment="kpoint 13">
       <r>  -42.7820    1.0000 </r>
       <r>  -31.0097    1.0000 </r>
       <r>  -10.5606    1.0000 </r>
       <r>  -10.4648    1.0000 </r>
       <r>  -10.4648    1.0000 </r>
       <r>   -6.3445    1.0000 </r>
       <r>   -6.3427    1.0000 </r>
       <r>   -6.2593    1.0000 </r>
       <r>   -6.2500    1.0000 </r>
       <r>   -6.2500    1.0000 </r>
       <r>   -6.1677    1.0000 </r>
       <r>   -6.1677    1.0000 </r>
       <r>   -6.1612    1.0000 </r>
       <r>   -6.1139    1.0000 </r>
       <r>   -6.0004    1.0000 </r>
       <r>   -0.8153    1.0000 </r>
       <r>   -0.5942    1.0000 </r>
       <r>    2.4122    1.0000 </r>
       <r>    4.7964    1.0000 </r>
       <r>    4.7964    1.0000 </r>
       <r>    7.3810    0.0000 </r>
       <r>    7.3810    0.0000 </r>
       <r>    7.5507    0.0000 </r>
       <r>    8.2254    0.0000 </r>
       <r>    9.5867    0.0000 </r>
       <r>   10.3716    0.0000 </r>
       <r>   10.3943    0.0000 </r>
       <r>   10.5065    0.0000 </r>
      </set>
      <set comment="kpoint 14">
       <r>  -42.7821    1.0000 </r>
       <r>  -31.0101    1.0000 </r>
       <r>  -10.5262    1.0000 </r>
       <r>  -10.4835    1.0000 </r>
       <r>  -10.4657    1.0000 </r>
       <r>   -6.3147    1.0000 </r>
       <r>   -6.3008    1.0000 </r>
       <r>   -6.2444    1.0000 </r>
       <r>   -6.2434    1.0000 </r>
       <r>   -6.2121    1.0000 </r>
       <r>   -6.1867    1.0000 </r>
       <r>   -6.1799    1.0000 </r>
       <r>   -6.1487    1.0000 </r>
       <r>   -6.1324    1.0000 </r>
       <r>   -6.0360    1.0000 </r>
       <r>   -1.4016    1.0000 </r>
       <r>   -0.4966    1.0000 </r>
       <r>    3.7243    1.0000 </r>
       <r>    4.1135    1.0000 </r>
       <r>    5.1299    1.0005 </r>
       <r>    6.4382    0.0000 </r>
       <r>    7.5896    0.0000 </r>
       <r>    8.2029    0.0000 </r>
       <r>    8.2286    0.0000 </r>
       <r>    9.0724    0.0000 </r>
       <r>    9.5535    0.0000 </r>
       <r>   10.2107    0.0000 </r>
       <r>   10.7448    0.0000 </r>
      </set>
      <set comment="kpoint 15">
       <r>  -42.7821    1.0000 </r>
       <r>  -31.0099    1.0000 </r>
       <r>  -10.5188    1.0000 </r>
       <r>  -10.5009    1.0000 </r>
       <r>  -10.4649    1.0000 </r>
       <r>   -6.2775    1.0000 </r>
       <r>   -6.2747    1.0000 </r>
       <r>   -6.2726    1.0000 </r>
       <r>   -6.2499    1.0000 </r>
       <r>   -6.2336    1.0000 </r>
       <r>   -6.2064    1.0000 </r>
       <r>   -6.1905    1.0000 </r>
       <r>   -6.1815    1.0000 </r>
       <r>   -6.0794    1.0000 </r>
       <r>   -6.0790    1.0000 </r>
       <r>   -0.9759    1.0000 </r>
       <r>   -0.7039    1.0000 </r>
       <r>    3.5726    1.0000 </r>
       <r>    3.6437    1.0000 </r>
       <r>    5.5481    1.0000 </r>
       <r>    6.1782    0.0000 </r>
       <r>    7.5526    0.0000 </r>
       <r>    8.2323    0.0000 </r>
       <r>    8.4388    0.0000 </r>
       <r>    9.0517    0.0000 </r>
       <r>   10.2451    0.0000 </r>
       <r>   10.2668    0.0000 </r>
       <r>   10.7454    0.0000 </r>
      </set>
      <set comment="kpoint 16">
       <r>  -42.7821    1.0000 </r>
       <r>  -31.0097    1.0000 </r>
       <r>  -10.5365    1.0000 </r>
       <r>  -10.4886    1.0000 </r>
       <r>  -10.4647    1.0000 </r>
       <r>   -6.3109    1.0000 </r>
       <r>   -6.3071    1.0000 </r>
       <r>   -6.2722    1.0000 </r>
       <r>   -6.2355    1.0000 </r>
       <r>   -6.2293    1.0000 </r>
       <r>   -6.2069    1.0000 </r>
       <r>   -6.1892    1.0000 </r>
       <r>   -6.1825    1.0000 </r>
       <r>   -6.0934    1.0000 </r>
       <r>   -6.0379    1.0000 </r>
       <r>   -0.7804    1.0000 </r>
       <r>   -0.6735    1.0000 </r>
       <r>    2.8072    1.0000 </r>
       <r>    3.9053    1.0000 </r>
       <r>    5.4053    1.0000 </r>
       <r>    6.7015    0.0000 </r>
       <r>    7.4729    0.0000 </r>
       <r>    7.9395    0.0000 </r>
       <r>    8.9283    0.0000 </r>
       <r>    9.3742    0.0000 </r>
       <r>   10.1862    0.0000 </r>
       <r>   10.4286    0.0000 </r>
       <r>   10.5234    0.0000 </r>
      </set>
     </set>
    </set>
   </array>
  </eigenvalues>
  <separator name="orbital magnetization" >
   <v name="MAGDIPOLOUT">      0.00000000      0.00000000      0.00000000</v>
  </separator>
  <dos>
   <i name="efermi">      5.68282434 </i>
   <total>
    <array>
     <dimension dim="1">gridpoints</dimension>
     <dimension dim="2">spin</dimension>
     <field>energy</field>
     <field>total</field>
     <field>integrated</field>
     <set>
      <set comment="spin 1">
       <r>   -45.4708     0.0000     0.0000 </r>
       <r>   -45.2736     0.0000     0.0000 </r>
       <r>   -45.0764     0.0000     0.0000 </r>
       <r>   -44.8793     0.0000     0.0000 </r>
       <r>   -44.6821     0.0000     0.0000 </r>
       <r>   -44.4849     0.0000     0.0000 </r>
       <r>   -44.2878     0.0000     0.0000 </r>
       <r>   -44.0906     0.0000     0.0000 </r>
       <r>   -43.8934     0.0000     0.0000 </r>
       <r>   -43.6963     0.0000     0.0000 </r>
       <r>   -43.4991     0.0000     0.0000 </r>
       <r>   -43.3019     0.0000     0.0000 </r>
       <r>   -43.1048     0.0000     0.0000 </r>
       <r>   -42.9076     0.0000     0.0000 </r>
       <r>   -42.7104     5.0719     1.0000 </r>
       <r>   -42.5133     0.0000     1.0000 </r>
       <r>   -42.3161     0.0000     1.0000 </r>
       <r>   -42.1189     0.0000     1.0000 </r>
       <r>   -41.9218     0.0000     1.0000 </r>
       <r>   -41.7246     0.0000     1.0000 </r>
       <r>   -41.5274     0.0000     1.0000 </r>
       <r>   -41.3303     0.0000     1.0000 </r>
       <r>   -41.1331     0.0000     1.0000 </r>
       <r>   -40.9359     0.0000     1.0000 </r>
       <r>   -40.7388     0.0000     1.0000 </r>
       <r>   -40.5416     0.0000     1.0000 </r>
       <r>   -40.3444     0.0000     1.0000 </r>
       <r>   -40.1473     0.0000     1.0000 </r>
       <r>   -39.9501     0.0000     1.0000 </r>
       <r>   -39.7529     0.0000     1.0000 </r>
       <r>   -39.5558     0.0000     1.0000 </r>
       <r>   -39.3586     0.0000     1.0000 </r>
       <r>   -39.1614     0.0000     1.0000 </r>
       <r>   -38.9643     0.0000     1.0000 </r>
       <r>   -38.7671     0.0000     1.0000 </r>
       <r>   -38.5699     0.0000     1.0000 </r>
       <r>   -38.3728     0.0000     1.0000 </r>
       <r>   -38.1756     0.0000     1.0000 </r>
       <r>   -37.9784     0.0000     1.0000 </r>
       <r>   -37.7813     0.0000     1.0000 </r>
       <r>   -37.5841     0.0000     1.0000 </r>
       <r>   -37.3869     0.0000     1.0000 </r>
       <r>   -37.1898     0.0000     1.0000 </r>
       <r>   -36.9926     0.0000     1.0000 </r>
       <r>   -36.7954     0.0000     1.0000 </r>
       <r>   -36.5983     0.0000     1.0000 </r>
       <r>   -36.4011     0.0000     1.0000 </r>
       <r>   -36.2039     0.0000     1.0000 </r>
       <r>   -36.0068     0.0000     1.0000 </r>
       <r>   -35.8096     0.0000     1.0000 </r>
       <r>   -35.6124     0.0000     1.0000 </r>
       <r>   -35.4153     0.0000     1.0000 </r>
       <r>   -35.2181     0.0000     1.0000 </r>
       <r>   -35.0209     0.0000     1.0000 </r>
       <r>   -34.8238     0.0000     1.0000 </r>
       <r>   -34.6266     0.0000     1.0000 </r>
       <r>   -34.4294     0.0000     1.0000 </r>
       <r>   -34.2323     0.0000     1.0000 </r>
       <r>   -34.0351     0.0000     1.0000 </r>
       <r>   -33.8379     0.0000     1.0000 </r>
       <r>   -33.6408     0.0000     1.0000 </r>
       <r>   -33.4436     0.0000     1.0000 </r>
       <r>   -33.2464     0.0000     1.0000 </r>
       <r>   -33.0493     0.0000     1.0000 </r>
       <r>   -32.8521     0.0000     1.0000 </r>
       <r>   -32.6549     0.0000     1.0000 </r>
       <r>   -32.4578     0.0000     1.0000 </r>
       <r>   -32.2606     0.0000     1.0000 </r>
       <r>   -32.0634     0.0000     1.0000 </r>
       <r>   -31.8663     0.0000     1.0000 </r>
       <r>   -31.6691     0.0000     1.0000 </r>
       <r>   -31.4719     0.0000     1.0000 </r>
       <r>   -31.2748     0.0000     1.0000 </r>
       <r>   -31.0776     0.0000     1.0000 </r>
       <r>   -30.8804     5.0719     2.0000 </r>
       <r>   -30.6833     0.0000     2.0000 </r>
       <r>   -30.4861     0.0000     2.0000 </r>
       <r>   -30.2889     0.0000     2.0000 </r>
       <r>   -30.0918     0.0000     2.0000 </r>
       <r>   -29.8946     0.0000     2.0000 </r>
       <r>   -29.6974     0.0000     2.0000 </r>
       <r>   -29.5003     0.0000     2.0000 </r>
       <r>   -29.3031     0.0000     2.0000 </r>
       <r>   -29.1059     0.0000     2.0000 </r>
       <r>   -28.9088     0.0000     2.0000 </r>
       <r>   -28.7116     0.0000     2.0000 </r>
       <r>   -28.5144     0.0000     2.0000 </r>
       <r>   -28.3173     0.0000     2.0000 </r>
       <r>   -28.1201     0.0000     2.0000 </r>
       <r>   -27.9229     0.0000     2.0000 </r>
       <r>   -27.7258     0.0000     2.0000 </r>
       <r>   -27.5286     0.0000     2.0000 </r>
       <r>   -27.3314     0.0000     2.0000 </r>
       <r>   -27.1343     0.0000     2.0000 </r>
       <r>   -26.9371     0.0000     2.0000 </r>
       <r>   -26.7399     0.0000     2.0000 </r>
       <r>   -26.5428     0.0000     2.0000 </r>
       <r>   -26.3456     0.0000     2.0000 </r>
       <r>   -26.1484     0.0000     2.0000 </r>
       <r>   -25.9513     0.0000     2.0000 </r>
       <r>   -25.7541     0.0000     2.0000 </r>
       <r>   -25.5569     0.0000     2.0000 </r>
       <r>   -25.3598     0.0000     2.0000 </r>
       <r>   -25.1626     0.0000     2.0000 </r>
       <r>   -24.9654     0.0000     2.0000 </r>
       <r>   -24.7683     0.0000     2.0000 </r>
       <r>   -24.5711     0.0000     2.0000 </r>
       <r>   -24.3739     0.0000     2.0000 </r>
       <r>   -24.1768     0.0000     2.0000 </r>
       <r>   -23.9796     0.0000     2.0000 </r>
       <r>   -23.7824     0.0000     2.0000 </r>
       <r>   -23.5853     0.0000     2.0000 </r>
       <r>   -23.3881     0.0000     2.0000 </r>
       <r>   -23.1909     0.0000     2.0000 </r>
       <r>   -22.9938     0.0000     2.0000 </r>
       <r>   -22.7966     0.0000     2.0000 </r>
       <r>   -22.5994     0.0000     2.0000 </r>
       <r>   -22.4023     0.0000     2.0000 </r>
       <r>   -22.2051     0.0000     2.0000 </r>
       <r>   -22.0079     0.0000     2.0000 </r>
[...]
        <r>  0.0016  0.0021  0.0101  0.0122  0.0037  0.0021  0.0012  0.0051  0.0004  0.0000  0.0000  0.0000  0.0000  0.0000  0.0000  0.0000 </r>
       </set>
       <set comment="band 27">
        <r>  0.0002  0.0000  0.0018  0.0027  0.0000  0.0000  0.0000  0.0000  0.0000  0.0000  0.0000  0.0000  0.0000  0.0000  0.0000  0.0000 </r>
        <r>  0.0129  0.0001  0.0007  0.0010  0.0612  0.0573  0.0011  0.0009  0.0012  0.0155  0.0071  0.0150  0.1097  0.0299  0.0449  0.1839 </r>
        <r>  0.0146  0.0001  0.0018  0.0001  0.0012  0.0023  0.0009  0.0129  0.0010  0.0000  0.0000  0.0000  0.0000  0.0000  0.0000  0.0000 </r>
        <r>  0.0148  0.0001  0.0012  0.0002  0.0008  0.0015  0.0006  0.0134  0.0001  0.0000  0.0000  0.0000  0.0000  0.0000  0.0000  0.0000 </r>
       </set>
       <set comment="band 28">
        <r>  0.0002  0.0000  0.0001  0.0009  0.0000  0.0000  0.0000  0.0000  0.0000  0.0000  0.0000  0.0000  0.0000  0.0000  0.0000  0.0000 </r>
        <r>  0.0133  0.0008  0.0006  0.0005  0.0041  0.0063  0.0019  0.0042  0.0075  0.2895  0.0163  0.1025  0.0169  0.1775  0.0565  0.0237 </r>
        <r>  0.0025  0.0008  0.0003  0.0001  0.0032  0.0026  0.0015  0.0000  0.0016  0.0000  0.0000  0.0000  0.0000  0.0000  0.0000  0.0000 </r>
        <r>  0.0021  0.0004  0.0002  0.0003  0.0008  0.0025  0.0020  0.0005  0.0004  0.0000  0.0000  0.0000  0.0000  0.0000  0.0000  0.0000 </r>
       </set>
      </set>
      <set comment="kpoint 16">
       <set comment="band 1">
        <r>  0.9907  0.0000  0.0000  0.0000  0.0000  0.0000  0.0000  0.0000  0.0000  0.0000  0.0000  0.0000  0.0000  0.0000  0.0000  0.0000 </r>
        <r>  0.0000  0.0000  0.0000  0.0000  0.0000  0.0000  0.0000  0.0000  0.0000  0.0000  0.0000  0.0000  0.0000  0.0000  0.0000  0.0000 </r>
        <r>  0.0000  0.0000  0.0000  0.0000  0.0000  0.0000  0.0000  0.0000  0.0000  0.0000  0.0000  0.0000  0.0000  0.0000  0.0000  0.0000 </r>
        <r>  0.0000  0.0000  0.0000  0.0000  0.0000  0.0000  0.0000  0.0000  0.0000  0.0000  0.0000  0.0000  0.0000  0.0000  0.0000  0.0000 </r>
       </set>
       <set comment="band 2">
        <r>  0.0000  0.0000  0.0000  0.0000  0.0000  0.0000  0.0000  0.0000  0.0000  0.0000  0.0000  0.0000  0.0000  0.0000  0.0000  0.0000 </r>
        <r>  0.9837  0.0000  0.0000  0.0000  0.0000  0.0000  0.0000  0.0000  0.0000  0.0000  0.0000  0.0000  0.0000  0.0000  0.0000  0.0000 </r>
        <r>  0.0000  0.0000  0.0000  0.0000  0.0000  0.0000  0.0000  0.0000  0.0000  0.0000  0.0000  0.0000  0.0000  0.0000  0.0000  0.0000 </r>
        <r>  0.0000  0.0000  0.0000  0.0000  0.0000  0.0000  0.0000  0.0000  0.0000  0.0000  0.0000  0.0000  0.0000  0.0000  0.0000  0.0000 </r>
       </set>
       <set comment="band 3">
        <r>  0.0000  0.0000  0.0000  0.0000  0.0000  0.0000  0.0000  0.0000  0.0000  0.0000  0.0000  0.0000  0.0000  0.0000  0.0000  0.0000 </r>
        <r>  0.0000  0.0000  0.8609  0.0000  0.0000  0.0000  0.0000  0.0000  0.0000  0.0000  0.0000  0.0000  0.0000  0.0000  0.0000  0.0000 </r>
        <r>  0.0054  0.0005  0.0000  0.0000  0.0000  0.0000  0.0014  0.0013  0.0000  0.0000  0.0000  0.0000  0.0000  0.0000  0.0000  0.0000 </r>
        <r>  0.0054  0.0005  0.0000  0.0000  0.0000  0.0000  0.0014  0.0013  0.0000  0.0000  0.0000  0.0000  0.0000  0.0000  0.0000  0.0000 </r>
       </set>
       <set comment="band 4">
        <r>  0.0000  0.0000  0.0000  0.0000  0.0000  0.0000  0.0000  0.0000  0.0000  0.0000  0.0000  0.0000  0.0000  0.0000  0.0000  0.0000 </r>
        <r>  0.0000  0.0000  0.0000  0.8702  0.0000  0.0000  0.0000  0.0000  0.0000  0.0000  0.0000  0.0000  0.0000  0.0000  0.0000  0.0000 </r>
        <r>  0.0018  0.0014  0.0000  0.0000  0.0000  0.0000  0.0001  0.0040  0.0003  0.0000  0.0000  0.0000  0.0000  0.0000  0.0000  0.0000 </r>
        <r>  0.0018  0.0014  0.0000  0.0000  0.0000  0.0000  0.0001  0.0040  0.0003  0.0000  0.0000  0.0000  0.0000  0.0000  0.0000  0.0000 </r>
       </set>
       <set comment="band 5">
        <r>  0.0000  0.0000  0.0000  0.0000  0.0000  0.0000  0.0000  0.0000  0.0000  0.0000  0.0000  0.0000  0.0000  0.0000  0.0000  0.0000 </r>
        <r>  0.0000  0.8748  0.0000  0.0000  0.0000  0.0000  0.0000  0.0000  0.0000  0.0000  0.0000  0.0000  0.0000  0.0000  0.0000  0.0000 </r>
        <r>  0.0000  0.0000  0.0005  0.0014  0.0014  0.0041  0.0000  0.0000  0.0000  0.0000  0.0000  0.0000  0.0000  0.0000  0.0000  0.0000 </r>
        <r>  0.0000  0.0000  0.0005  0.0014  0.0014  0.0041  0.0000  0.0000  0.0000  0.0000  0.0000  0.0000  0.0000  0.0000  0.0000  0.0000 </r>
       </set>
       <set comment="band 6">
        <r>  0.0000  0.0000  0.0000  0.0000  0.0000  0.0000  0.0000  0.0000  0.0000  0.0000  0.0000  0.0000  0.0000  0.0000  0.0000  0.0000 </r>
        <r>  0.0000  0.0000  0.0001  0.0000  0.0000  0.0003  0.0000  0.0000  0.0000  0.0000  0.0000  0.0000  0.0000  0.0000  0.0005  0.0000 </r>
        <r>  0.0002  0.0001  0.0000  0.0000  0.0000  0.0000  0.0099  0.0077  0.4543  0.0000  0.0000  0.0000  0.0000  0.0000  0.0000  0.0000 </r>
        <r>  0.0002  0.0001  0.0000  0.0000  0.0000  0.0000  0.0099  0.0077  0.4543  0.0000  0.0000  0.0000  0.0000  0.0000  0.0000  0.0000 </r>
       </set>
       <set comment="band 7">
        <r>  0.0001  0.0000  0.0000  0.0000  0.0000  0.0000  0.0000  0.0000  0.0000  0.0000  0.0000  0.0000  0.0000  0.0000  0.0000  0.0000 </r>
        <r>  0.0017  0.0009  0.0000  0.0000  0.0000  0.0000  0.0004  0.0000  0.0000  0.0000  0.0000  0.0001  0.0000  0.0000  0.0000  0.0000 </r>
        <r>  0.0000  0.0000  0.0000  0.0000  0.4414  0.0306  0.0000  0.0000  0.0000  0.0000  0.0000  0.0000  0.0000  0.0000  0.0000  0.0000 </r>
        <r>  0.0000  0.0000  0.0000  0.0000  0.4414  0.0306  0.0000  0.0000  0.0000  0.0000  0.0000  0.0000  0.0000  0.0000  0.0000  0.0000 </r>
       </set>
       <set comment="band 8">
        <r>  0.0000  0.0000  0.0000  0.0000  0.0000  0.0000  0.0000  0.0000  0.0000  0.0000  0.0000  0.0000  0.0000  0.0000  0.0000  0.0000 </r>
        <r>  0.0000  0.0000  0.0000  0.0000  0.0010  0.0000  0.0000  0.0000  0.0000  0.0000  0.0000  0.0000  0.0000  0.0001  0.0000  0.0000 </r>
        <r>  0.0011  0.0000  0.0000  0.0000  0.0000  0.0000  0.4423  0.0254  0.0034  0.0000  0.0000  0.0000  0.0000  0.0000  0.0000  0.0000 </r>
        <r>  0.0011  0.0000  0.0000  0.0000  0.0000  0.0000  0.4423  0.0254  0.0034  0.0000  0.0000  0.0000  0.0000  0.0000  0.0000  0.0000 </r>
       </set>
       <set comment="band 9">
        <r>  0.0000  0.0000  0.0000  0.0000  0.0000  0.0000  0.0000  0.0000  0.0000  0.0000  0.0000  0.0000  0.0000  0.0000  0.0000  0.0000 </r>
        <r>  0.0000  0.0000  0.0015  0.0000  0.0000  0.0019  0.0000  0.0000  0.0000  0.0000  0.0000  0.0000  0.0001  0.0000  0.0001  0.0000 </r>
        <r>  0.0002  0.0000  0.0000  0.0000  0.0000  0.0000  0.0143  0.4503  0.0111  0.0000  0.0000  0.0000  0.0000  0.0000  0.0000  0.0000 </r>
        <r>  0.0002  0.0000  0.0000  0.0000  0.0000  0.0000  0.0143  0.4503  0.0111  0.0000  0.0000  0.0000  0.0000  0.0000  0.0000  0.0000 </r>
       </set>
       <set comment="band 10">
        <r>  0.0000  0.0000  0.0000  0.0000  0.0000  0.0000  0.0000  0.0000  0.0000  0.0000  0.0000  0.0000  0.0000  0.0000  0.0000  0.0000 </r>
        <r>  0.0000  0.0000  0.0000  0.0000  0.0000  0.0000  0.0000  0.0023  0.0000  0.0000  0.0001  0.0000  0.0000  0.0000  0.0000  0.0000 </r>
        <r>  0.0000  0.0000  0.0000  0.0000  0.0126  0.4649  0.0000  0.0000  0.0000  0.0000  0.0000  0.0000  0.0000  0.0000  0.0000  0.0000 </r>
        <r>  0.0000  0.0000  0.0000  0.0000  0.0126  0.4649  0.0000  0.0000  0.0000  0.0000  0.0000  0.0000  0.0000  0.0000  0.0000  0.0000 </r>
       </set>
       <set comment="band 11">
        <r>  0.0001  0.0000  0.0000  0.0000  0.0000  0.0000  0.0000  0.0000  0.0000  0.0000  0.0000  0.0000  0.0000  0.0000  0.0000  0.0000 </r>
        <r>  0.0001  0.0123  0.0000  0.0000  0.0000  0.0000  0.0002  0.0000  0.0001  0.0004  0.0000  0.0000  0.0000  0.0000  0.0000  0.0000 </r>
        <r>  0.0000  0.0000  0.0000  0.0000  0.0294  0.4416  0.0000  0.0000  0.0000  0.0000  0.0000  0.0000  0.0000  0.0000  0.0000  0.0000 </r>
        <r>  0.0000  0.0000  0.0000  0.0000  0.0294  0.4416  0.0000  0.0000  0.0000  0.0000  0.0000  0.0000  0.0000  0.0000  0.0000  0.0000 </r>
       </set>
       <set comment="band 12">
        <r>  0.0000  0.0000  0.0000  0.0000  0.0000  0.0000  0.0000  0.0000  0.0000  0.0000  0.0000  0.0000  0.0000  0.0000  0.0000  0.0000 </r>
        <r>  0.0000  0.0000  0.0000  0.0087  0.0004  0.0000  0.0000  0.0000  0.0000  0.0000  0.0000  0.0000  0.0000  0.0000  0.0000  0.0005 </r>
        <r>  0.0000  0.0000  0.0000  0.0000  0.0000  0.0000  0.0222  0.4384  0.0138  0.0000  0.0000  0.0000  0.0000  0.0000  0.0000  0.0000 </r>
        <r>  0.0000  0.0000  0.0000  0.0000  0.0000  0.0000  0.0222  0.4384  0.0138  0.0000  0.0000  0.0000  0.0000  0.0000  0.0000  0.0000 </r>
       </set>
       <set comment="band 13">
        <r>  0.0000  0.0000  0.0000  0.0000  0.0000  0.0000  0.0000  0.0000  0.0000  0.0000  0.0000  0.0000  0.0000  0.0000  0.0000  0.0000 </r>
        <r>  0.0000  0.0000  0.0000  0.0000  0.0000  0.0000  0.0000  0.0003  0.0000  0.0000  0.0009  0.0000  0.0000  0.0000  0.0000  0.0000 </r>
        <r>  0.0000  0.0000  0.0000  0.0000  0.4676  0.0128  0.0000  0.0000  0.0000  0.0000  0.0000  0.0000  0.0000  0.0000  0.0000  0.0000 </r>
        <r>  0.0000  0.0000  0.0000  0.0000  0.4676  0.0128  0.0000  0.0000  0.0000  0.0000  0.0000  0.0000  0.0000  0.0000  0.0000  0.0000 </r>
       </set>
       <set comment="band 14">
        <r>  0.0000  0.0000  0.0000  0.0000  0.0000  0.0000  0.0000  0.0000  0.0000  0.0000  0.0000  0.0000  0.0000  0.0000  0.0000  0.0000 </r>
        <r>  0.0000  0.0000  0.0075  0.0000  0.0000  0.0000  0.0000  0.0000  0.0000  0.0000  0.0000  0.0000  0.0000  0.0000  0.0000  0.0000 </r>
        <r>  0.0004  0.0000  0.0000  0.0000  0.0000  0.0000  0.4529  0.0176  0.0069  0.0000  0.0000  0.0000  0.0000  0.0000  0.0000  0.0000 </r>
        <r>  0.0004  0.0000  0.0000  0.0000  0.0000  0.0000  0.4529  0.0176  0.0069  0.0000  0.0000  0.0000  0.0000  0.0000  0.0000  0.0000 </r>
       </set>
       <set comment="band 15">
        <r>  0.0000  0.0000  0.0000  0.0000  0.0000  0.0000  0.0000  0.0000  0.0000  0.0000  0.0000  0.0000  0.0000  0.0000  0.0000  0.0000 </r>
        <r>  0.0000  0.0000  0.0000  0.0028  0.0000  0.0000  0.0000  0.0000  0.0000  0.0000  0.0000  0.0000  0.0000  0.0000  0.0000  0.0000 </r>
        <r>  0.0001  0.0000  0.0000  0.0000  0.0000  0.0000  0.0068  0.0100  0.4656  0.0000  0.0000  0.0000  0.0000  0.0000  0.0000  0.0000 </r>
        <r>  0.0001  0.0000  0.0000  0.0000  0.0000  0.0000  0.0068  0.0100  0.4656  0.0000  0.0000  0.0000  0.0000  0.0000  0.0000  0.0000 </r>
       </set>
       <set comment="band 16">
        <r>  0.0000  0.0000  0.0004  0.0000  0.0000  0.0000  0.0000  0.0000  0.0000  0.0000  0.0000  0.0000  0.0000  0.0000  0.0000  0.0000 </r>
        <r>  0.0000  0.0000  0.0565  0.0000  0.0000  0.0092  0.0000  0.0000  0.0000  0.0000  0.0000  0.0000  0.0020  0.0000  0.0000  0.0000 </r>
        <r>  0.2712  0.0004  0.0000  0.0000  0.0000  0.0000  0.0045  0.0005  0.0003  0.0000  0.0000  0.0000  0.0000  0.0000  0.0000  0.0000 </r>
        <r>  0.2712  0.0004  0.0000  0.0000  0.0000  0.0000  0.0045  0.0005  0.0003  0.0000  0.0000  0.0000  0.0000  0.0000  0.0000  0.0000 </r>
       </set>
       <set comment="band 17">
        <r>  0.0000  0.0000  0.0000  0.0002  0.0000  0.0000  0.0000  0.0000  0.0000  0.0000  0.0000  0.0000  0.0000  0.0000  0.0000  0.0000 </r>
        <r>  0.0000  0.0000  0.0000  0.0217  0.0309  0.0000  0.0000  0.0000  0.0000  0.0000  0.0000  0.0000  0.0000  0.0004  0.0000  0.0004 </r>
        <r>  0.2780  0.0005  0.0000  0.0000  0.0000  0.0000  0.0059  0.0005  0.0003  0.0000  0.0000  0.0000  0.0000  0.0000  0.0000  0.0000 </r>
        <r>  0.2780  0.0005  0.0000  0.0000  0.0000  0.0000  0.0059  0.0005  0.0003  0.0000  0.0000  0.0000  0.0000  0.0000  0.0000  0.0000 </r>
       </set>
       <set comment="band 18">
        <r>  0.0098  0.0007  0.0000  0.0000  0.0000  0.0000  0.0000  0.0000  0.0000  0.0000  0.0000  0.0000  0.0000  0.0000  0.0000  0.0000 </r>
        <r>  0.0418  0.0056  0.0000  0.0000  0.0000  0.0000  0.0349  0.0000  0.0001  0.0008  0.0000  0.0010  0.0000  0.0000  0.0000  0.0000 </r>
        <r>  0.0000  0.0000  0.0876  0.0018  0.0004  0.0014  0.0000  0.0000  0.0000  0.0000  0.0000  0.0000  0.0000  0.0000  0.0000  0.0000 </r>
        <r>  0.0000  0.0000  0.0876  0.0018  0.0004  0.0014  0.0000  0.0000  0.0000  0.0000  0.0000  0.0000  0.0000  0.0000  0.0000  0.0000 </r>
       </set>
       <set comment="band 19">
        <r>  0.0083  0.0017  0.0000  0.0000  0.0000  0.0000  0.0000  0.0000  0.0000  0.0000  0.0000  0.0000  0.0000  0.0000  0.0000  0.0000 </r>
        <r>  0.0173  0.0363  0.0000  0.0000  0.0000  0.0000  0.0130  0.0000  0.0194  0.0016  0.0000  0.0042  0.0000  0.0000  0.0000  0.0000 </r>
        <r>  0.0000  0.0000  0.0001  0.0939  0.0035  0.0010  0.0000  0.0000  0.0000  0.0000  0.0000  0.0000  0.0000  0.0000  0.0000  0.0000 </r>
        <r>  0.0000  0.0000  0.0001  0.0939  0.0035  0.0010  0.0000  0.0000  0.0000  0.0000  0.0000  0.0000  0.0000  0.0000  0.0000  0.0000 </r>
       </set>
       <set comment="band 20">
        <r>  0.0000  0.0000  0.0000  0.0033  0.0000  0.0000  0.0000  0.0000  0.0000  0.0000  0.0000  0.0000  0.0000  0.0000  0.0000  0.0000 </r>
        <r>  0.0000  0.0000  0.0000  0.0471  0.0420  0.0000  0.0000  0.0000  0.0000  0.0000  0.0000  0.0000  0.0000  0.0100  0.0000  0.0057 </r>
        <r>  0.0026  0.1136  0.0000  0.0000  0.0000  0.0000  0.0023  0.0001  0.0023  0.0000  0.0000  0.0000  0.0000  0.0000  0.0000  0.0000 </r>
        <r>  0.0026  0.1136  0.0000  0.0000  0.0000  0.0000  0.0023  0.0001  0.0023  0.0000  0.0000  0.0000  0.0000  0.0000  0.0000  0.0000 </r>
       </set>
       <set comment="band 21">
        <r>  0.0000  0.0000  0.0017  0.0000  0.0000  0.0000  0.0000  0.0000  0.0000  0.0000  0.0000  0.0000  0.0000  0.0000  0.0000  0.0000 </r>
        <r>  0.0000  0.0000  0.0172  0.0000  0.0000  0.1902  0.0000  0.0000  0.0000  0.0000  0.0000  0.0000  0.0002  0.0000  0.0122  0.0000 </r>
        <r>  0.0019  0.1029  0.0000  0.0000  0.0000  0.0000  0.0004  0.0020  0.0063  0.0000  0.0000  0.0000  0.0000  0.0000  0.0000  0.0000 </r>
        <r>  0.0019  0.1029  0.0000  0.0000  0.0000  0.0000  0.0004  0.0020  0.0063  0.0000  0.0000  0.0000  0.0000  0.0000  0.0000  0.0000 </r>
       </set>
       <set comment="band 22">
        <r>  0.0000  0.0000  0.0000  0.0000  0.0000  0.0000  0.0000  0.0000  0.0000  0.0000  0.0000  0.0000  0.0000  0.0000  0.0000  0.0000 </r>
        <r>  0.0000  0.0000  0.0000  0.0000  0.0000  0.0000  0.0000  0.3633  0.0000  0.0000  0.0002  0.0000  0.0000  0.0000  0.0000  0.0000 </r>
        <r>  0.0000  0.0000  0.0163  0.0666  0.0032  0.0078  0.0000  0.0000  0.0000  0.0000  0.0000  0.0000  0.0000  0.0000  0.0000  0.0000 </r>
        <r>  0.0000  0.0000  0.0163  0.0666  0.0032  0.0078  0.0000  0.0000  0.0000  0.0000  0.0000  0.0000  0.0000  0.0000  0.0000  0.0000 </r>
       </set>
       <set comment="band 23">
        <r>  0.0017  0.0017  0.0000  0.0000  0.0000  0.0000  0.0000  0.0000  0.0000  0.0000  0.0000  0.0000  0.0000  0.0000  0.0000  0.0000 </r>
        <r>  0.0466  0.0012  0.0000  0.0000  0.0000  0.0000  0.1029  0.0000  0.2012  0.0000  0.0000  0.0000  0.0000  0.0000  0.0000  0.0000 </r>
        <r>  0.0000  0.0000  0.0049  0.0000  0.0144  0.0030  0.0000  0.0000  0.0000  0.0000  0.0000  0.0000  0.0000  0.0000  0.0000  0.0000 </r>
        <r>  0.0000  0.0000  0.0049  0.0000  0.0144  0.0030  0.0000  0.0000  0.0000  0.0000  0.0000  0.0000  0.0000  0.0000  0.0000  0.0000 </r>
       </set>
       <set comment="band 24">
        <r>  0.0019  0.0001  0.0000  0.0000  0.0000  0.0000  0.0000  0.0000  0.0000  0.0000  0.0000  0.0000  0.0000  0.0000  0.0000  0.0000 </r>
        <r>  0.0134  0.0342  0.0000  0.0000  0.0000  0.0000  0.1053  0.0000  0.1937  0.0011  0.0000  0.0169  0.0000  0.0000  0.0000  0.0000 </r>
        <r>  0.0000  0.0000  0.0101  0.0219  0.0106  0.0014  0.0000  0.0000  0.0000  0.0000  0.0000  0.0000  0.0000  0.0000  0.0000  0.0000 </r>
        <r>  0.0000  0.0000  0.0101  0.0219  0.0106  0.0014  0.0000  0.0000  0.0000  0.0000  0.0000  0.0000  0.0000  0.0000  0.0000  0.0000 </r>
       </set>
       <set comment="band 25">
        <r>  0.0000  0.0000  0.0000  0.0000  0.0000  0.0000  0.0000  0.0000  0.0000  0.0000  0.0000  0.0000  0.0000  0.0000  0.0000  0.0000 </r>
        <r>  0.0000  0.0000  0.0000  0.0000  0.0000  0.0000  0.0000  0.0022  0.0000  0.0000  0.3850  0.0000  0.0000  0.0000  0.0000  0.0000 </r>
        <r>  0.0000  0.0000  0.0984  0.0339  0.0018  0.0000  0.0000  0.0000  0.0000  0.0000  0.0000  0.0000  0.0000  0.0000  0.0000  0.0000 </r>
        <r>  0.0000  0.0000  0.0984  0.0338  0.0018  0.0000  0.0000  0.0000  0.0000  0.0000  0.0000  0.0000  0.0000  0.0000  0.0000  0.0000 </r>
       </set>
       <set comment="band 26">
        <r>  0.0001  0.0000  0.0066  0.0007  0.0000  0.0000  0.0000  0.0000  0.0000  0.0000  0.0000  0.0000  0.0000  0.0000  0.0000  0.0000 </r>
        <r>  0.0000  0.0000  0.0023  0.0000  0.0110  0.0959  0.0002  0.0000  0.0000  0.0021  0.0000  0.0023  0.3107  0.0382  0.0130  0.0271 </r>
        <r>  0.0157  0.0002  0.0000  0.0000  0.0000  0.0000  0.0052  0.0156  0.0000  0.0000  0.0000  0.0000  0.0000  0.0000  0.0000  0.0000 </r>
        <r>  0.0305  0.0008  0.0000  0.0000  0.0000  0.0000  0.0021  0.0076  0.0000  0.0000  0.0000  0.0000  0.0000  0.0000  0.0000  0.0000 </r>
       </set>
       <set comment="band 27">
        <r>  0.0054  0.0006  0.0006  0.0018  0.0000  0.0000  0.0000  0.0000  0.0000  0.0000  0.0000  0.0000  0.0000  0.0000  0.0000  0.0000 </r>
        <r>  0.0001  0.0000  0.0005  0.0001  0.0280  0.0002  0.0116  0.0000  0.0033  0.1567  0.0000  0.1709  0.0287  0.0862  0.0538  0.0730 </r>
        <r>  0.0088  0.0009  0.0010  0.0032  0.0010  0.0026  0.0009  0.0031  0.0014  0.0000  0.0000  0.0000  0.0000  0.0000  0.0000  0.0000 </r>
        <r>  0.0043  0.0011  0.0011  0.0032  0.0010  0.0026  0.0023  0.0038  0.0017  0.0000  0.0000  0.0000  0.0000  0.0000  0.0000  0.0000 </r>
       </set>
       <set comment="band 28">
        <r>  0.0023  0.0003  0.0010  0.0001  0.0000  0.0000  0.0000  0.0000  0.0000  0.0000  0.0000  0.0000  0.0000  0.0000  0.0000  0.0000 </r>
        <r>  0.0001  0.0000  0.0015  0.0000  0.0020  0.0216  0.0048  0.0000  0.0015  0.0813  0.0000  0.0737  0.0583  0.0091  0.4092  0.0033 </r>
        <r>  0.0008  0.0001  0.0005  0.0016  0.0004  0.0013  0.0002  0.0012  0.0102  0.0000  0.0000  0.0000  0.0000  0.0000  0.0000  0.0000 </r>
        <r>  0.0005  0.0003  0.0005  0.0015  0.0004  0.0013  0.0008  0.0008  0.0100  0.0000  0.0000  0.0000  0.0000  0.0000  0.0000  0.0000 </r>
       </set>
      </set>
     </set>
    </set>
   </array>
  </projected>
 </calculation>
 <structure name="finalpos" >
  <crystal>
   <varray name="basis" >
    <v>       0.00000000       3.88749438       3.88749438 </v>
    <v>       3.88749438       0.00000000       3.88749438 </v>
    <v>       3.88749438       3.88749438       0.00000000 </v>
   </varray>
   <i name="volume">    117.50039258 </i>
   <varray name="rec_basis" >
    <v>      -0.12861755       0.12861755       0.12861755 </v>
    <v>       0.12861755      -0.12861755       0.12861755 </v>
    <v>       0.12861755       0.12861755      -0.12861755 </v>
   </varray>
  </crystal>
  <varray name="positions" >
   <v>       0.75000000       0.75000000       0.75000000 </v>
   <v>       0.25000000       0.25000000       0.25000000 </v>
   <v>       0.00000000       0.00000000       0.00000000 </v>
   <v>       0.50000100       0.50000100       0.50000100 </v>
  </varray>
 </structure>
</modeling>
