<?xml version="1.0" encoding="ISO-8859-1"?>
<modeling>
 <generator>
  <i name="program" type="string">vasp </i>
  <i name="version" type="string">5.4.4.18Apr17-6-g9f103f2a35  </i>
  <i name="subversion" type="string">(build Sep 10 2019 12:14:21) complex            parallel </i>
  <i name="platform" type="string">LinuxIFC </i>
  <i name="date" type="string">2020 10 23 </i>
  <i name="time" type="string">11:29:04 </i>
 </generator>
 <incar>
  <i type="string" name="PREC">accurate</i>
  <i type="string" name="ALGO"> All</i>
  <i type="int" name="ISPIN">     2</i>
  <i type="int" name="ICHARG">     1</i>
  <i type="int" name="NELM">   200</i>
  <i type="int" name="IBRION">     2</i>
  <i name="EDIFF">      0.00001000</i>
  <i name="EDIFFG">     -0.02000000</i>
  <i type="int" name="NSW">    99</i>
  <i type="int" name="ISIF">     3</i>
  <i name="ENCUT">    680.00000000</i>
  <i name="ENAUG">   1360.00000000</i>
  <v name="MAGMOM">      0.60000000</v>
  <i type="string" name="LREAL"> Auto</i>
  <i type="int" name="ISMEAR">    -5</i>
  <i name="SIGMA">      0.05000000</i>
  <i name="KSPACING">      0.25000000</i>
  <i type="logical" name="LWAVE"> F  </i>
  <i type="logical" name="LCHARG"> T  </i>
  <i type="logical" name="LVTOT"> T  </i>
  <i type="int" name="LORBIT">    11</i>
  <i type="logical" name="LELF"> T  </i>
  <i type="logical" name="LASPH"> T  </i>
  <i type="logical" name="LAECHG"> T  </i>
  <v type="int" name="KPOINT_BSE">    -1     0     0     0</v>
  <i type="int" name="NELM">   200</i>
  <i type="string" name="METAGGA"> R2scan</i>
  <i type="logical" name="LASPH"> T  </i>
  <i type="int" name="LMIXTAU">    -1</i>
 </incar>
 <structure name="primitive_cell" >
  <crystal>
   <varray name="basis" >
    <v>       0.00000000       2.00252300       2.00252300 </v>
    <v>       2.00252300       0.00000000       2.00252300 </v>
    <v>       2.00252300       2.00252300       0.00000000 </v>
   </varray>
   <i name="volume">     16.06062842 </i>
   <varray name="rec_basis" >
    <v>      -0.24968502       0.24968502       0.24968502 </v>
    <v>       0.24968502      -0.24968502       0.24968502 </v>
    <v>       0.24968502       0.24968502      -0.24968502 </v>
   </varray>
  </crystal>
  <varray name="positions" >
   <v>       0.00000000       0.00000000       0.00000000 </v>
  </varray>
 </structure>
 <varray name="primitive_index" >
  <v type="int" >        1 </v>
 </varray>
 <kpoints>
  <generation param="Gamma">
   <v type="int" name="divisions">      11       11       11 </v>
   <v name="usershift">      0.00000000       0.00000000       0.00000000 </v>
   <v name="genvec1">      0.09090909       0.00000000       0.00000000 </v>
   <v name="genvec2">      0.00000000       0.09090909       0.00000000 </v>
   <v name="genvec3">      0.00000000       0.00000000       0.09090909 </v>
   <v name="shift">      0.00000000       0.00000000       0.00000000 </v>
  </generation>
  <varray name="kpointlist" >
   <v>       0.00000000       0.00000000       0.00000000 </v>
   <v>       0.09090909       0.00000000       0.00000000 </v>
   <v>       0.18181818       0.00000000       0.00000000 </v>
   <v>       0.27272727       0.00000000       0.00000000 </v>
   <v>       0.36363636       0.00000000       0.00000000 </v>
   <v>       0.45454545       0.00000000       0.00000000 </v>
   <v>       0.09090909       0.09090909       0.00000000 </v>
   <v>       0.18181818       0.09090909       0.00000000 </v>
   <v>       0.27272727       0.09090909       0.00000000 </v>
   <v>       0.36363636       0.09090909       0.00000000 </v>
   <v>       0.45454545       0.09090909       0.00000000 </v>
   <v>      -0.45454545       0.09090909       0.00000000 </v>
   <v>      -0.36363636       0.09090909       0.00000000 </v>
   <v>      -0.27272727       0.09090909       0.00000000 </v>
   <v>      -0.18181818       0.09090909       0.00000000 </v>
   <v>      -0.09090909       0.09090909       0.00000000 </v>
   <v>       0.18181818       0.18181818       0.00000000 </v>
   <v>       0.27272727       0.18181818       0.00000000 </v>
   <v>       0.36363636       0.18181818       0.00000000 </v>
   <v>       0.45454545       0.18181818       0.00000000 </v>
   <v>      -0.45454545       0.18181818       0.00000000 </v>
   <v>      -0.36363636       0.18181818       0.00000000 </v>
   <v>      -0.27272727       0.18181818       0.00000000 </v>
   <v>      -0.18181818       0.18181818       0.00000000 </v>
   <v>       0.27272727       0.27272727       0.00000000 </v>
   <v>       0.36363636       0.27272727       0.00000000 </v>
   <v>       0.45454545       0.27272727       0.00000000 </v>
   <v>      -0.45454545       0.27272727       0.00000000 </v>
   <v>      -0.36363636       0.27272727       0.00000000 </v>
   <v>      -0.27272727       0.27272727       0.00000000 </v>
   <v>       0.36363636       0.36363636       0.00000000 </v>
   <v>       0.45454545       0.36363636       0.00000000 </v>
   <v>      -0.45454545       0.36363636       0.00000000 </v>
   <v>      -0.36363636       0.36363636       0.00000000 </v>
   <v>       0.45454545       0.45454545       0.00000000 </v>
   <v>      -0.45454545       0.45454545       0.00000000 </v>
   <v>       0.27272727       0.18181818       0.09090909 </v>
   <v>       0.36363636       0.18181818       0.09090909 </v>
   <v>       0.45454545       0.18181818       0.09090909 </v>
   <v>      -0.45454545       0.18181818       0.09090909 </v>
   <v>       0.36363636       0.27272727       0.09090909 </v>
   <v>       0.45454545       0.27272727       0.09090909 </v>
   <v>      -0.45454545       0.27272727       0.09090909 </v>
   <v>      -0.36363636       0.27272727       0.09090909 </v>
   <v>      -0.27272727       0.27272727       0.09090909 </v>
   <v>      -0.18181818       0.27272727       0.09090909 </v>
   <v>       0.45454545       0.36363636       0.09090909 </v>
   <v>      -0.45454545       0.36363636       0.09090909 </v>
   <v>      -0.36363636       0.36363636       0.09090909 </v>
   <v>      -0.27272727       0.36363636       0.09090909 </v>
   <v>      -0.45454545       0.45454545       0.09090909 </v>
   <v>      -0.36363636       0.45454545       0.09090909 </v>
   <v>      -0.45454545       0.36363636       0.18181818 </v>
   <v>      -0.36363636       0.36363636       0.18181818 </v>
   <v>      -0.36363636       0.45454545       0.18181818 </v>
   <v>      -0.27272727       0.45454545       0.18181818 </v>
  </varray>
  <varray name="weights" >
   <v>       0.00075131 </v>
   <v>       0.00601052 </v>
   <v>       0.00601052 </v>
   <v>       0.00601052 </v>
   <v>       0.00601052 </v>
   <v>       0.00601052 </v>
   <v>       0.00450789 </v>
   <v>       0.01803156 </v>
   <v>       0.01803156 </v>
   <v>       0.01803156 </v>
   <v>       0.01803156 </v>
   <v>       0.01803156 </v>
   <v>       0.01803156 </v>
   <v>       0.01803156 </v>
   <v>       0.01803156 </v>
   <v>       0.00901578 </v>
   <v>       0.00450789 </v>
   <v>       0.01803156 </v>
   <v>       0.01803156 </v>
   <v>       0.01803156 </v>
   <v>       0.01803156 </v>
   <v>       0.01803156 </v>
   <v>       0.01803156 </v>
   <v>       0.00901578 </v>
   <v>       0.00450789 </v>
   <v>       0.01803156 </v>
   <v>       0.01803156 </v>
   <v>       0.01803156 </v>
   <v>       0.01803156 </v>
   <v>       0.00901578 </v>
   <v>       0.00450789 </v>
   <v>       0.01803156 </v>
   <v>       0.01803156 </v>
   <v>       0.00901578 </v>
   <v>       0.00450789 </v>
   <v>       0.00901578 </v>
   <v>       0.01803156 </v>
   <v>       0.03606311 </v>
   <v>       0.03606311 </v>
   <v>       0.03606311 </v>
   <v>       0.01803156 </v>
   <v>       0.03606311 </v>
   <v>       0.03606311 </v>
   <v>       0.03606311 </v>
   <v>       0.03606311 </v>
   <v>       0.01803156 </v>
   <v>       0.01803156 </v>
   <v>       0.03606311 </v>
   <v>       0.03606311 </v>
   <v>       0.01803156 </v>
   <v>       0.01803156 </v>
   <v>       0.01803156 </v>
   <v>       0.01803156 </v>
   <v>       0.03606311 </v>
   <v>       0.01803156 </v>
   <v>       0.01803156 </v>
  </varray>
  <varray name="tetrahedronlist"  type="int" >
   <v type="int" >       24        1        2        2        7 </v>
   <v type="int" >       48        2        7        8       16 </v>
   <v type="int" >       48        2        3        8       16 </v>
   <v type="int" >       24        2        2        7       16 </v>
   <v type="int" >       48        3        8        9       15 </v>
   <v type="int" >       48        3        4        9       15 </v>
   <v type="int" >       48        3        8       15       16 </v>
   <v type="int" >       48        4        9       10       14 </v>
   <v type="int" >       48        4        5       10       14 </v>
   <v type="int" >       48        4        9       14       15 </v>
   <v type="int" >       48        5       10       11       13 </v>
   <v type="int" >       48        5        6       11       13 </v>
   <v type="int" >       48        5       10       13       14 </v>
   <v type="int" >       48        6       11       12       12 </v>
   <v type="int" >       24        6        6       12       12 </v>
   <v type="int" >       48        6       11       12       13 </v>
   <v type="int" >       24        7        8        8       17 </v>
   <v type="int" >       24        7        8        8       16 </v>
   <v type="int" >       48        8       17       18       37 </v>
   <v type="int" >       48        8        9       18       37 </v>
   <v type="int" >       48        8        9       15       37 </v>
   <v type="int" >       24        8        8       17       37 </v>
   <v type="int" >       24        8        8       16       37 </v>
   <v type="int" >       48        8       15       16       37 </v>
   <v type="int" >       48        9       18       19       38 </v>
   <v type="int" >       48        9       10       19       38 </v>
   <v type="int" >       48        9       10       14       38 </v>
   <v type="int" >       48        9       18       37       38 </v>
   <v type="int" >       48        9       15       37       38 </v>
   <v type="int" >       48        9       14       15       38 </v>
   <v type="int" >       48       10       19       20       39 </v>
   <v type="int" >       48       10       11       20       39 </v>
   <v type="int" >       48       10       11       13       39 </v>
   <v type="int" >       48       10       19       38       39 </v>
   <v type="int" >       48       10       14       38       39 </v>
   <v type="int" >       48       10       13       14       39 </v>
   <v type="int" >       48       11       20       21       40 </v>
   <v type="int" >       48       11       12       21       40 </v>
   <v type="int" >       48       11       12       12       40 </v>
   <v type="int" >       48       11       20       39       40 </v>
   <v type="int" >       48       11       13       39       40 </v>
   <v type="int" >       48       11       12       13       40 </v>
   <v type="int" >       48       12       21       22       40 </v>
   <v type="int" >       48       12       13       22       40 </v>
   <v type="int" >       48       12       21       40       40 </v>
   <v type="int" >       24       12       12       40       40 </v>
   <v type="int" >       48       13       22       23       39 </v>
   <v type="int" >       48       13       14       23       39 </v>
   <v type="int" >       48       13       22       39       40 </v>
   <v type="int" >       48       14       23       24       38 </v>
   <v type="int" >       48       14       15       24       38 </v>
   <v type="int" >       48       14       23       38       39 </v>
   <v type="int" >       24       15       15       24       37 </v>
   <v type="int" >       24       15       15       16       37 </v>
   <v type="int" >       48       15       24       37       38 </v>
   <v type="int" >       24       17       18       18       25 </v>
   <v type="int" >       24       17       18       18       37 </v>
   <v type="int" >       48       18       25       26       41 </v>
   <v type="int" >       48       18       19       26       41 </v>
   <v type="int" >       48       18       19       38       41 </v>
   <v type="int" >       24       18       18       25       41 </v>
   <v type="int" >       24       18       18       37       41 </v>
   <v type="int" >       48       18       37       38       41 </v>
   <v type="int" >       48       19       26       27       42 </v>
   <v type="int" >       48       19       20       27       42 </v>
   <v type="int" >       48       19       20       39       42 </v>
   <v type="int" >       48       19       26       41       42 </v>
   <v type="int" >       48       19       38       41       42 </v>
   <v type="int" >       48       19       38       39       42 </v>
   <v type="int" >       48       20       27       28       43 </v>
   <v type="int" >       48       20       21       28       43 </v>
   <v type="int" >       48       20       21       40       43 </v>
   <v type="int" >       48       20       27       42       43 </v>
   <v type="int" >       48       20       39       42       43 </v>
   <v type="int" >       48       20       39       40       43 </v>
   <v type="int" >       48       21       28       29       44 </v>
   <v type="int" >       48       21       22       29       44 </v>
   <v type="int" >       48       21       22       40       44 </v>
   <v type="int" >       48       21       28       43       44 </v>
   <v type="int" >       48       21       40       43       44 </v>
   <v type="int" >       48       21       40       40       44 </v>
   <v type="int" >       48       22       29       30       45 </v>
   <v type="int" >       48       22       23       30       45 </v>
   <v type="int" >       48       22       23       39       45 </v>
   <v type="int" >       48       22       29       44       45 </v>
   <v type="int" >       48       22       40       44       45 </v>
   <v type="int" >       48       22       39       40       45 </v>
   <v type="int" >       24       23       23       30       46 </v>
   <v type="int" >       24       23       23       24       46 </v>
   <v type="int" >       48       23       24       38       46 </v>
   <v type="int" >       48       23       30       45       46 </v>
   <v type="int" >       48       23       39       45       46 </v>
   <v type="int" >       48       23       38       39       46 </v>
   <v type="int" >       24       24       38       38       46 </v>
   <v type="int" >       24       24       37       38       38 </v>
   <v type="int" >       24       25       26       26       31 </v>
   <v type="int" >       24       25       26       26       41 </v>
   <v type="int" >       48       26       31       32       47 </v>
   <v type="int" >       48       26       27       32       47 </v>
   <v type="int" >       48       26       27       42       47 </v>
   <v type="int" >       24       26       26       31       47 </v>
   <v type="int" >       24       26       26       41       47 </v>
   <v type="int" >       48       26       41       42       47 </v>
   <v type="int" >       48       27       32       33       48 </v>
   <v type="int" >       48       27       28       33       48 </v>
   <v type="int" >       48       27       28       43       48 </v>
   <v type="int" >       48       27       32       47       48 </v>
   <v type="int" >       48       27       42       47       48 </v>
   <v type="int" >       48       27       42       43       48 </v>
   <v type="int" >       48       28       33       34       49 </v>
   <v type="int" >       48       28       29       34       49 </v>
   <v type="int" >       48       28       29       44       49 </v>
   <v type="int" >       48       28       33       48       49 </v>
   <v type="int" >       48       28       43       48       49 </v>
   <v type="int" >       48       28       43       44       49 </v>
   <v type="int" >       24       29       29       34       50 </v>
   <v type="int" >       24       29       29       30       50 </v>
   <v type="int" >       48       29       30       45       50 </v>
   <v type="int" >       48       29       34       49       50 </v>
   <v type="int" >       48       29       44       49       50 </v>
   <v type="int" >       48       29       44       45       50 </v>
   <v type="int" >       24       30       45       45       50 </v>
   <v type="int" >       24       30       45       45       46 </v>
   <v type="int" >       24       31       32       32       35 </v>
   <v type="int" >       24       31       32       32       47 </v>
   <v type="int" >       48       32       35       36       51 </v>
   <v type="int" >       48       32       33       36       51 </v>
   <v type="int" >       48       32       33       48       51 </v>
   <v type="int" >       24       32       32       35       51 </v>
   <v type="int" >       24       32       32       47       51 </v>
   <v type="int" >       48       32       47       48       51 </v>
   <v type="int" >       24       33       33       36       52 </v>
   <v type="int" >       24       33       33       34       52 </v>
   <v type="int" >       48       33       34       49       52 </v>
   <v type="int" >       48       33       36       51       52 </v>
   <v type="int" >       48       33       48       51       52 </v>
   <v type="int" >       48       33       48       49       52 </v>
   <v type="int" >       24       34       49       49       52 </v>
   <v type="int" >       24       34       49       49       50 </v>
   <v type="int" >       12       35       35       36       36 </v>
   <v type="int" >       24       35       36       36       51 </v>
   <v type="int" >       12       36       36       51       51 </v>
   <v type="int" >       24       36       51       51       52 </v>
   <v type="int" >       24       37       38       38       41 </v>
   <v type="int" >       48       38       41       42       46 </v>
   <v type="int" >       48       38       39       42       46 </v>
   <v type="int" >       24       38       38       41       46 </v>
   <v type="int" >       48       39       42       43       45 </v>
   <v type="int" >       48       39       40       43       45 </v>
   <v type="int" >       48       39       42       45       46 </v>
   <v type="int" >       48       40       43       44       44 </v>
   <v type="int" >       24       40       40       44       44 </v>
   <v type="int" >       48       40       43       44       45 </v>
   <v type="int" >       24       41       42       42       47 </v>
   <v type="int" >       24       41       42       42       46 </v>
   <v type="int" >       48       42       47       48       53 </v>
   <v type="int" >       48       42       43       48       53 </v>
   <v type="int" >       48       42       43       45       53 </v>
   <v type="int" >       24       42       42       47       53 </v>
   <v type="int" >       24       42       42       46       53 </v>
   <v type="int" >       48       42       45       46       53 </v>
   <v type="int" >       48       43       48       49       54 </v>
   <v type="int" >       48       43       44       49       54 </v>
   <v type="int" >       48       43       44       44       54 </v>
   <v type="int" >       48       43       48       53       54 </v>
   <v type="int" >       48       43       45       53       54 </v>
   <v type="int" >       48       43       44       45       54 </v>
   <v type="int" >       48       44       49       50       54 </v>
   <v type="int" >       48       44       45       50       54 </v>
   <v type="int" >       48       44       49       54       54 </v>
   <v type="int" >       24       44       44       54       54 </v>
   <v type="int" >       24       45       45       50       53 </v>
   <v type="int" >       24       45       45       46       53 </v>
   <v type="int" >       48       45       50       53       54 </v>
   <v type="int" >       24       47       48       48       51 </v>
   <v type="int" >       24       47       48       48       53 </v>
   <v type="int" >       48       48       51       52       55 </v>
   <v type="int" >       48       48       49       52       55 </v>
   <v type="int" >       48       48       49       54       55 </v>
   <v type="int" >       24       48       48       51       55 </v>
   <v type="int" >       24       48       48       53       55 </v>
   <v type="int" >       48       48       53       54       55 </v>
   <v type="int" >       24       49       49       52       56 </v>
   <v type="int" >       24       49       49       50       56 </v>
   <v type="int" >       48       49       50       54       56 </v>
   <v type="int" >       48       49       52       55       56 </v>
   <v type="int" >       48       49       54       55       56 </v>
   <v type="int" >       48       49       54       54       56 </v>
   <v type="int" >       24       50       54       54       56 </v>
   <v type="int" >       24       50       53       54       54 </v>
   <v type="int" >       12       51       51       52       52 </v>
   <v type="int" >       24       51       52       52       55 </v>
   <v type="int" >       12       52       52       55       55 </v>
   <v type="int" >       24       52       55       55       56 </v>
   <v type="int" >       24       53       54       54       55 </v>
   <v type="int" >       48       54       55       56       56 </v>
   <v type="int" >       24       54       54       56       56 </v>
   <v type="int" >       24       54       54       55       56 </v>
   <v type="int" >       12       55       55       56       56 </v>
   <v type="int" >       24       55       56       56       56 </v>
   <v type="int" >        6       56       56       56       56 </v>
  </varray>
  <i name="volumeweight">      0.00012522 </i>
 </kpoints>
 <parameters>
  <separator name="general" >
   <i type="string" name="SYSTEM">unknown system</i>
   <i type="logical" name="LCOMPAT"> F  </i>
  </separator>
  <separator name="electronic" >
   <i type="string" name="PREC">accura</i>
   <i name="ENMAX">    680.00000000</i>
   <i name="ENAUG">   1360.00000000</i>
   <i name="EDIFF">      0.00001000</i>
   <i type="int" name="IALGO">    58</i>
   <i type="int" name="IWAVPR">    11</i>
   <i type="int" name="NBANDS">     5</i>
   <i name="NELECT">      3.00000000</i>
   <i type="int" name="TURBO">     0</i>
   <i type="int" name="IRESTART">     0</i>
   <i type="int" name="NREBOOT">     0</i>
   <i type="int" name="NMIN">     0</i>
   <i name="EREF">      0.00000000</i>
   <separator name="electronic smearing" >
    <i type="int" name="ISMEAR">    -5</i>
    <i name="SIGMA">      0.05000000</i>
    <i name="KSPACING">      0.25000000</i>
    <i type="logical" name="KGAMMA"> T  </i>
   </separator>
   <separator name="electronic projectors" >
    <i type="logical" name="LREAL"> T  </i>
    <v name="ROPT">     -0.00025000</v>
    <i type="int" name="LMAXPAW">  -100</i>
    <i type="int" name="LMAXMIX">     2</i>
    <i type="logical" name="NLSPLINE"> F  </i>
   </separator>
   <separator name="electronic startup" >
    <i type="int" name="ISTART">     0</i>
    <i type="int" name="ICHARG">     1</i>
    <i type="int" name="INIWAV">     1</i>
   </separator>
   <separator name="electronic spin" >
    <i type="int" name="ISPIN">     2</i>
    <i type="logical" name="LNONCOLLINEAR"> F  </i>
    <v name="MAGMOM">      0.60000000</v>
    <i name="NUPDOWN">     -1.00000000</i>
    <i type="logical" name="LSORBIT"> F  </i>
    <v name="SAXIS">      0.00000000      0.00000000      1.00000000</v>
    <i type="logical" name="LSPIRAL"> F  </i>
    <v name="QSPIRAL">      0.00000000      0.00000000      0.00000000</v>
    <i type="logical" name="LZEROZ"> F  </i>
   </separator>
   <separator name="electronic exchange-correlation" >
    <i type="logical" name="LASPH"> T  </i>
    <i type="logical" name="LMETAGGA"> F  </i>
   </separator>
   <separator name="electronic convergence" >
    <i type="int" name="NELM">   200</i>
    <i type="int" name="NELMDL">    -5</i>
    <i type="int" name="NELMIN">     2</i>
    <i name="ENINI">    680.00000000</i>
    <separator name="electronic convergence detail" >
     <i type="logical" name="LDIAG"> T  </i>
     <i type="logical" name="LSUBROT"> F  </i>
     <i name="WEIMIN">      0.00100000</i>
     <i name="EBREAK">      0.00000050</i>
     <i name="DEPER">      0.30000000</i>
     <i type="int" name="NRMM">     4</i>
     <i name="TIME">      0.40000000</i>
    </separator>
   </separator>
   <separator name="electronic mixer" >
    <i name="AMIX">      0.40000000</i>
    <i name="BMIX">      1.00000000</i>
    <i name="AMIN">      0.10000000</i>
    <i name="AMIX_MAG">      1.60000000</i>
    <i name="BMIX_MAG">      1.00000000</i>
    <separator name="electronic mixer details" >
     <i type="int" name="IMIX">     4</i>
     <i type="logical" name="MIXFIRST"> F  </i>
     <i type="int" name="MAXMIX">   -45</i>
     <i name="WC">    100.00000000</i>
     <i type="int" name="INIMIX">     1</i>
     <i type="int" name="MIXPRE">     1</i>
     <i type="int" name="MREMOVE">     5</i>
    </separator>
   </separator>
   <separator name="electronic dipolcorrection" >
    <i type="logical" name="LDIPOL"> F  </i>
    <i type="logical" name="LMONO"> F  </i>
    <i type="int" name="IDIPOL">     0</i>
    <i name="EPSILON">      1.00000000</i>
    <v name="DIPOL">   -100.00000000   -100.00000000   -100.00000000</v>
    <i name="EFIELD">      0.00000000</i>
   </separator>
  </separator>
  <separator name="grids" >
   <i type="int" name="NGX">    24</i>
   <i type="int" name="NGY">    24</i>
   <i type="int" name="NGZ">    24</i>
   <i type="int" name="NGXF">    48</i>
   <i type="int" name="NGYF">    48</i>
   <i type="int" name="NGZF">    48</i>
   <i type="logical" name="ADDGRID"> F  </i>
  </separator>
  <separator name="ionic" >
   <i type="int" name="NSW">    99</i>
   <i type="int" name="IBRION">     2</i>
   <i type="int" name="MDALGO">     0</i>
   <i type="int" name="ISIF">     3</i>
   <i name="PSTRESS">      0.00000000</i>
   <i name="EDIFFG">     -0.02000000</i>
   <i type="int" name="NFREE">     1</i>
   <i name="POTIM">      0.50000000</i>
   <i name="SMASS">     -3.00000000</i>
   <i name="SCALEE">      1.00000000</i>
  </separator>
  <separator name="ionic md" >
   <i name="TEBEG">      0.00010000</i>
   <i name="TEEND">      0.00010000</i>
   <i type="int" name="NBLOCK">     1</i>
   <i type="int" name="KBLOCK">    99</i>
   <i type="int" name="NPACO">   256</i>
   <i name="APACO">     16.00000000</i>
  </separator>
  <separator name="symmetry" >
   <i type="int" name="ISYM">     2</i>
   <i name="SYMPREC">      0.00001000</i>
  </separator>
  <separator name="dos" >
   <i type="int" name="LORBIT">    11</i>
   <v name="RWIGS">     -1.00000000</v>
   <i type="int" name="NEDOS">   301</i>
   <i name="EMIN">     10.00000000</i>
   <i name="EMAX">    -10.00000000</i>
   <i name="EFERMI">      0.00000000</i>
  </separator>
  <separator name="writing" >
   <i type="int" name="NWRITE">     2</i>
   <i type="logical" name="LWAVE"> F  </i>
   <i type="logical" name="LDOWNSAMPLE"> F  </i>
   <i type="logical" name="LCHARG"> T  </i>
   <i type="logical" name="LPARD"> F  </i>
   <i type="logical" name="LVTOT"> T  </i>
   <i type="logical" name="LVHAR"> F  </i>
   <i type="logical" name="LELF"> T  </i>
   <i type="logical" name="LOPTICS"> F  </i>
   <v name="STM">      0.00000000      0.00000000      0.00000000      0.00000000      0.00000000      0.00000000      0.00000000</v>
  </separator>
  <separator name="performance" >
   <i type="int" name="NPAR">     1</i>
   <i type="int" name="NSIM">     4</i>
   <i type="int" name="NBLK">    -1</i>
   <i type="logical" name="LPLANE"> T  </i>
   <i type="logical" name="LSCALAPACK"> F  </i>
   <i type="logical" name="LSCAAWARE"> F  </i>
   <i type="logical" name="LSCALU"> F  </i>
   <i type="logical" name="LASYNC"> F  </i>
   <i type="logical" name="LORBITALREAL"> F  </i>
  </separator>
  <separator name="miscellaneous" >
   <i type="int" name="IDIOT">     3</i>
   <i type="int" name="ISPECIAL">     0</i>
   <i type="logical" name="LMUSIC"> F  </i>
   <v name="POMASS">     26.98100000</v>
   <v name="DARWINR">      0.00000000</v>
   <v name="DARWINV">      1.00000000</v>
   <i type="logical" name="LCORR"> T  </i>
  </separator>
  <i type="logical" name="GGA_COMPAT"> T  </i>
  <i type="logical" name="LBERRY"> F  </i>
  <i type="int" name="ICORELEVEL">     0</i>
  <i type="logical" name="LDAU"> F  </i>
  <i type="int" name="I_CONSTRAINED_M">     0</i>
  <separator name="electronic exchange-correlation" >
   <i type="string" name="GGA">--</i>
   <i type="int" name="VOSKOWN">     0</i>
   <i type="logical" name="LHFCALC"> F  </i>
   <i type="string" name="PRECFOCK"></i>
   <i type="logical" name="LSYMGRAD"> F  </i>
   <i type="logical" name="LHFONE"> F  </i>
   <i type="logical" name="LRHFCALC"> F  </i>
   <i type="logical" name="LTHOMAS"> F  </i>
   <i type="logical" name="LMODELHF"> F  </i>
   <i name="ENCUT4O">     -1.00000000</i>
   <i type="int" name="EXXOEP">     0</i>
   <i type="int" name="FOURORBIT">     0</i>
   <i name="AEXX">      0.00000000</i>
   <i name="HFALPHA">      0.00000000</i>
   <i name="MCALPHA">      0.00000000</i>
   <i name="ALDAX">      1.00000000</i>
   <i name="AGGAX">      1.00000000</i>
   <i name="ALDAC">      1.00000000</i>
   <i name="AGGAC">      1.00000000</i>
   <i type="int" name="NKREDX">     1</i>
   <i type="int" name="NKREDY">     1</i>
   <i type="int" name="NKREDZ">     1</i>
   <i type="logical" name="SHIFTRED"> F  </i>
   <i type="logical" name="ODDONLY"> F  </i>
   <i type="logical" name="EVENONLY"> F  </i>
   <i type="int" name="LMAXFOCK">     0</i>
   <i type="int" name="NMAXFOCKAE">     0</i>
   <i type="logical" name="LFOCKAEDFT"> F  </i>
   <i name="HFSCREEN">      0.00000000</i>
   <i name="HFSCREENC">      0.00000000</i>
   <i type="int" name="NBANDSGWLOW">     0</i>
  </separator>
  <separator name="vdW DFT" >
   <i type="logical" name="LUSE_VDW"> F  </i>
   <i name="Zab_VDW">     -0.84910000</i>
   <i name="PARAM1">      0.12340000</i>
   <i name="PARAM2">      1.00000000</i>
   <i name="PARAM3">      0.00000000</i>
  </separator>
  <separator name="model GW" >
   <i type="int" name="MODEL_GW">     0</i>
   <i name="MODEL_EPS0">      9.63637705</i>
   <i name="MODEL_ALPHA">      1.00000000</i>
  </separator>
  <separator name="linear response parameters" >
   <i type="logical" name="LEPSILON"> F  </i>
   <i type="logical" name="LRPA"> F  </i>
   <i type="logical" name="LNABLA"> F  </i>
   <i type="logical" name="LVEL"> F  </i>
   <i type="int" name="KINTER">     0</i>
   <i name="CSHIFT">      0.10000000</i>
   <i name="OMEGAMAX">     -1.00000000</i>
   <i name="DEG_THRESHOLD">      0.00200000</i>
   <i name="RTIME">     -0.10000000</i>
   <i name="WPLASMAI">      0.00000000</i>
   <v name="DFIELD">      0.00000000      0.00000000      0.00000000</v>
   <v name="WPLASMA">      0.00000000      0.00000000      0.00000000      0.00000000      0.00000000      0.00000000      0.00000000      0.00000000      0.00000000</v>
  </separator>
  <separator name="orbital magnetization" >
   <i type="logical" name="NUCIND"> F  </i>
   <v name="MAGPOS">      0.00000000      0.00000000      0.00000000</v>
   <i type="logical" name="LNICSALL"> T  </i>
   <i type="logical" name="ORBITALMAG"> F  </i>
   <i type="logical" name="LMAGBLOCH"> F  </i>
   <i type="logical" name="LCHIMAG"> F  </i>
   <i type="logical" name="LGAUGE"> T  </i>
   <i type="int" name="MAGATOM">     0</i>
   <v name="MAGDIPOL">      0.00000000      0.00000000      0.00000000</v>
   <v name="AVECCONST">      0.00000000      0.00000000      0.00000000</v>
  </separator>
  <separator name="response functions" >
   <i type="logical" name="LADDER"> F  </i>
   <i type="logical" name="LRPAFORCE"> F  </i>
   <i type="logical" name="LFXC"> F  </i>
   <i type="logical" name="LHARTREE"> T  </i>
   <i type="int" name="IBSE">     0</i>
   <v type="int" name="KPOINT">    -1     0     0     0</v>
   <i type="logical" name="LTCTE"> F  </i>
   <i type="logical" name="LTETE"> F  </i>
   <i type="logical" name="LTRIPLET"> F  </i>
   <i type="logical" name="LFXCEPS"> F  </i>
   <i type="logical" name="LFXHEG"> F  </i>
   <i type="int" name="NATURALO">     2</i>
   <i type="logical" name="L2ORDER"> F  </i>
   <i type="logical" name="LMP2LT"> F  </i>
   <i type="logical" name="LUSEW"> F  </i>
   <i name="ENCUTGW">     -2.00000000</i>
   <i name="ENCUTGWSOFT">     -2.00000000</i>
   <i name="ENCUTLF">     -1.00000000</i>
   <i type="int" name="LMAXMP2">    -1</i>
   <i name="SCISSOR">      0.00000000</i>
   <i type="int" name="NOMEGA">     0</i>
   <i type="int" name="NOMEGAR">     0</i>
   <i type="int" name="NBANDSGW">    -1</i>
   <i type="int" name="NBANDSO">    -1</i>
   <i type="int" name="NBANDSV">    -1</i>
   <i type="int" name="NELM">   200</i>
   <i type="int" name="NELMHF">     1</i>
   <i type="int" name="DIM">     3</i>
   <i type="int" name="ANTIRES">     0</i>
   <i name="OMEGAMAX">    -30.00000000</i>
   <i name="OMEGAMIN">    -30.00000000</i>
   <i name="OMEGATL">   -200.00000000</i>
   <i type="int" name="OMEGAGRID">   140</i>
   <i name="CSHIFT">     -0.10000000</i>
   <i type="logical" name="SELFENERGY"> F  </i>
   <i type="logical" name="LSPECTRAL"> F  </i>
   <i type="logical" name="LSPECTRALGW"> F  </i>
   <i type="logical" name="LSINGLES"> F  </i>
   <i type="logical" name="LFERMIGW"> F  </i>
   <i type="logical" name="ODDONLYGW"> F  </i>
   <i type="logical" name="EVENONLYGW"> F  </i>
   <i type="int" name="NKREDLFX">     1</i>
   <i type="int" name="NKREDLFY">     1</i>
   <i type="int" name="NKREDLFZ">     1</i>
   <i type="int" name="MAXMEM">  2800</i>
   <i type="int" name="TELESCOPE">     0</i>
   <i type="int" name="TAUPAR">     1</i>
   <i type="int" name="OMEGAPAR">    -1</i>
   <i name="LAMBDA">      1.00000000</i>
  </separator>
  <separator name="External order field" >
   <i name="OFIELD_KAPPA">      0.00000000</i>
   <v name="OFIELD_K">      0.00000000      0.00000000      0.00000000</v>
   <i name="OFIELD_Q6_NEAR">      0.00000000</i>
   <i name="OFIELD_Q6_FAR">      0.00000000</i>
   <i name="OFIELD_A">      0.00000000</i>
  </separator>
 </parameters>
 <atominfo>
  <atoms>       1 </atoms>
  <types>       1 </types>
  <array name="atoms" >
   <dimension dim="1">ion</dimension>
   <field type="string">element</field>
   <field type="int">atomtype</field>
   <set>
    <rc><c>Al</c><c>   1</c></rc>
   </set>
  </array>
  <array name="atomtypes" >
   <dimension dim="1">type</dimension>
   <field type="int">atomspertype</field>
   <field type="string">element</field>
   <field>mass</field>
   <field>valence</field>
   <field type="string">pseudopotential</field>
   <set>
    <rc><c>   1</c><c>Al</c><c>     26.98100000</c><c>      3.00000000</c><c>  PAW_PBE Al 04Jan2001                  </c></rc>
   </set>
  </array>
 </atominfo>
 <structure name="initialpos" >
  <crystal>
   <varray name="basis" >
    <v>       0.00000000       2.00252300       2.00252300 </v>
    <v>       2.00252300       0.00000000       2.00252300 </v>
    <v>       2.00252300       2.00252300       0.00000000 </v>
   </varray>
   <i name="volume">     16.06062842 </i>
   <varray name="rec_basis" >
    <v>      -0.24968502       0.24968502       0.24968502 </v>
    <v>       0.24968502      -0.24968502       0.24968502 </v>
    <v>       0.24968502       0.24968502      -0.24968502 </v>
   </varray>
  </crystal>
  <varray name="positions" >
   <v>       0.00000000       0.00000000       0.00000000 </v>
  </varray>
 </structure>
 <calculation>
  <scstep>
   <time name="total">    0.74    0.74</time>
   <energy>
    <i name="alphaZ">     -0.20913316 </i>
    <i name="ewald">    -74.18008962 </i>
    <i name="hartreedc">     -0.11077819 </i>
    <i name="XCdc">    -26.07263231 </i>
    <i name="pawpsdc">    155.55386926 </i>
    <i name="pawaedc">   -123.61626732 </i>
    <i name="eentropy">      0.00000000 </i>
    <i name="bandstr">     14.13535934 </i>
    <i name="atom">     53.53856935 </i>
    <i name="e_fr_energy">     -0.96110264 </i>
    <i name="e_wo_entrp">     -0.96110264 </i>
    <i name="e_0_energy">     -0.96110264 </i>
   </energy>
  </scstep>
  <scstep>
   <time name="total">    0.64    0.64</time>
   <energy>
    <i name="e_fr_energy">     -3.70639891 </i>
    <i name="e_wo_entrp">     -3.70639891 </i>
    <i name="e_0_energy">     -3.70639891 </i>
   </energy>
  </scstep>
  <scstep>
   <time name="total">    0.70    0.70</time>
   <energy>
    <i name="e_fr_energy">     -3.74342200 </i>
    <i name="e_wo_entrp">     -3.74342200 </i>
    <i name="e_0_energy">     -3.74342200 </i>
   </energy>
  </scstep>
  <scstep>
   <time name="total">    0.67    0.67</time>
   <energy>
    <i name="e_fr_energy">     -3.74355399 </i>
    <i name="e_wo_entrp">     -3.74355399 </i>
    <i name="e_0_energy">     -3.74355399 </i>
   </energy>
  </scstep>
  <scstep>
   <time name="total">    0.77    0.78</time>
   <energy>
    <i name="e_fr_energy">     -3.74355479 </i>
    <i name="e_wo_entrp">     -3.74355479 </i>
    <i name="e_0_energy">     -3.74355479 </i>
   </energy>
  </scstep>
  <scstep>
   <time name="total">    0.95    0.95</time>
   <energy>
    <i name="alphaZ">     -0.20913316 </i>
    <i name="ewald">    -74.18008962 </i>
    <i name="hartreedc">     -0.11197646 </i>
    <i name="XCdc">    -26.07337046 </i>
    <i name="pawpsdc">    147.94962913 </i>
    <i name="pawaedc">   -116.01151301 </i>
    <i name="eentropy">      0.00000000 </i>
    <i name="bandstr">     11.35432317 </i>
    <i name="atom">     53.53856935 </i>
    <i name="e_fr_energy">     -3.74356105 </i>
    <i name="e_wo_entrp">     -3.74356105 </i>
    <i name="e_0_energy">     -3.74356105 </i>
   </energy>
  </scstep>
  <structure>
   <crystal>
    <varray name="basis" >
     <v>       0.00000000       2.00252300       2.00252300 </v>
     <v>       2.00252300       0.00000000       2.00252300 </v>
     <v>       2.00252300       2.00252300       0.00000000 </v>
    </varray>
    <i name="volume">     16.06062842 </i>
    <varray name="rec_basis" >
     <v>      -0.24968502       0.24968502       0.24968502 </v>
     <v>       0.24968502      -0.24968502       0.24968502 </v>
     <v>       0.24968502       0.24968502      -0.24968502 </v>
    </varray>
   </crystal>
   <varray name="positions" >
    <v>       0.00000000       0.00000000       0.00000000 </v>
   </varray>
  </structure>
  <varray name="forces" >
   <v>       0.00000000       0.00000000       0.00000000 </v>
  </varray>
  <varray name="stress" >
   <v>      16.43276964       0.00000000      -0.00000000 </v>
   <v>       0.00000000      16.43276964      -0.00000000 </v>
   <v>       0.00000000       0.00000000      16.43276964 </v>
  </varray>
  <energy>
   <i name="e_fr_energy">     -3.74356105 </i>
   <i name="e_wo_entrp">     -3.74356105 </i>
   <i name="e_0_energy">      0.00000000 </i>
  </energy>
  <time name="totalsc">    6.09    6.15</time>
 </calculation>
 <calculation>
  <scstep>
   <time name="total">    0.88    0.89</time>
   <energy>
    <i name="alphaZ">     -0.20422552 </i>
    <i name="ewald">    -73.59524077 </i>
    <i name="hartreedc">     -0.11026021 </i>
    <i name="XCdc">    -26.11427197 </i>
    <i name="pawpsdc">    144.08509420 </i>
    <i name="pawaedc">   -112.13611787 </i>
    <i name="eentropy">      0.00000000 </i>
    <i name="bandstr">     10.79382996 </i>
    <i name="atom">     53.53856935 </i>
    <i name="e_fr_energy">     -3.74262283 </i>
    <i name="e_wo_entrp">     -3.74262283 </i>
    <i name="e_0_energy">     -3.74262283 </i>
   </energy>
  </scstep>
  <scstep>
   <time name="total">    1.72    1.74</time>
   <energy>
    <i name="e_fr_energy">     -3.74501505 </i>
    <i name="e_wo_entrp">     -3.74501505 </i>
    <i name="e_0_energy">     -3.74501505 </i>
   </energy>
  </scstep>
  <scstep>
   <time name="total">    0.85    0.86</time>
   <energy>
    <i name="e_fr_energy">     -3.74494118 </i>
    <i name="e_wo_entrp">     -3.74494118 </i>
    <i name="e_0_energy">     -3.74494118 </i>
   </energy>
  </scstep>
  <scstep>
   <time name="total">    0.86    0.87</time>
   <energy>
    <i name="e_fr_energy">     -3.74584179 </i>
    <i name="e_wo_entrp">     -3.74584179 </i>
    <i name="e_0_energy">     -3.74584179 </i>
   </energy>
  </scstep>
  <scstep>
   <time name="total">    0.90    0.91</time>
   <energy>
    <i name="e_fr_energy">     -3.74592651 </i>
    <i name="e_wo_entrp">     -3.74592651 </i>
    <i name="e_0_energy">     -3.74592651 </i>
   </energy>
  </scstep>
  <scstep>
   <time name="total">    0.89    0.91</time>
   <energy>
    <i name="e_fr_energy">     -3.74597047 </i>
    <i name="e_wo_entrp">     -3.74597047 </i>
    <i name="e_0_energy">     -3.74597047 </i>
   </energy>
  </scstep>
  <scstep>
   <time name="total">    0.90    0.91</time>
   <energy>
    <i name="e_fr_energy">     -3.74599634 </i>
    <i name="e_wo_entrp">     -3.74599634 </i>
    <i name="e_0_energy">     -3.74599634 </i>
   </energy>
  </scstep>
  <scstep>
   <time name="total">    0.98    0.98</time>
   <energy>
    <i name="alphaZ">     -0.20422552 </i>
    <i name="ewald">    -73.59524077 </i>
    <i name="hartreedc">     -0.10802763 </i>
    <i name="XCdc">    -26.12165098 </i>
    <i name="pawpsdc">    141.80268289 </i>
    <i name="pawaedc">   -109.86051779 </i>
    <i name="eentropy">      0.00000000 </i>
    <i name="bandstr">     10.80241393 </i>
    <i name="atom">     53.53856935 </i>
    <i name="e_fr_energy">     -3.74599651 </i>
    <i name="e_wo_entrp">     -3.74599651 </i>
    <i name="e_0_energy">     -3.74599651 </i>
   </energy>
  </scstep>
  <structure>
   <crystal>
    <varray name="basis" >
     <v>       0.00000000       2.01843671       2.01843671 </v>
     <v>       2.01843671       0.00000000       2.01843671 </v>
     <v>       2.01843671       2.01843671      -0.00000000 </v>
    </varray>
    <i name="volume">     16.44657251 </i>
    <varray name="rec_basis" >
     <v>      -0.24771646       0.24771646       0.24771646 </v>
     <v>       0.24771646      -0.24771646       0.24771646 </v>
     <v>       0.24771646       0.24771646      -0.24771646 </v>
    </varray>
   </crystal>
   <varray name="positions" >
    <v>       0.00000000       0.00000000       0.00000000 </v>
   </varray>
  </structure>
  <varray name="forces" >
   <v>      -0.00000000      -0.00000000      -0.00000000 </v>
  </varray>
  <varray name="stress" >
   <v>      -1.29096679      -0.00000000       0.00000000 </v>
   <v>      -0.00000000      -1.29096679       0.00000000 </v>
   <v>       0.00000000       0.00000000      -1.29096679 </v>
  </varray>
  <energy>
   <i name="e_fr_energy">     -3.74599651 </i>
   <i name="e_wo_entrp">     -3.74599651 </i>
   <i name="e_0_energy">      0.00000000 </i>
  </energy>
  <time name="totalsc">    9.36    9.49</time>
  <eigenvalues>
   <array>
    <dimension dim="1">band</dimension>
    <dimension dim="2">kpoint</dimension>
    <dimension dim="3">spin</dimension>
    <field>eigene</field>
    <field>occ</field>
    <set>
     <set comment="spin 1">
      <set comment="kpoint 1">
       <r>   -3.1228    1.0000 </r>
       <r>   20.6714    0.0000 </r>
       <r>   20.6714    0.0000 </r>
       <r>   20.6714    0.0000 </r>
       <r>   22.1871    0.0000 </r>
      </set>
      <set comment="kpoint 2">
       <r>   -2.8977    1.0000 </r>
       <r>   17.7500    0.0000 </r>
       <r>   20.0361    0.0000 </r>
       <r>   20.0361    0.0000 </r>
       <r>   22.8430    0.0000 </r>
      </set>
      <set comment="kpoint 3">
       <r>   -2.2247    1.0000 </r>
       <r>   14.0887    0.0000 </r>
       <r>   19.3054    0.0000 </r>
       <r>   19.3054    0.0000 </r>
       <r>   22.6029    0.0000 </r>
      </set>
      <set comment="kpoint 4">
       <r>   -1.1100    1.0000 </r>
       <r>   10.6479   -0.0161 </r>
       <r>   18.8969    0.0000 </r>
       <r>   18.8969    0.0000 </r>
       <r>   22.3953    0.0000 </r>
      </set>
      <set comment="kpoint 5">
       <r>    0.4361    1.0000 </r>
       <r>    7.5306    0.7105 </r>
       <r>   18.8537    0.0000 </r>
       <r>   18.8539    0.0000 </r>
       <r>   20.9821    0.0000 </r>
      </set>
      <set comment="kpoint 6">
       <r>    2.3985    1.0000 </r>
       <r>    4.7785    1.0000 </r>
       <r>   19.1857    0.0000 </r>
       <r>   19.1883    0.0000 </r>
       <r>   19.8969    0.0000 </r>
      </set>
      <set comment="kpoint 7">
       <r>   -2.8227    1.0000 </r>
       <r>   18.7732    0.0000 </r>
       <r>   18.7732    0.0000 </r>
       <r>   19.0523    0.0000 </r>
       <r>   21.5169    0.0000 </r>
      </set>
      <set comment="kpoint 8">
       <r>   -2.2993    1.0000 </r>
       <r>   15.4158    0.0000 </r>
       <r>   17.8450    0.0000 </r>
       <r>   19.1829    0.0000 </r>
       <r>   21.8573    0.0000 </r>
      </set>
      <set comment="kpoint 9">
       <r>   -1.3322    1.0000 </r>
       <r>   11.9255    0.0000 </r>
       <r>   17.2874    0.0000 </r>
       <r>   18.8453    0.0000 </r>
       <r>   20.1689    0.0000 </r>
      </set>
      <set comment="kpoint 10">
       <r>    0.0694    1.0000 </r>
       <r>    8.7099    0.1964 </r>
       <r>   17.1079    0.0000 </r>
       <r>   18.4917    0.0000 </r>
       <r>   18.7769    0.0000 </r>
      </set>
      <set comment="kpoint 11">
       <r>    1.8926    1.0000 </r>
       <r>    5.8399    1.0450 </r>
       <r>   17.2763    0.0000 </r>
       <r>   17.3093    0.0000 </r>
       <r>   18.9809    0.0000 </r>
      </set>
      <set comment="kpoint 12">
       <r>    3.3240    1.0000 </r>
       <r>    4.1456    1.0000 </r>
       <r>   16.4154    0.0000 </r>
       <r>   17.8932    0.0000 </r>
       <r>   19.6082    0.0000 </r>
      </set>
      <set comment="kpoint 13">
       <r>    1.2392    1.0000 </r>
       <r>    6.7539    1.0094 </r>
       <r>   15.9491    0.0000 </r>
       <r>   18.8580    0.0000 </r>
       <r>   20.6252    0.0000 </r>
      </set>
      <set comment="kpoint 14">
       <r>   -0.4454    1.0000 </r>
       <r>    9.7393   -0.0578 </r>
       <r>   15.8839    0.0000 </r>
       <r>   20.1781    0.0000 </r>
       <r>   20.9281    0.0000 </r>
      </set>
      <set comment="kpoint 15">
       <r>   -1.7034    1.0000 </r>
       <r>   13.0347    0.0000 </r>
       <r>   16.2350    0.0000 </r>
       <r>   21.0938    0.0000 </r>
       <r>   21.9062    0.0000 </r>
      </set>
      <set comment="kpoint 16">
       <r>   -2.5234    1.0000 </r>
       <r>   16.2556    0.0000 </r>
       <r>   17.2819    0.0000 </r>
       <r>   21.2549    0.0000 </r>
       <r>   22.5062    0.0000 </r>
      </set>
      <set comment="kpoint 17">
       <r>   -1.9265    1.0000 </r>
       <r>   16.7644    0.0000 </r>
       <r>   16.7644    0.0000 </r>
       <r>   16.8698    0.0000 </r>
       <r>   19.7441    0.0000 </r>
      </set>
      <set comment="kpoint 18">
       <r>   -1.1100    1.0000 </r>
       <r>   13.5205    0.0000 </r>
       <r>   16.0677    0.0000 </r>
       <r>   17.3395    0.0000 </r>
       <r>   17.6543    0.0000 </r>
      </set>
      <set comment="kpoint 19">
       <r>    0.1424    1.0000 </r>
       <r>   10.2691   -0.0477 </r>
       <r>   15.7440    0.0000 </r>
       <r>   15.7546    0.0000 </r>
       <r>   17.4135    0.0000 </r>
      </set>
      <set comment="kpoint 20">
       <r>    1.8187    1.0000 </r>
       <r>    7.3078    0.8246 </r>
       <r>   14.3350    0.0000 </r>
       <r>   15.8251    0.0000 </r>
       <r>   17.5659    0.0000 </r>
      </set>
      <set comment="kpoint 21">
       <r>    3.8878    1.0000 </r>
       <r>    4.7175    1.0000 </r>
       <r>   13.3237    0.0000 </r>
       <r>   16.2796    0.0000 </r>
       <r>   18.0948    0.0000 </r>
      </set>
      <set comment="kpoint 22">
       <r>    2.4703    1.0000 </r>
       <r>    6.3842    1.0781 </r>
       <r>   12.7293    0.0000 </r>
       <r>   17.1186    0.0000 </r>
       <r>   19.0204    0.0000 </r>
      </set>
      <set comment="kpoint 23">
       <r>    0.6554    1.0000 </r>
       <r>    9.1821    0.0165 </r>
       <r>   12.5933    0.0000 </r>
       <r>   18.3397    0.0000 </r>
       <r>   20.3260    0.0000 </r>
      </set>
      <set comment="kpoint 24">
       <r>   -0.7404    1.0000 </r>
       <r>   11.8641    0.0000 </r>
       <r>   13.3286    0.0000 </r>
       <r>   19.9291    0.0000 </r>
       <r>   21.9565    0.0000 </r>
      </set>
      <set comment="kpoint 25">
       <r>   -0.4457    1.0000 </r>
       <r>   15.1347    0.0000 </r>
       <r>   15.2121    0.0000 </r>
       <r>   15.2368    0.0000 </r>
       <r>   15.2368    0.0000 </r>
      </set>
      <set comment="kpoint 26">
       <r>    0.6539    1.0000 </r>
       <r>   12.1346    0.0000 </r>
       <r>   13.2571    0.0000 </r>
       <r>   14.7920    0.0000 </r>
       <r>   16.0668    0.0000 </r>
      </set>
      <set comment="kpoint 27">
       <r>    2.1767    1.0000 </r>
       <r>    9.1483    0.0502 </r>
       <r>   11.6859    0.0000 </r>
       <r>   14.7319    0.0000 </r>
       <r>   16.3115    0.0000 </r>
      </set>
      <set comment="kpoint 28">
       <r>    4.0989    1.0000 </r>
       <r>    6.4617    1.0530 </r>
       <r>   10.5291   -0.0054 </r>
       <r>   15.0561    0.0000 </r>
       <r>   16.7565    0.0000 </r>
      </set>
      <set comment="kpoint 29">
       <r>    4.1148    1.0000 </r>
       <r>    6.3921    1.0203 </r>
       <r>    9.8380   -0.0043 </r>
       <r>   15.7656    0.0000 </r>
       <r>   17.5767    0.0000 </r>
      </set>
      <set comment="kpoint 30">
       <r>    2.1815    1.0000 </r>
       <r>    8.5469    0.4123 </r>
       <r>   10.0664    0.0000 </r>
       <r>   16.8608    0.0000 </r>
       <r>   18.7825    0.0000 </r>
      </set>
      <set comment="kpoint 31">
       <r>    1.5974    1.0000 </r>
       <r>   11.1053   -0.0084 </r>
       <r>   13.9590    0.0000 </r>
       <r>   14.2168    0.0000 </r>
       <r>   14.2168    0.0000 </r>
      </set>
      <set comment="kpoint 32">
       <r>    2.9578    1.0000 </r>
       <r>    9.3722   -0.0333 </r>
       <r>   11.3399    0.0000 </r>
       <r>   14.0268    0.0000 </r>
       <r>   15.2205    0.0000 </r>
      </set>
      <set comment="kpoint 33">
       <r>    4.6887    1.0000 </r>
       <r>    8.0342    0.7136 </r>
       <r>    8.6983   -0.0015 </r>
       <r>   14.2210    0.0000 </r>
       <r>   15.7438    0.0000 </r>
      </set>
      <set comment="kpoint 34">
       <r>    6.1377    1.0000 </r>
       <r>    6.3404    1.0000 </r>
       <r>    7.8144    0.0866 </r>
       <r>   14.8001    0.0000 </r>
       <r>   16.4778    0.0000 </r>
      </set>
      <set comment="kpoint 35">
       <r>    4.1246    1.0000 </r>
       <r>    7.5406    0.7330 </r>
       <r>   13.3675    0.0000 </r>
       <r>   13.7073    0.0000 </r>
       <r>   13.7073    0.0000 </r>
      </set>
      <set comment="kpoint 36">
       <r>    5.2402    1.0000 </r>
       <r>    6.5768    1.0815 </r>
       <r>   11.0578    0.0000 </r>
       <r>   13.7719    0.0000 </r>
       <r>   14.9363    0.0000 </r>
      </set>
      <set comment="kpoint 37">
       <r>   -1.6291    1.0000 </r>
       <r>   14.0723    0.0000 </r>
       <r>   15.3194    0.0000 </r>
       <r>   19.9521    0.0000 </r>
       <r>   20.0396    0.0000 </r>
      </set>
      <set comment="kpoint 38">
       <r>   -0.5191    1.0000 </r>
       <r>   11.1156   -0.0000 </r>
       <r>   14.4294    0.0000 </r>
       <r>   18.0695    0.0000 </r>
       <r>   20.2888    0.0000 </r>
      </set>
      <set comment="kpoint 39">
       <r>    1.0202    1.0000 </r>
       <r>    8.0672    0.4820 </r>
       <r>   14.3131    0.0000 </r>
       <r>   16.5500    0.0000 </r>
       <r>   20.3579    0.0000 </r>
      </set>
      <set comment="kpoint 40">
       <r>    2.9724    1.0000 </r>
       <r>    5.3414    1.0000 </r>
       <r>   14.6103    0.0000 </r>
       <r>   15.4421    0.0000 </r>
       <r>   20.7162    0.0000 </r>
      </set>
      <set comment="kpoint 41">
       <r>   -0.1514    1.0000 </r>
       <r>   12.4194    0.0000 </r>
       <r>   13.7322    0.0000 </r>
       <r>   15.5341    0.0000 </r>
       <r>   18.4885    0.0000 </r>
      </set>
      <set comment="kpoint 42">
       <r>    1.2374    1.0000 </r>
       <r>    9.7281   -0.0545 </r>
       <r>   13.0277    0.0000 </r>
       <r>   13.8957    0.0000 </r>
       <r>   19.0510    0.0000 </r>
      </set>
      <set comment="kpoint 43">
       <r>    3.0410    1.0000 </r>
       <r>    6.9430    0.9706 </r>
       <r>   12.4458    0.0000 </r>
       <r>   13.3384    0.0000 </r>
       <r>   19.4104    0.0000 </r>
      </set>
      <set comment="kpoint 44">
       <r>    4.4546    1.0000 </r>
       <r>    5.2697    1.0000 </r>
       <r>   11.6190    0.0000 </r>
       <r>   13.8884    0.0000 </r>
       <r>   20.0659    0.0000 </r>
      </set>
      <set comment="kpoint 45">
       <r>    2.3972    1.0000 </r>
       <r>    7.7881    0.7184 </r>
       <r>   11.2184    0.0000 </r>
       <r>   14.8882    0.0000 </r>
       <r>   21.0715    0.0000 </r>
      </set>
      <set comment="kpoint 46">
       <r>    0.7281    1.0000 </r>
       <r>   10.2056   -0.0570 </r>
       <r>   11.7112    0.0000 </r>
       <r>   16.2906    0.0000 </r>
       <r>   22.2742    0.0000 </r>
      </set>
      <set comment="kpoint 47">
       <r>    1.8873    1.0000 </r>
       <r>   11.3133   -0.0052 </r>
       <r>   11.3386    0.0000 </r>
       <r>   12.7726    0.0000 </r>
       <r>   17.4126    0.0000 </r>
      </set>
      <set comment="kpoint 48">
       <r>    3.5305    1.0000 </r>
       <r>    8.8686    0.1439 </r>
       <r>    9.9681    0.0000 </r>
       <r>   12.3356    0.0000 </r>
       <r>   18.2589    0.0000 </r>
      </set>
      <set comment="kpoint 49">
       <r>    5.5195    1.0000 </r>
       <r>    6.3827    1.0424 </r>
       <r>    8.9921   -0.0031 </r>
       <r>   12.7450    0.0000 </r>
       <r>   18.8959    0.0000 </r>
      </set>
      <set comment="kpoint 50">
       <r>    4.1843    1.0000 </r>
       <r>    7.4428    0.9991 </r>
       <r>    8.9311   -0.0002 </r>
       <r>   13.6110    0.0000 </r>
       <r>   19.8210    0.0000 </r>
      </set>
      <set comment="kpoint 51">
       <r>    4.4071    1.0000 </r>
       <r>    7.8194    0.6392 </r>
       <r>   10.7593    0.0000 </r>
       <r>   12.1989    0.0000 </r>
       <r>   16.8696    0.0000 </r>
      </set>
      <set comment="kpoint 52">
       <r>    5.7900    1.0000 </r>
       <r>    7.1335    1.0613 </r>
       <r>    8.6596   -0.0010 </r>
       <r>   12.0514    0.0000 </r>
       <r>   17.9906    0.0000 </r>
      </set>
      <set comment="kpoint 53">
       <r>    2.7537    1.0000 </r>
       <r>    9.0998    0.0552 </r>
       <r>   10.5585    0.0000 </r>
       <r>   12.3194    0.0000 </r>
       <r>   21.2591    0.0000 </r>
      </set>
      <set comment="kpoint 54">
       <r>    4.6669    1.0000 </r>
       <r>    6.9487    1.0149 </r>
       <r>   10.2858    0.0000 </r>
       <r>   11.2280    0.0000 </r>
       <r>   22.2076    0.0000 </r>
      </set>
      <set comment="kpoint 55">
       <r>    5.2513    1.0000 </r>
       <r>    8.5472    0.4914 </r>
       <r>    8.6040    0.0000 </r>
       <r>   10.1911    0.0000 </r>
       <r>   20.7308    0.0000 </r>
      </set>
      <set comment="kpoint 56">
       <r>    6.6362    1.0000 </r>
       <r>    6.8914    1.0240 </r>
       <r>    8.3145    0.0000 </r>
       <r>   10.2169    0.0000 </r>
       <r>   21.9936    0.0000 </r>
      </set>
     </set>
     <set comment="spin 2">
      <set comment="kpoint 1">
       <r>   -3.1228    1.0000 </r>
       <r>   20.6714    0.0000 </r>
       <r>   20.6714    0.0000 </r>
       <r>   20.6714    0.0000 </r>
       <r>   22.1871    0.0000 </r>
      </set>
      <set comment="kpoint 2">
       <r>   -2.8977    1.0000 </r>
       <r>   17.7500    0.0000 </r>
       <r>   20.0361    0.0000 </r>
       <r>   20.0361    0.0000 </r>
       <r>   22.8444    0.0000 </r>
      </set>
      <set comment="kpoint 3">
       <r>   -2.2247    1.0000 </r>
       <r>   14.0887    0.0000 </r>
       <r>   19.3054    0.0000 </r>
       <r>   19.3054    0.0000 </r>
       <r>   22.6030    0.0000 </r>
      </set>
      <set comment="kpoint 4">
       <r>   -1.1100    1.0000 </r>
       <r>   10.6479   -0.0161 </r>
       <r>   18.8969    0.0000 </r>
       <r>   18.8969    0.0000 </r>
       <r>   22.4054    0.0000 </r>
      </set>
      <set comment="kpoint 5">
       <r>    0.4361    1.0000 </r>
       <r>    7.5306    0.7105 </r>
       <r>   18.8537    0.0000 </r>
       <r>   18.8539    0.0000 </r>
       <r>   20.9821    0.0000 </r>
      </set>
      <set comment="kpoint 6">
       <r>    2.3985    1.0000 </r>
       <r>    4.7785    1.0000 </r>
       <r>   19.1857    0.0000 </r>
       <r>   19.1885    0.0000 </r>
       <r>   19.8969    0.0000 </r>
      </set>
      <set comment="kpoint 7">
       <r>   -2.8227    1.0000 </r>
       <r>   18.7732    0.0000 </r>
       <r>   18.7732    0.0000 </r>
       <r>   19.0523    0.0000 </r>
       <r>   21.5168    0.0000 </r>
      </set>
      <set comment="kpoint 8">
       <r>   -2.2993    1.0000 </r>
       <r>   15.4158    0.0000 </r>
       <r>   17.8450    0.0000 </r>
       <r>   19.1829    0.0000 </r>
       <r>   21.8572    0.0000 </r>
      </set>
      <set comment="kpoint 9">
       <r>   -1.3322    1.0000 </r>
       <r>   11.9255    0.0000 </r>
       <r>   17.2874    0.0000 </r>
       <r>   18.8453    0.0000 </r>
       <r>   20.1689    0.0000 </r>
      </set>
      <set comment="kpoint 10">
       <r>    0.0694    1.0000 </r>
       <r>    8.7099    0.1964 </r>
       <r>   17.1079    0.0000 </r>
       <r>   18.4917    0.0000 </r>
       <r>   18.7769    0.0000 </r>
      </set>
      <set comment="kpoint 11">
       <r>    1.8926    1.0000 </r>
       <r>    5.8399    1.0450 </r>
       <r>   17.2763    0.0000 </r>
       <r>   17.3093    0.0000 </r>
       <r>   18.9809    0.0000 </r>
      </set>
      <set comment="kpoint 12">
       <r>    3.3240    1.0000 </r>
       <r>    4.1456    1.0000 </r>
       <r>   16.4154    0.0000 </r>
       <r>   17.8932    0.0000 </r>
       <r>   19.6082    0.0000 </r>
      </set>
      <set comment="kpoint 13">
       <r>    1.2392    1.0000 </r>
       <r>    6.7539    1.0094 </r>
       <r>   15.9491    0.0000 </r>
       <r>   18.8579    0.0000 </r>
       <r>   20.6246    0.0000 </r>
      </set>
      <set comment="kpoint 14">
       <r>   -0.4454    1.0000 </r>
       <r>    9.7393   -0.0578 </r>
       <r>   15.8839    0.0000 </r>
       <r>   20.1781    0.0000 </r>
       <r>   20.9280    0.0000 </r>
      </set>
      <set comment="kpoint 15">
       <r>   -1.7034    1.0000 </r>
       <r>   13.0347    0.0000 </r>
       <r>   16.2350    0.0000 </r>
       <r>   21.0938    0.0000 </r>
       <r>   21.9062    0.0000 </r>
      </set>
      <set comment="kpoint 16">
       <r>   -2.5234    1.0000 </r>
       <r>   16.2556    0.0000 </r>
       <r>   17.2819    0.0000 </r>
       <r>   21.2549    0.0000 </r>
       <r>   22.5027    0.0000 </r>
      </set>
      <set comment="kpoint 17">
       <r>   -1.9265    1.0000 </r>
       <r>   16.7644    0.0000 </r>
       <r>   16.7644    0.0000 </r>
       <r>   16.8698    0.0000 </r>
       <r>   19.7417    0.0000 </r>
      </set>
      <set comment="kpoint 18">
       <r>   -1.1100    1.0000 </r>
       <r>   13.5205    0.0000 </r>
       <r>   16.0677    0.0000 </r>
       <r>   17.3395    0.0000 </r>
       <r>   17.6543    0.0000 </r>
      </set>
      <set comment="kpoint 19">
       <r>    0.1424    1.0000 </r>
       <r>   10.2691   -0.0477 </r>
       <r>   15.7440    0.0000 </r>
       <r>   15.7546    0.0000 </r>
       <r>   17.4135    0.0000 </r>
      </set>
      <set comment="kpoint 20">
       <r>    1.8187    1.0000 </r>
       <r>    7.3078    0.8246 </r>
       <r>   14.3350    0.0000 </r>
       <r>   15.8251    0.0000 </r>
       <r>   17.5659    0.0000 </r>
      </set>
      <set comment="kpoint 21">
       <r>    3.8878    1.0000 </r>
       <r>    4.7175    1.0000 </r>
       <r>   13.3237    0.0000 </r>
       <r>   16.2796    0.0000 </r>
       <r>   18.0948    0.0000 </r>
      </set>
      <set comment="kpoint 22">
       <r>    2.4703    1.0000 </r>
       <r>    6.3842    1.0781 </r>
       <r>   12.7293    0.0000 </r>
       <r>   17.1186    0.0000 </r>
       <r>   19.0204    0.0000 </r>
      </set>
      <set comment="kpoint 23">
       <r>    0.6554    1.0000 </r>
       <r>    9.1821    0.0165 </r>
       <r>   12.5933    0.0000 </r>
       <r>   18.3397    0.0000 </r>
       <r>   20.3260    0.0000 </r>
      </set>
      <set comment="kpoint 24">
       <r>   -0.7404    1.0000 </r>
       <r>   11.8641    0.0000 </r>
       <r>   13.3286    0.0000 </r>
       <r>   19.9291    0.0000 </r>
       <r>   21.9566    0.0000 </r>
      </set>
      <set comment="kpoint 25">
       <r>   -0.4457    1.0000 </r>
       <r>   15.1347    0.0000 </r>
       <r>   15.2121    0.0000 </r>
       <r>   15.2368    0.0000 </r>
       <r>   15.2368    0.0000 </r>
      </set>
      <set comment="kpoint 26">
       <r>    0.6539    1.0000 </r>
       <r>   12.1346    0.0000 </r>
       <r>   13.2571    0.0000 </r>
       <r>   14.7920    0.0000 </r>
       <r>   16.0668    0.0000 </r>
      </set>
      <set comment="kpoint 27">
       <r>    2.1767    1.0000 </r>
       <r>    9.1483    0.0502 </r>
       <r>   11.6859    0.0000 </r>
       <r>   14.7319    0.0000 </r>
       <r>   16.3115    0.0000 </r>
      </set>
      <set comment="kpoint 28">
       <r>    4.0989    1.0000 </r>
       <r>    6.4617    1.0530 </r>
       <r>   10.5291   -0.0054 </r>
       <r>   15.0561    0.0000 </r>
       <r>   16.7565    0.0000 </r>
      </set>
      <set comment="kpoint 29">
       <r>    4.1148    1.0000 </r>
       <r>    6.3921    1.0203 </r>
       <r>    9.8380   -0.0043 </r>
       <r>   15.7656    0.0000 </r>
       <r>   17.5767    0.0000 </r>
      </set>
      <set comment="kpoint 30">
       <r>    2.1815    1.0000 </r>
       <r>    8.5469    0.4123 </r>
       <r>   10.0664    0.0000 </r>
       <r>   16.8608    0.0000 </r>
       <r>   18.7825    0.0000 </r>
      </set>
      <set comment="kpoint 31">
       <r>    1.5974    1.0000 </r>
       <r>   11.1053   -0.0084 </r>
       <r>   13.9590    0.0000 </r>
       <r>   14.2168    0.0000 </r>
       <r>   14.2168    0.0000 </r>
      </set>
      <set comment="kpoint 32">
       <r>    2.9578    1.0000 </r>
       <r>    9.3722   -0.0333 </r>
       <r>   11.3399    0.0000 </r>
       <r>   14.0268    0.0000 </r>
       <r>   15.2205    0.0000 </r>
      </set>
      <set comment="kpoint 33">
       <r>    4.6887    1.0000 </r>
       <r>    8.0342    0.7136 </r>
       <r>    8.6983   -0.0015 </r>
       <r>   14.2210    0.0000 </r>
       <r>   15.7438    0.0000 </r>
      </set>
      <set comment="kpoint 34">
       <r>    6.1377    1.0000 </r>
       <r>    6.3404    1.0000 </r>
       <r>    7.8144    0.0866 </r>
       <r>   14.8001    0.0000 </r>
       <r>   16.4778    0.0000 </r>
      </set>
      <set comment="kpoint 35">
       <r>    4.1246    1.0000 </r>
       <r>    7.5406    0.7330 </r>
       <r>   13.3675    0.0000 </r>
       <r>   13.7073    0.0000 </r>
       <r>   13.7073    0.0000 </r>
      </set>
      <set comment="kpoint 36">
       <r>    5.2402    1.0000 </r>
       <r>    6.5768    1.0815 </r>
       <r>   11.0578    0.0000 </r>
       <r>   13.7719    0.0000 </r>
       <r>   14.9363    0.0000 </r>
      </set>
      <set comment="kpoint 37">
       <r>   -1.6291    1.0000 </r>
       <r>   14.0723    0.0000 </r>
       <r>   15.3194    0.0000 </r>
       <r>   19.9521    0.0000 </r>
       <r>   20.0396    0.0000 </r>
      </set>
      <set comment="kpoint 38">
       <r>   -0.5191    1.0000 </r>
       <r>   11.1156   -0.0000 </r>
       <r>   14.4294    0.0000 </r>
       <r>   18.0695    0.0000 </r>
       <r>   20.2888    0.0000 </r>
      </set>
      <set comment="kpoint 39">
       <r>    1.0202    1.0000 </r>
       <r>    8.0672    0.4820 </r>
       <r>   14.3131    0.0000 </r>
       <r>   16.5500    0.0000 </r>
       <r>   20.3579    0.0000 </r>
      </set>
      <set comment="kpoint 40">
       <r>    2.9724    1.0000 </r>
       <r>    5.3414    1.0000 </r>
       <r>   14.6103    0.0000 </r>
       <r>   15.4421    0.0000 </r>
       <r>   20.7162    0.0000 </r>
      </set>
      <set comment="kpoint 41">
       <r>   -0.1514    1.0000 </r>
       <r>   12.4194    0.0000 </r>
       <r>   13.7322    0.0000 </r>
       <r>   15.5341    0.0000 </r>
       <r>   18.4885    0.0000 </r>
      </set>
      <set comment="kpoint 42">
       <r>    1.2374    1.0000 </r>
       <r>    9.7281   -0.0545 </r>
       <r>   13.0277    0.0000 </r>
       <r>   13.8957    0.0000 </r>
       <r>   19.0510    0.0000 </r>
      </set>
      <set comment="kpoint 43">
       <r>    3.0410    1.0000 </r>
       <r>    6.9430    0.9706 </r>
       <r>   12.4458    0.0000 </r>
       <r>   13.3384    0.0000 </r>
       <r>   19.4104    0.0000 </r>
      </set>
      <set comment="kpoint 44">
       <r>    4.4546    1.0000 </r>
       <r>    5.2697    1.0000 </r>
       <r>   11.6190    0.0000 </r>
       <r>   13.8884    0.0000 </r>
       <r>   20.0659    0.0000 </r>
      </set>
      <set comment="kpoint 45">
       <r>    2.3972    1.0000 </r>
       <r>    7.7881    0.7184 </r>
       <r>   11.2184    0.0000 </r>
       <r>   14.8882    0.0000 </r>
       <r>   21.0715    0.0000 </r>
      </set>
      <set comment="kpoint 46">
       <r>    0.7281    1.0000 </r>
       <r>   10.2056   -0.0570 </r>
       <r>   11.7112    0.0000 </r>
       <r>   16.2906    0.0000 </r>
       <r>   22.2919    0.0000 </r>
      </set>
      <set comment="kpoint 47">
       <r>    1.8873    1.0000 </r>
       <r>   11.3133   -0.0052 </r>
       <r>   11.3386    0.0000 </r>
       <r>   12.7726    0.0000 </r>
       <r>   17.4126    0.0000 </r>
      </set>
      <set comment="kpoint 48">
       <r>    3.5305    1.0000 </r>
       <r>    8.8686    0.1439 </r>
       <r>    9.9681    0.0000 </r>
       <r>   12.3356    0.0000 </r>
       <r>   18.2589    0.0000 </r>
      </set>
      <set comment="kpoint 49">
       <r>    5.5195    1.0000 </r>
       <r>    6.3827    1.0424 </r>
       <r>    8.9921   -0.0031 </r>
       <r>   12.7450    0.0000 </r>
       <r>   18.8959    0.0000 </r>
      </set>
      <set comment="kpoint 50">
       <r>    4.1843    1.0000 </r>
       <r>    7.4428    0.9991 </r>
       <r>    8.9311   -0.0002 </r>
       <r>   13.6110    0.0000 </r>
       <r>   19.8210    0.0000 </r>
      </set>
      <set comment="kpoint 51">
       <r>    4.4071    1.0000 </r>
       <r>    7.8194    0.6392 </r>
       <r>   10.7593    0.0000 </r>
       <r>   12.1989    0.0000 </r>
       <r>   16.8696    0.0000 </r>
      </set>
      <set comment="kpoint 52">
       <r>    5.7900    1.0000 </r>
       <r>    7.1335    1.0613 </r>
       <r>    8.6596   -0.0010 </r>
       <r>   12.0514    0.0000 </r>
       <r>   17.9906    0.0000 </r>
      </set>
      <set comment="kpoint 53">
       <r>    2.7537    1.0000 </r>
       <r>    9.0998    0.0552 </r>
       <r>   10.5585    0.0000 </r>
       <r>   12.3194    0.0000 </r>
       <r>   21.2591    0.0000 </r>
      </set>
      <set comment="kpoint 54">
       <r>    4.6669    1.0000 </r>
       <r>    6.9487    1.0149 </r>
       <r>   10.2858    0.0000 </r>
       <r>   11.2280    0.0000 </r>
       <r>   22.2072    0.0000 </r>
      </set>
      <set comment="kpoint 55">
       <r>    5.2513    1.0000 </r>
       <r>    8.5472    0.4915 </r>
       <r>    8.6040    0.0000 </r>
       <r>   10.1911    0.0000 </r>
       <r>   20.7308    0.0000 </r>
      </set>
      <set comment="kpoint 56">
       <r>    6.6362    1.0000 </r>
       <r>    6.8914    1.0240 </r>
       <r>    8.3145    0.0000 </r>
       <r>   10.2169    0.0000 </r>
       <r>   21.9936    0.0000 </r>
      </set>
     </set>
    </set>
   </array>
  </eigenvalues>
  <separator name="orbital magnetization" >
   <v name="MAGDIPOLOUT">      0.00000000      0.00000000      0.00000000</v>
  </separator>
  <dos>
   <i name="efermi">      8.08747822 </i>
   <total>
    <array>
     <dimension dim="1">gridpoints</dimension>
     <dimension dim="2">spin</dimension>
     <field>energy</field>
     <field>total</field>
     <field>integrated</field>
     <set>
      <set comment="spin 1">
       <r>    -4.4211     0.0000     0.0000 </r>
       <r>    -4.3259     0.0000     0.0000 </r>
       <r>    -4.2307     0.0000     0.0000 </r>
       <r>    -4.1355     0.0000     0.0000 </r>
       <r>    -4.0403     0.0000     0.0000 </r>
       <r>    -3.9450     0.0000     0.0000 </r>
       <r>    -3.8498     0.0000     0.0000 </r>
       <r>    -3.7546     0.0000     0.0000 </r>
       <r>    -3.6594     0.0000     0.0000 </r>
       <r>    -3.5642     0.0000     0.0000 </r>
       <r>    -3.4690     0.0000     0.0000 </r>
       <r>    -3.3738     0.0000     0.0000 </r>
       <r>    -3.2786     0.0000     0.0000 </r>
       <r>    -3.1833     0.0000     0.0000 </r>
       <r>    -3.0881     0.0007     0.0000 </r>
       <r>    -2.9929     0.0100     0.0004 </r>
       <r>    -2.8977     0.0300     0.0023 </r>
       <r>    -2.8025     0.0270     0.0048 </r>
       <r>    -2.7073     0.0320     0.0076 </r>
       <r>    -2.6121     0.0374     0.0109 </r>
       <r>    -2.5169     0.0432     0.0147 </r>
       <r>    -2.4216     0.0477     0.0191 </r>
       <r>    -2.3264     0.0495     0.0237 </r>
       <r>    -2.2312     0.0510     0.0285 </r>
       <r>    -2.1360     0.0542     0.0335 </r>
       <r>    -2.0408     0.0574     0.0388 </r>
       <r>    -1.9456     0.0606     0.0444 </r>
       <r>    -1.8504     0.0639     0.0504 </r>
       <r>    -1.7552     0.0674     0.0566 </r>
       <r>    -1.6599     0.0693     0.0631 </r>
       <r>    -1.5647     0.0712     0.0698 </r>
       <r>    -1.4695     0.0731     0.0767 </r>
       <r>    -1.3743     0.0750     0.0838 </r>
       <r>    -1.2791     0.0769     0.0910 </r>
       <r>    -1.1839     0.0789     0.0984 </r>
       <r>    -1.0887     0.0811     0.1060 </r>
       <r>    -0.9935     0.0835     0.1138 </r>
       <r>    -0.8982     0.0860     0.1219 </r>
       <r>    -0.8030     0.0884     0.1302 </r>
       <r>    -0.7078     0.0909     0.1387 </r>
       <r>    -0.6126     0.0927     0.1475 </r>
       <r>    -0.5174     0.0938     0.1564 </r>
       <r>    -0.4222     0.0952     0.1654 </r>
       <r>    -0.3270     0.0968     0.1745 </r>
       <r>    -0.2318     0.0985     0.1838 </r>
       <r>    -0.1365     0.1001     0.1932 </r>
       <r>    -0.0413     0.1018     0.2029 </r>
       <r>     0.0539     0.1035     0.2126 </r>
       <r>     0.1491     0.1052     0.2226 </r>
       <r>     0.2443     0.1071     0.2327 </r>
       <r>     0.3395     0.1090     0.2430 </r>
       <r>     0.4347     0.1109     0.2534 </r>
       <r>     0.5300     0.1128     0.2641 </r>
       <r>     0.6252     0.1148     0.2749 </r>
       <r>     0.7204     0.1160     0.2859 </r>
       <r>     0.8156     0.1174     0.2970 </r>
       <r>     0.9108     0.1187     0.3083 </r>
       <r>     1.0060     0.1200     0.3196 </r>
       <r>     1.1012     0.1212     0.3311 </r>
       <r>     1.1964     0.1226     0.3427 </r>
       <r>     1.2917     0.1241     0.3544 </r>
       <r>     1.3869     0.1256     0.3663 </r>
       <r>     1.4821     0.1271     0.3784 </r>
       <r>     1.5773     0.1287     0.3905 </r>
       <r>     1.6725     0.1302     0.4029 </r>
       <r>     1.7677     0.1317     0.4153 </r>
       <r>     1.8629     0.1333     0.4280 </r>
       <r>     1.9581     0.1350     0.4407 </r>
       <r>     2.0534     0.1369     0.4537 </r>
       <r>     2.1486     0.1390     0.4668 </r>
       <r>     2.2438     0.1413     0.4801 </r>
       <r>     2.3390     0.1434     0.4937 </r>
       <r>     2.4342     0.1463     0.5075 </r>
       <r>     2.5294     0.1502     0.5216 </r>
       <r>     2.6246     0.1537     0.5361 </r>
       <r>     2.7198     0.1569     0.5508 </r>
       <r>     2.8151     0.1598     0.5659 </r>
       <r>     2.9103     0.1623     0.5813 </r>
       <r>     3.0055     0.1732     0.5970 </r>
       <r>     3.1007     0.1903     0.6144 </r>
       <r>     3.1959     0.1907     0.6327 </r>
       <r>     3.2911     0.1742     0.6502 </r>
       <r>     3.3863     0.1613     0.6659 </r>
       <r>     3.4815     0.1566     0.6810 </r>
       <r>     3.5768     0.1526     0.6958 </r>
       <r>     3.6720     0.1493     0.7101 </r>
       <r>     3.7672     0.1467     0.7242 </r>
       <r>     3.8624     0.1448     0.7381 </r>
       <r>     3.9576     0.1457     0.7519 </r>
       <r>     4.0528     0.1551     0.7661 </r>
       <r>     4.1480     0.1573     0.7813 </r>
       <r>     4.2432     0.1559     0.7962 </r>
       <r>     4.3385     0.1574     0.8111 </r>
       <r>     4.4337     0.1622     0.8263 </r>
       <r>     4.5289     0.1850     0.8427 </r>
       <r>     4.6241     0.1876     0.8607 </r>
       <r>     4.7193     0.1798     0.8780 </r>
       <r>     4.8145     0.1811     0.8951 </r>
       <r>     4.9097     0.1840     0.9125 </r>
       <r>     5.0050     0.1863     0.9302 </r>
       <r>     5.1002     0.1879     0.9480 </r>
       <r>     5.1954     0.1888     0.9659 </r>
       <r>     5.2906     0.2483     0.9847 </r>
       <r>     5.3858     0.1748     1.0045 </r>
       <r>     5.4810     0.1733     1.0211 </r>
       <r>     5.5762     0.1772     1.0376 </r>
       <r>     5.6714     0.1764     1.0546 </r>
       <r>     5.7667     0.1649     1.0709 </r>
       <r>     5.8619     0.1513     1.0859 </r>
       <r>     5.9571     0.1429     1.0999 </r>
       <r>     6.0523     0.1387     1.1132 </r>
       <r>     6.1475     0.1386     1.1264 </r>
       <r>     6.2427     0.1407     1.1397 </r>
       <r>     6.3379     0.1439     1.1532 </r>
       <r>     6.4331     0.2104     1.1758 </r>
       <r>     6.5284     0.1884     1.1938 </r>
       <r>     6.6236     0.1930     1.2119 </r>
       <r>     6.7188     0.1953     1.2309 </r>
       <r>     6.8140     0.2056     1.2500 </r>
       <r>     6.9092     0.2941     1.2717 </r>
       <r>     7.0044     0.2126     1.2950 </r>
       <r>     7.0996     0.2026     1.3147 </r>
       <r>     7.1948     0.1981     1.3338 </r>
       <r>     7.2901     0.1959     1.3525 </r>
       <r>     7.3853     0.1942     1.3711 </r>
       <r>     7.4805     0.1930     1.3895 </r>
       <r>     7.5757     0.1914     1.4078 </r>
       <r>     7.6709     0.1896     1.4260 </r>
       <r>     7.7661     0.1871     1.4439 </r>
       <r>     7.8613     0.1790     1.4614 </r>
       <r>     7.9565     0.1718     1.4781 </r>
       <r>     8.0518     0.1658     1.4941 </r>
       <r>     8.1470     0.1632     1.5097 </r>
       <r>     8.2422     0.1621     1.5252 </r>
       <r>     8.3374     0.1931     1.5421 </r>
       <r>     8.4326     0.1998     1.5607 </r>
       <r>     8.5278     0.2195     1.5806 </r>
       <r>     8.6230     0.2734     1.6032 </r>
       <r>     8.7182     0.2366     1.6268 </r>
       <r>     8.8135     0.2437     1.6497 </r>
       <r>     8.9087     0.2427     1.6730 </r>
       <r>     9.0039     0.2096     1.6949 </r>
       <r>     9.0991     0.2061     1.7146 </r>
       <r>     9.1943     0.2051     1.7342 </r>
       <r>     9.2895     0.2037     1.7537 </r>
       <r>     9.3847     0.2042     1.7731 </r>
       <r>     9.4799     0.2056     1.7926 </r>
       <r>     9.5752     0.2078     1.8123 </r>
       <r>     9.6704     0.2106     1.8322 </r>
       <r>     9.7656     0.2119     1.8523 </r>
       <r>     9.8608     0.2090     1.8724 </r>
       <r>     9.9560     0.2032     1.8920 </r>
       <r>    10.0512     0.2003     1.9112 </r>
       <r>    10.1464     0.1995     1.9302 </r>
       <r>    10.2417     0.2227     1.9553 </r>
       <r>    10.3369     0.2216     1.9765 </r>
       <r>    10.4321     0.2196     1.9975 </r>
       <r>    10.5273     0.2202     2.0184 </r>
       <r>    10.6225     0.2227     2.0395 </r>
       <r>    10.7177     0.2260     2.0608 </r>
       <r>    10.8129     0.2330     2.0826 </r>
       <r>    10.9081     0.2398     2.1052 </r>
       <r>    11.0034     0.2428     2.1282 </r>
       <r>    11.0986     0.2455     2.1513 </r>
       <r>    11.1938     0.2502     2.1750 </r>
       <r>    11.2890     0.2509     2.1989 </r>
       <r>    11.3842     0.2376     2.2222 </r>
       <r>    11.4794     0.2353     2.2447 </r>
       <r>    11.5746     0.2338     2.2670 </r>
       <r>    11.6698     0.2328     2.2892 </r>
       <r>    11.7651     0.2324     2.3114 </r>
       <r>    11.8603     0.2327     2.3335 </r>
       <r>    11.9555     0.2335     2.3557 </r>
       <r>    12.0507     0.2347     2.3780 </r>
       <r>    12.1459     0.2480     2.4013 </r>
       <r>    12.2411     0.2366     2.4241 </r>
       <r>    12.3363     0.2660     2.4473 </r>
       <r>    12.4315     0.2624     2.4724 </r>
       <r>    12.5268     0.2616     2.4973 </r>
       <r>    12.6220     0.2622     2.5223 </r>
       <r>    12.7172     0.2637     2.5473 </r>
       <r>    12.8124     0.2670     2.5725 </r>
       <r>    12.9076     0.2712     2.5982 </r>
       <r>    13.0028     0.2758     2.6242 </r>
       <r>    13.0980     0.2786     2.6506 </r>
       <r>    13.1932     0.2808     2.6772 </r>
       <r>    13.2885     0.2834     2.7041 </r>
       <r>    13.3837     0.2865     2.7312 </r>
       <r>    13.4789     0.2906     2.7587 </r>
       <r>    13.5741     0.2942     2.7866 </r>
       <r>    13.6693     0.2978     2.8147 </r>
       <r>    13.7645     0.3109     2.8446 </r>
       <r>    13.8597     0.2969     2.8729 </r>
       <r>    13.9549     0.3012     2.9013 </r>
       <r>    14.0502     0.3008     2.9302 </r>
       <r>    14.1454     0.2855     2.9581 </r>
       <r>    14.2406     0.2812     2.9850 </r>
       <r>    14.3358     0.2804     3.0117 </r>
       <r>    14.4310     0.2794     3.0384 </r>
       <r>    14.5262     0.2766     3.0648 </r>
       <r>    14.6214     0.2748     3.0911 </r>
       <r>    14.7167     0.2737     3.1172 </r>
       <r>    14.8119     0.2728     3.1432 </r>
       <r>    14.9071     0.2710     3.1691 </r>
       <r>    15.0023     0.2690     3.1948 </r>
       <r>    15.0975     0.2672     3.2203 </r>
       <r>    15.1927     0.2654     3.2457 </r>
       <r>    15.2879     0.2636     3.2708 </r>
       <r>    15.3831     0.2624     3.2959 </r>
       <r>    15.4784     0.2608     3.3208 </r>
       <r>    15.5736     0.2598     3.3456 </r>
       <r>    15.6688     0.2595     3.3703 </r>
       <r>    15.7640     0.2599     3.3950 </r>
       <r>    15.8592     0.2618     3.4198 </r>
       <r>    15.9544     0.2645     3.4449 </r>
       <r>    16.0496     0.2674     3.4702 </r>
       <r>    16.1448     0.2672     3.4957 </r>
[...]
       </set>
      </set>
      <set comment="kpoint 30">
       <set comment="band 1">
        <r>  0.1673  0.0481  0.0000  0.0481  0.0000  0.0000  0.0000  0.0000  0.0000 </r>
       </set>
       <set comment="band 2">
        <r>  0.0000  0.0000  0.2097  0.0000  0.0000  0.0000  0.0000  0.0000  0.0000 </r>
       </set>
       <set comment="band 3">
        <r>  0.2015  0.0476  0.0000  0.0476  0.0000  0.0000  0.0000  0.0000  0.0000 </r>
       </set>
       <set comment="band 4">
        <r>  0.0000  0.1461  0.0000  0.1461  0.0000  0.0000  0.0000  0.0000  0.0000 </r>
       </set>
       <set comment="band 5">
        <r>  0.1218  0.0322  0.0000  0.0322  0.0000  0.0000  0.0000  0.0000  0.0000 </r>
       </set>
      </set>
      <set comment="kpoint 31">
       <set comment="band 1">
        <r>  0.1750  0.0000  0.0910  0.0000  0.0000  0.0000  0.0000  0.0000  0.0000 </r>
       </set>
       <set comment="band 2">
        <r>  0.0861  0.0000  0.1393  0.0000  0.0000  0.0000  0.0000  0.0000  0.0000 </r>
       </set>
       <set comment="band 3">
        <r>  0.0000  0.0000  0.0000  0.0000  0.0000  0.0000  0.0000  0.0000  0.0000 </r>
       </set>
       <set comment="band 4">
        <r>  0.0000  0.2525  0.0000  0.0791  0.0000  0.0000  0.0000  0.0000  0.0000 </r>
       </set>
       <set comment="band 5">
        <r>  0.0000  0.0791  0.0000  0.2525  0.0000  0.0000  0.0000  0.0000  0.0000 </r>
       </set>
      </set>
      <set comment="kpoint 32">
       <set comment="band 1">
        <r>  0.1435  0.0012  0.1157  0.0012  0.0000  0.0000  0.0000  0.0000  0.0000 </r>
       </set>
       <set comment="band 2">
        <r>  0.1060  0.0034  0.1194  0.0034  0.0000  0.0000  0.0000  0.0000  0.0000 </r>
       </set>
       <set comment="band 3">
        <r>  0.0441  0.0852  0.0037  0.0852  0.0000  0.0000  0.0000  0.0000  0.0000 </r>
       </set>
       <set comment="band 4">
        <r>  0.0000  0.1681  0.0000  0.1681  0.0000  0.0000  0.0000  0.0000  0.0000 </r>
       </set>
       <set comment="band 5">
        <r>  0.0890  0.0286  0.0059  0.0286  0.0000  0.0000  0.0000  0.0000  0.0000 </r>
       </set>
      </set>
      <set comment="kpoint 33">
       <set comment="band 1">
        <r>  0.0905  0.0038  0.1531  0.0038  0.0000  0.0000  0.0000  0.0000  0.0000 </r>
       </set>
       <set comment="band 2">
        <r>  0.0723  0.0301  0.0712  0.0301  0.0000  0.0000  0.0000  0.0000  0.0000 </r>
       </set>
       <set comment="band 3">
        <r>  0.1691  0.0564  0.0141  0.0564  0.0000  0.0000  0.0000  0.0000  0.0000 </r>
       </set>
       <set comment="band 4">
        <r>  0.0000  0.1666  0.0000  0.1666  0.0000  0.0000  0.0000  0.0000  0.0000 </r>
       </set>
       <set comment="band 5">
        <r>  0.1552  0.0010  0.0027  0.0010  0.0000  0.0000  0.0000  0.0000  0.0000 </r>
       </set>
      </set>
      <set comment="kpoint 34">
       <set comment="band 1">
        <r>  0.0637  0.0813  0.0000  0.0813  0.0000  0.0000  0.0000  0.0000  0.0000 </r>
       </set>
       <set comment="band 2">
        <r>  0.0000  0.0000  0.2317  0.0000  0.0000  0.0000  0.0000  0.0000  0.0000 </r>
       </set>
       <set comment="band 3">
        <r>  0.2921  0.0085  0.0000  0.0085  0.0000  0.0000  0.0000  0.0000  0.0000 </r>
       </set>
       <set comment="band 4">
        <r>  0.0000  0.1617  0.0000  0.1617  0.0000  0.0000  0.0000  0.0000  0.0000 </r>
       </set>
       <set comment="band 5">
        <r>  0.1627  0.0033  0.0000  0.0033  0.0000  0.0000  0.0000  0.0000  0.0000 </r>
       </set>
      </set>
      <set comment="kpoint 35">
       <set comment="band 1">
        <r>  0.1003  0.0000  0.1556  0.0000  0.0000  0.0000  0.0000  0.0000  0.0000 </r>
       </set>
       <set comment="band 2">
        <r>  0.1624  0.0000  0.0878  0.0000  0.0000  0.0000  0.0000  0.0000  0.0000 </r>
       </set>
       <set comment="band 3">
        <r>  0.0000  0.0000  0.0000  0.0000  0.0000  0.0000  0.0000  0.0000  0.0000 </r>
       </set>
       <set comment="band 4">
        <r>  0.0000  0.3194  0.0000  0.0234  0.0000  0.0000  0.0000  0.0000  0.0000 </r>
       </set>
       <set comment="band 5">
        <r>  0.0000  0.0234  0.0000  0.3194  0.0000  0.0000  0.0000  0.0000  0.0000 </r>
       </set>
      </set>
      <set comment="kpoint 36">
       <set comment="band 1">
        <r>  0.0000  0.0000  0.2435  0.0000  0.0000  0.0000  0.0000  0.0000  0.0000 </r>
       </set>
       <set comment="band 2">
        <r>  0.2546  0.0034  0.0000  0.0034  0.0000  0.0000  0.0000  0.0000  0.0000 </r>
       </set>
       <set comment="band 3">
        <r>  0.0414  0.0870  0.0000  0.0870  0.0000  0.0000  0.0000  0.0000  0.0000 </r>
       </set>
       <set comment="band 4">
        <r>  0.0000  0.1709  0.0000  0.1709  0.0000  0.0000  0.0000  0.0000  0.0000 </r>
       </set>
       <set comment="band 5">
        <r>  0.0927  0.0295  0.0000  0.0295  0.0000  0.0000  0.0000  0.0000  0.0000 </r>
       </set>
      </set>
      <set comment="kpoint 37">
       <set comment="band 1">
        <r>  0.2411  0.0059  0.0238  0.0000  0.0000  0.0000  0.0000  0.0000  0.0000 </r>
       </set>
       <set comment="band 2">
        <r>  0.0000  0.0000  0.0000  0.1638  0.0000  0.0000  0.0000  0.0000  0.0000 </r>
       </set>
       <set comment="band 3">
        <r>  0.0698  0.1655  0.0556  0.0000  0.0000  0.0000  0.0000  0.0000  0.0000 </r>
       </set>
       <set comment="band 4">
        <r>  0.0273  0.0090  0.2034  0.0000  0.0000  0.0000  0.0000  0.0000  0.0000 </r>
       </set>
       <set comment="band 5">
        <r>  0.0000  0.0000  0.0000  0.0974  0.0000  0.0000  0.0000  0.0000  0.0000 </r>
       </set>
      </set>
      <set comment="kpoint 38">
       <set comment="band 1">
        <r>  0.2195  0.0128  0.0361  0.0014  0.0000  0.0000  0.0000  0.0000  0.0000 </r>
       </set>
       <set comment="band 2">
        <r>  0.0455  0.0393  0.0168  0.1147  0.0000  0.0000  0.0000  0.0000  0.0000 </r>
       </set>
       <set comment="band 3">
        <r>  0.0657  0.0971  0.0313  0.0674  0.0000  0.0000  0.0000  0.0000  0.0000 </r>
       </set>
       <set comment="band 4">
        <r>  0.0386  0.0106  0.1901  0.0020  0.0000  0.0000  0.0000  0.0000  0.0000 </r>
       </set>
       <set comment="band 5">
        <r>  0.0247  0.0465  0.0380  0.0578  0.0000  0.0000  0.0000  0.0000  0.0000 </r>
       </set>
      </set>
      <set comment="kpoint 39">
       <set comment="band 1">
        <r>  0.1898  0.0217  0.0500  0.0054  0.0000  0.0000  0.0000  0.0000  0.0000 </r>
       </set>
       <set comment="band 2">
        <r>  0.0902  0.0429  0.0178  0.0918  0.0000  0.0000  0.0000  0.0000  0.0000 </r>
       </set>
       <set comment="band 3">
        <r>  0.0572  0.0692  0.0152  0.1041  0.0000  0.0000  0.0000  0.0000  0.0000 </r>
       </set>
       <set comment="band 4">
        <r>  0.0539  0.0148  0.1818  0.0080  0.0000  0.0000  0.0000  0.0000  0.0000 </r>
       </set>
       <set comment="band 5">
        <r>  0.0352  0.0956  0.0441  0.0324  0.0000  0.0000  0.0000  0.0000  0.0000 </r>
       </set>
      </set>
      <set comment="kpoint 40">
       <set comment="band 1">
        <r>  0.1465  0.0334  0.0662  0.0127  0.0000  0.0000  0.0000  0.0000  0.0000 </r>
       </set>
       <set comment="band 2">
        <r>  0.1399  0.0348  0.0118  0.0743  0.0000  0.0000  0.0000  0.0000  0.0000 </r>
       </set>
       <set comment="band 3">
        <r>  0.0347  0.0607  0.0008  0.1130  0.0000  0.0000  0.0000  0.0000  0.0000 </r>
       </set>
       <set comment="band 4">
        <r>  0.0814  0.0145  0.1714  0.0313  0.0000  0.0000  0.0000  0.0000  0.0000 </r>
       </set>
       <set comment="band 5">
        <r>  0.0271  0.1545  0.0387  0.0226  0.0000  0.0000  0.0000  0.0000  0.0000 </r>
       </set>
      </set>
      <set comment="kpoint 41">
       <set comment="band 1">
        <r>  0.2118  0.0056  0.0520  0.0000  0.0000  0.0000  0.0000  0.0000  0.0000 </r>
       </set>
       <set comment="band 2">
        <r>  0.0000  0.0000  0.0000  0.1743  0.0000  0.0000  0.0000  0.0000  0.0000 </r>
       </set>
       <set comment="band 3">
        <r>  0.0763  0.1910  0.0142  0.0000  0.0000  0.0000  0.0000  0.0000  0.0000 </r>
       </set>
       <set comment="band 4">
        <r>  0.0731  0.0000  0.1841  0.0000  0.0000  0.0000  0.0000  0.0000  0.0000 </r>
       </set>
       <set comment="band 5">
        <r>  0.0000  0.0000  0.0000  0.1313  0.0000  0.0000  0.0000  0.0000  0.0000 </r>
       </set>
      </set>
      <set comment="kpoint 42">
       <set comment="band 1">
        <r>  0.1846  0.0120  0.0687  0.0013  0.0000  0.0000  0.0000  0.0000  0.0000 </r>
       </set>
       <set comment="band 2">
        <r>  0.0513  0.0434  0.0054  0.1224  0.0000  0.0000  0.0000  0.0000  0.0000 </r>
       </set>
       <set comment="band 3">
        <r>  0.0405  0.1121  0.0000  0.0613  0.0000  0.0000  0.0000  0.0000  0.0000 </r>
       </set>
       <set comment="band 4">
        <r>  0.1260  0.0004  0.1777  0.0105  0.0000  0.0000  0.0000  0.0000  0.0000 </r>
       </set>
       <set comment="band 5">
        <r>  0.0399  0.0399  0.0163  0.0802  0.0000  0.0000  0.0000  0.0000  0.0000 </r>
       </set>
      </set>
      <set comment="kpoint 43">
       <set comment="band 1">
        <r>  0.1470  0.0203  0.0872  0.0053  0.0000  0.0000  0.0000  0.0000  0.0000 </r>
       </set>
       <set comment="band 2">
        <r>  0.1018  0.0458  0.0041  0.0964  0.0000  0.0000  0.0000  0.0000  0.0000 </r>
       </set>
       <set comment="band 3">
        <r>  0.0447  0.0382  0.1114  0.0017  0.0000  0.0000  0.0000  0.0000  0.0000 </r>
       </set>
       <set comment="band 4">
        <r>  0.1321  0.0469  0.0394  0.1149  0.0000  0.0000  0.0000  0.0000  0.0000 </r>
       </set>
       <set comment="band 5">
        <r>  0.0582  0.0851  0.0148  0.0437  0.0000  0.0000  0.0000  0.0000  0.0000 </r>
       </set>
      </set>
      <set comment="kpoint 44">
       <set comment="band 1">
        <r>  0.0908  0.0510  0.0120  0.0869  0.0000  0.0000  0.0000  0.0000  0.0000 </r>
       </set>
       <set comment="band 2">
        <r>  0.1584  0.0143  0.0971  0.0013  0.0000  0.0000  0.0000  0.0000  0.0000 </r>
       </set>
       <set comment="band 3">
        <r>  0.0909  0.0371  0.1094  0.0034  0.0000  0.0000  0.0000  0.0000  0.0000 </r>
       </set>
       <set comment="band 4">
        <r>  0.0936  0.0401  0.0089  0.1478  0.0000  0.0000  0.0000  0.0000  0.0000 </r>
       </set>
       <set comment="band 5">
        <r>  0.0577  0.1220  0.0084  0.0240  0.0000  0.0000  0.0000  0.0000  0.0000 </r>
       </set>
      </set>
      <set comment="kpoint 45">
       <set comment="band 1">
        <r>  0.1624  0.0326  0.0013  0.0663  0.0000  0.0000  0.0000  0.0000  0.0000 </r>
       </set>
       <set comment="band 2">
        <r>  0.0710  0.0228  0.1362  0.0076  0.0000  0.0000  0.0000  0.0000  0.0000 </r>
       </set>
       <set comment="band 3">
        <r>  0.1191  0.0573  0.0713  0.0144  0.0000  0.0000  0.0000  0.0000  0.0000 </r>
       </set>
       <set comment="band 4">
        <r>  0.0748  0.0279  0.0018  0.1695  0.0000  0.0000  0.0000  0.0000  0.0000 </r>
       </set>
       <set comment="band 5">
        <r>  0.0458  0.1602  0.0034  0.0133  0.0000  0.0000  0.0000  0.0000  0.0000 </r>
       </set>
      </set>
      <set comment="kpoint 46">
       <set comment="band 1">
        <r>  0.1953  0.0219  0.0000  0.0505  0.0000  0.0000  0.0000  0.0000  0.0000 </r>
       </set>
       <set comment="band 2">
        <r>  0.0000  0.0000  0.1944  0.0000  0.0000  0.0000  0.0000  0.0000  0.0000 </r>
       </set>
       <set comment="band 3">
        <r>  0.1537  0.1056  0.0000  0.0363  0.0000  0.0000  0.0000  0.0000  0.0000 </r>
       </set>
       <set comment="band 4">
        <r>  0.0576  0.0180  0.0000  0.1844  0.0000  0.0000  0.0000  0.0000  0.0000 </r>
       </set>
       <set comment="band 5">
        <r>  0.0048  0.0534  0.0716  0.0033  0.0000  0.0000  0.0000  0.0000  0.0000 </r>
       </set>
      </set>
      <set comment="kpoint 47">
       <set comment="band 1">
        <r>  0.1698  0.0051  0.0902  0.0000  0.0000  0.0000  0.0000  0.0000  0.0000 </r>
       </set>
       <set comment="band 2">
        <r>  0.0000  0.0000  0.0000  0.1810  0.0000  0.0000  0.0000  0.0000  0.0000 </r>
       </set>
       <set comment="band 3">
        <r>  0.0533  0.0223  0.1212  0.0000  0.0000  0.0000  0.0000  0.0000  0.0000 </r>
       </set>
       <set comment="band 4">
        <r>  0.1581  0.1819  0.0332  0.0000  0.0000  0.0000  0.0000  0.0000  0.0000 </r>
       </set>
       <set comment="band 5">
        <r>  0.0000  0.0000  0.0000  0.1484  0.0000  0.0000  0.0000  0.0000  0.0000 </r>
       </set>
      </set>
      <set comment="kpoint 48">
       <set comment="band 1">
        <r>  0.1329  0.0106  0.1138  0.0012  0.0000  0.0000  0.0000  0.0000  0.0000 </r>
       </set>
       <set comment="band 2">
        <r>  0.0362  0.0511  0.0005  0.1244  0.0000  0.0000  0.0000  0.0000  0.0000 </r>
       </set>
       <set comment="band 3">
        <r>  0.1222  0.0098  0.1162  0.0033  0.0000  0.0000  0.0000  0.0000  0.0000 </r>
       </set>
       <set comment="band 4">
        <r>  0.1321  0.1030  0.0106  0.0728  0.0000  0.0000  0.0000  0.0000  0.0000 </r>
       </set>
       <set comment="band 5">
        <r>  0.0467  0.0391  0.0039  0.0902  0.0000  0.0000  0.0000  0.0000  0.0000 </r>
       </set>
      </set>
      <set comment="kpoint 49">
       <set comment="band 1">
        <r>  0.0596  0.0203  0.1467  0.0089  0.0000  0.0000  0.0000  0.0000  0.0000 </r>
       </set>
       <set comment="band 2">
        <r>  0.1105  0.0445  0.0030  0.0951  0.0000  0.0000  0.0000  0.0000  0.0000 </r>
       </set>
       <set comment="band 3">
        <r>  0.1641  0.0228  0.0797  0.0008  0.0000  0.0000  0.0000  0.0000  0.0000 </r>
       </set>
       <set comment="band 4">
        <r>  0.1085  0.0666  0.0021  0.1181  0.0000  0.0000  0.0000  0.0000  0.0000 </r>
       </set>
       <set comment="band 5">
        <r>  0.0668  0.0839  0.0016  0.0481  0.0000  0.0000  0.0000  0.0000  0.0000 </r>
       </set>
      </set>
      <set comment="kpoint 50">
       <set comment="band 1">
        <r>  0.1247  0.0447  0.0000  0.0840  0.0000  0.0000  0.0000  0.0000  0.0000 </r>
       </set>
       <set comment="band 2">
        <r>  0.0000  0.0000  0.2203  0.0000  0.0000  0.0000  0.0000  0.0000  0.0000 </r>
       </set>
       <set comment="band 3">
        <r>  0.2269  0.0544  0.0000  0.0103  0.0000  0.0000  0.0000  0.0000  0.0000 </r>
       </set>
       <set comment="band 4">
        <r>  0.0919  0.0443  0.0000  0.1479  0.0000  0.0000  0.0000  0.0000  0.0000 </r>
       </set>
       <set comment="band 5">
        <r>  0.0641  0.1196  0.0000  0.0251  0.0000  0.0000  0.0000  0.0000  0.0000 </r>
       </set>
      </set>
      <set comment="kpoint 51">
       <set comment="band 1">
        <r>  0.0958  0.0037  0.1544  0.0000  0.0000  0.0000  0.0000  0.0000  0.0000 </r>
       </set>
       <set comment="band 2">
        <r>  0.1494  0.0101  0.0855  0.0000  0.0000  0.0000  0.0000  0.0000  0.0000 </r>
       </set>
       <set comment="band 3">
        <r>  0.0000  0.0000  0.0000  0.1842  0.0000  0.0000  0.0000  0.0000  0.0000 </r>
       </set>
       <set comment="band 4">
        <r>  0.1473  0.2014  0.0024  0.0000  0.0000  0.0000  0.0000  0.0000  0.0000 </r>
       </set>
       <set comment="band 5">
        <r>  0.0000  0.0000  0.0000  0.1567  0.0000  0.0000  0.0000  0.0000  0.0000 </r>
       </set>
      </set>
      <set comment="kpoint 52">
       <set comment="band 1">
        <r>  0.0000  0.0000  0.2375  0.0000  0.0000  0.0000  0.0000  0.0000  0.0000 </r>
       </set>
       <set comment="band 2">
        <r>  0.2006  0.0352  0.0000  0.0074  0.0000  0.0000  0.0000  0.0000  0.0000 </r>
       </set>
       <set comment="band 3">
        <r>  0.1021  0.0333  0.0000  0.1227  0.0000  0.0000  0.0000  0.0000  0.0000 </r>
       </set>
       <set comment="band 4">
        <r>  0.1282  0.1081  0.0000  0.0737  0.0000  0.0000  0.0000  0.0000  0.0000 </r>
       </set>
       <set comment="band 5">
        <r>  0.0488  0.0392  0.0000  0.0933  0.0000  0.0000  0.0000  0.0000  0.0000 </r>
       </set>
      </set>
      <set comment="kpoint 53">
       <set comment="band 1">
        <r>  0.1537  0.0201  0.0878  0.0000  0.0000  0.0000  0.0000  0.0000  0.0000 </r>
       </set>
       <set comment="band 2">
        <r>  0.0000  0.0000  0.0000  0.2037  0.0000  0.0000  0.0000  0.0000  0.0000 </r>
       </set>
       <set comment="band 3">
        <r>  0.1365  0.1220  0.0020  0.0000  0.0000  0.0000  0.0000  0.0000  0.0000 </r>
       </set>
       <set comment="band 4">
        <r>  0.1522  0.0040  0.1566  0.0000  0.0000  0.0000  0.0000  0.0000  0.0000 </r>
       </set>
       <set comment="band 5">
        <r>  0.0000  0.0000  0.0000  0.1181  0.0000  0.0000  0.0000  0.0000  0.0000 </r>
       </set>
      </set>
      <set comment="kpoint 54">
       <set comment="band 1">
        <r>  0.1080  0.0297  0.1100  0.0018  0.0000  0.0000  0.0000  0.0000  0.0000 </r>
       </set>
       <set comment="band 2">
        <r>  0.0790  0.0239  0.0003  0.1400  0.0000  0.0000  0.0000  0.0000  0.0000 </r>
       </set>
       <set comment="band 3">
        <r>  0.0544  0.0781  0.0043  0.0624  0.0000  0.0000  0.0000  0.0000  0.0000 </r>
       </set>
       <set comment="band 4">
        <r>  0.2188  0.0057  0.1188  0.0141  0.0000  0.0000  0.0000  0.0000  0.0000 </r>
       </set>
       <set comment="band 5">
        <r>  0.0134  0.1139  0.0094  0.0665  0.0000  0.0000  0.0000  0.0000  0.0000 </r>
       </set>
      </set>
      <set comment="kpoint 55">
       <set comment="band 1">
        <r>  0.0815  0.0146  0.1503  0.0000  0.0000  0.0000  0.0000  0.0000  0.0000 </r>
       </set>
       <set comment="band 2">
        <r>  0.0000  0.0000  0.0000  0.2085  0.0000  0.0000  0.0000  0.0000  0.0000 </r>
       </set>
       <set comment="band 3">
        <r>  0.0747  0.0545  0.0739  0.0000  0.0000  0.0000  0.0000  0.0000  0.0000 </r>
       </set>
       <set comment="band 4">
        <r>  0.3035  0.0795  0.0102  0.0000  0.0000  0.0000  0.0000  0.0000  0.0000 </r>
       </set>
       <set comment="band 5">
        <r>  0.0000  0.0000  0.0000  0.1263  0.0000  0.0000  0.0000  0.0000  0.0000 </r>
       </set>
      </set>
      <set comment="kpoint 56">
       <set comment="band 1">
        <r>  0.0466  0.0369  0.0000  0.1413  0.0000  0.0000  0.0000  0.0000  0.0000 </r>
       </set>
       <set comment="band 2">
        <r>  0.0000  0.0000  0.2257  0.0000  0.0000  0.0000  0.0000  0.0000  0.0000 </r>
       </set>
       <set comment="band 3">
        <r>  0.1886  0.0660  0.0000  0.0044  0.0000  0.0000  0.0000  0.0000  0.0000 </r>
       </set>
       <set comment="band 4">
        <r>  0.2352  0.0349  0.0000  0.0753  0.0000  0.0000  0.0000  0.0000  0.0000 </r>
       </set>
       <set comment="band 5">
        <r>  0.0233  0.0829  0.0000  0.0724  0.0000  0.0000  0.0000  0.0000  0.0000 </r>
       </set>
      </set>
     </set>
    </set>
   </array>
  </projected>
 </calculation>
 <structure name="finalpos" >
  <crystal>
   <varray name="basis" >
    <v>       0.00000000       2.01843671       2.01843671 </v>
    <v>       2.01843671       0.00000000       2.01843671 </v>
    <v>       2.01843671       2.01843671      -0.00000000 </v>
   </varray>
   <i name="volume">     16.44657251 </i>
   <varray name="rec_basis" >
    <v>      -0.24771646       0.24771646       0.24771646 </v>
    <v>       0.24771646      -0.24771646       0.24771646 </v>
    <v>       0.24771646       0.24771646      -0.24771646 </v>
   </varray>
  </crystal>
  <varray name="positions" >
   <v>       0.00000000       0.00000000       0.00000000 </v>
  </varray>
 </structure>
</modeling>
