<?xml version="1.0" encoding="ISO-8859-1"?>
<modeling>
 <generator>
  <i name="program" type="string">vasp </i>
  <i name="version" type="string">5.2.2  </i>
  <i name="subversion" type="string">15Apr09 complex  parallel </i>
  <i name="platform" type="string">unknown </i>
  <i name="date" type="string">2013 09 23 </i>
  <i name="time" type="string">09:41:53 </i>
 </generator>
 <incar>
  <i type="string" name="PREC">accurate</i>
  <i type="string" name="ALGO"> Fast</i>
  <i type="int" name="ISPIN">     1</i>
  <i type="int" name="ICHARG">    11</i>
  <i type="int" name="NELM">   100</i>
  <i type="int" name="IBRION">    -1</i>
  <i name="EDIFF">      0.00010000</i>
  <i type="int" name="NSW">     0</i>
  <i type="int" name="ISIF">     3</i>
  <i type="int" name="ISYM">     0</i>
  <i name="ENCUT">    520.00000000</i>
  <i type="int" name="NBANDS">    15</i>
  <i type="string" name="LREAL"> Auto</i>
  <i type="int" name="ISMEAR">     0</i>
  <i name="SIGMA">      0.00100000</i>
  <i type="logical" name="LWAVE"> F  </i>
  <i type="logical" name="LCHARG"> F  </i>
  <i type="logical" name="LORBIT"> F  </i>
  <i type="int" name="NELM">   100</i>
  <i type="logical" name="LPEAD"> F  </i>
  <i type="logical" name="LCALCPOL"> F  </i>
  <i type="logical" name="LCALCEPS"> F  </i>
  <v name="EFIELD_PEAD">      0.00000000      0.00000000      0.00000000</v>
  <i type="logical" name="LEFG"> F  </i>
 </incar>
 <kpoints>
  <varray name="kpointlist" >
   <v>       0.00000000       0.00000000       0.00000000 </v>
   <v>       0.02173913       0.00000000       0.02173913 </v>
   <v>       0.04347826       0.00000000       0.04347826 </v>
   <v>       0.06521739       0.00000000       0.06521739 </v>
   <v>       0.08695652       0.00000000       0.08695652 </v>
   <v>       0.10869565       0.00000000       0.10869565 </v>
   <v>       0.13043478       0.00000000       0.13043478 </v>
   <v>       0.15217391       0.00000000       0.15217391 </v>
   <v>       0.17391304       0.00000000       0.17391304 </v>
   <v>       0.19565217       0.00000000       0.19565217 </v>
   <v>       0.21739130       0.00000000       0.21739130 </v>
   <v>       0.23913043       0.00000000       0.23913043 </v>
   <v>       0.26086957       0.00000000       0.26086957 </v>
   <v>       0.28260870       0.00000000       0.28260870 </v>
   <v>       0.30434783       0.00000000       0.30434783 </v>
   <v>       0.32608696       0.00000000       0.32608696 </v>
   <v>       0.34782609       0.00000000       0.34782609 </v>
   <v>       0.36956522       0.00000000       0.36956522 </v>
   <v>       0.39130435       0.00000000       0.39130435 </v>
   <v>       0.41304348       0.00000000       0.41304348 </v>
   <v>       0.43478261       0.00000000       0.43478261 </v>
   <v>       0.45652174       0.00000000       0.45652174 </v>
   <v>       0.47826087       0.00000000       0.47826087 </v>
   <v>       0.50000000       0.00000000       0.50000000 </v>
   <v>       0.50000000       0.00000000       0.50000000 </v>
   <v>       0.50000000       0.02083333       0.52083333 </v>
   <v>       0.50000000       0.04166667       0.54166667 </v>
   <v>       0.50000000       0.06250000       0.56250000 </v>
   <v>       0.50000000       0.08333333       0.58333333 </v>
   <v>       0.50000000       0.10416667       0.60416667 </v>
   <v>       0.50000000       0.12500000       0.62500000 </v>
   <v>       0.50000000       0.14583333       0.64583333 </v>
   <v>       0.50000000       0.16666667       0.66666667 </v>
   <v>       0.50000000       0.18750000       0.68750000 </v>
   <v>       0.50000000       0.20833333       0.70833333 </v>
   <v>       0.50000000       0.22916667       0.72916667 </v>
   <v>       0.50000000       0.25000000       0.75000000 </v>
   <v>       0.50000000       0.25000000       0.75000000 </v>
   <v>       0.48611111       0.26388889       0.75000000 </v>
   <v>       0.47222222       0.27777778       0.75000000 </v>
   <v>       0.45833333       0.29166667       0.75000000 </v>
   <v>       0.44444444       0.30555556       0.75000000 </v>
   <v>       0.43055556       0.31944444       0.75000000 </v>
   <v>       0.41666667       0.33333333       0.75000000 </v>
   <v>       0.40277778       0.34722222       0.75000000 </v>
   <v>       0.38888889       0.36111111       0.75000000 </v>
   <v>       0.37500000       0.37500000       0.75000000 </v>
   <v>       0.37500000       0.37500000       0.75000000 </v>
   <v>       0.36000000       0.36000000       0.72000000 </v>
   <v>       0.34500000       0.34500000       0.69000000 </v>
   <v>       0.33000000       0.33000000       0.66000000 </v>
   <v>       0.31500000       0.31500000       0.63000000 </v>
   <v>       0.30000000       0.30000000       0.60000000 </v>
   <v>       0.28500000       0.28500000       0.57000000 </v>
   <v>       0.27000000       0.27000000       0.54000000 </v>
   <v>       0.25500000       0.25500000       0.51000000 </v>
   <v>       0.24000000       0.24000000       0.48000000 </v>
   <v>       0.22500000       0.22500000       0.45000000 </v>
   <v>       0.21000000       0.21000000       0.42000000 </v>
   <v>       0.19500000       0.19500000       0.39000000 </v>
   <v>       0.18000000       0.18000000       0.36000000 </v>
   <v>       0.16500000       0.16500000       0.33000000 </v>
   <v>       0.15000000       0.15000000       0.30000000 </v>
   <v>       0.13500000       0.13500000       0.27000000 </v>
   <v>       0.12000000       0.12000000       0.24000000 </v>
   <v>       0.10500000       0.10500000       0.21000000 </v>
   <v>       0.09000000       0.09000000       0.18000000 </v>
   <v>       0.07500000       0.07500000       0.15000000 </v>
   <v>       0.06000000       0.06000000       0.12000000 </v>
   <v>       0.04500000       0.04500000       0.09000000 </v>
   <v>       0.03000000       0.03000000       0.06000000 </v>
   <v>       0.01500000       0.01500000       0.03000000 </v>
   <v>       0.00000000       0.00000000       0.00000000 </v>
   <v>       0.00000000       0.00000000       0.00000000 </v>
   <v>       0.02500000       0.02500000       0.02500000 </v>
   <v>       0.05000000       0.05000000       0.05000000 </v>
   <v>       0.07500000       0.07500000       0.07500000 </v>
   <v>       0.10000000       0.10000000       0.10000000 </v>
   <v>       0.12500000       0.12500000       0.12500000 </v>
   <v>       0.15000000       0.15000000       0.15000000 </v>
   <v>       0.17500000       0.17500000       0.17500000 </v>
   <v>       0.20000000       0.20000000       0.20000000 </v>
   <v>       0.22500000       0.22500000       0.22500000 </v>
   <v>       0.25000000       0.25000000       0.25000000 </v>
   <v>       0.27500000       0.27500000       0.27500000 </v>
   <v>       0.30000000       0.30000000       0.30000000 </v>
   <v>       0.32500000       0.32500000       0.32500000 </v>
   <v>       0.35000000       0.35000000       0.35000000 </v>
   <v>       0.37500000       0.37500000       0.37500000 </v>
   <v>       0.40000000       0.40000000       0.40000000 </v>
   <v>       0.42500000       0.42500000       0.42500000 </v>
   <v>       0.45000000       0.45000000       0.45000000 </v>
   <v>       0.47500000       0.47500000       0.47500000 </v>
   <v>       0.50000000       0.50000000       0.50000000 </v>
   <v>       0.50000000       0.50000000       0.50000000 </v>
   <v>       0.50833333       0.48333333       0.50833333 </v>
   <v>       0.51666667       0.46666667       0.51666667 </v>
   <v>       0.52500000       0.45000000       0.52500000 </v>
   <v>       0.53333333       0.43333333       0.53333333 </v>
   <v>       0.54166667       0.41666667       0.54166667 </v>
   <v>       0.55000000       0.40000000       0.55000000 </v>
   <v>       0.55833333       0.38333333       0.55833333 </v>
   <v>       0.56666667       0.36666667       0.56666667 </v>
   <v>       0.57500000       0.35000000       0.57500000 </v>
   <v>       0.58333333       0.33333333       0.58333333 </v>
   <v>       0.59166667       0.31666667       0.59166667 </v>
   <v>       0.60000000       0.30000000       0.60000000 </v>
   <v>       0.60833333       0.28333333       0.60833333 </v>
   <v>       0.61666667       0.26666667       0.61666667 </v>
   <v>       0.62500000       0.25000000       0.62500000 </v>
   <v>       0.62500000       0.25000000       0.62500000 </v>
   <v>       0.61111111       0.25000000       0.63888889 </v>
   <v>       0.59722222       0.25000000       0.65277778 </v>
   <v>       0.58333333       0.25000000       0.66666667 </v>
   <v>       0.56944444       0.25000000       0.68055556 </v>
   <v>       0.55555556       0.25000000       0.69444444 </v>
   <v>       0.54166667       0.25000000       0.70833333 </v>
   <v>       0.52777778       0.25000000       0.72222222 </v>
   <v>       0.51388889       0.25000000       0.73611111 </v>
   <v>       0.50000000       0.25000000       0.75000000 </v>
   <v>       0.50000000       0.25000000       0.75000000 </v>
   <v>       0.50000000       0.26470588       0.73529412 </v>
   <v>       0.50000000       0.27941176       0.72058824 </v>
   <v>       0.50000000       0.29411765       0.70588235 </v>
   <v>       0.50000000       0.30882353       0.69117647 </v>
   <v>       0.50000000       0.32352941       0.67647059 </v>
   <v>       0.50000000       0.33823529       0.66176471 </v>
   <v>       0.50000000       0.35294118       0.64705882 </v>
   <v>       0.50000000       0.36764706       0.63235294 </v>
   <v>       0.50000000       0.38235294       0.61764706 </v>
   <v>       0.50000000       0.39705882       0.60294118 </v>
   <v>       0.50000000       0.41176471       0.58823529 </v>
   <v>       0.50000000       0.42647059       0.57352941 </v>
   <v>       0.50000000       0.44117647       0.55882353 </v>
   <v>       0.50000000       0.45588235       0.54411765 </v>
   <v>       0.50000000       0.47058824       0.52941176 </v>
   <v>       0.50000000       0.48529412       0.51470588 </v>
   <v>       0.50000000       0.50000000       0.50000000 </v>
   <v>       0.50000000       0.50000000       0.50000000 </v>
   <v>       0.49166667       0.49166667       0.51666667 </v>
   <v>       0.48333333       0.48333333       0.53333333 </v>
   <v>       0.47500000       0.47500000       0.55000000 </v>
   <v>       0.46666667       0.46666667       0.56666667 </v>
   <v>       0.45833333       0.45833333       0.58333333 </v>
   <v>       0.45000000       0.45000000       0.60000000 </v>
   <v>       0.44166667       0.44166667       0.61666667 </v>
   <v>       0.43333333       0.43333333       0.63333333 </v>
   <v>       0.42500000       0.42500000       0.65000000 </v>
   <v>       0.41666667       0.41666667       0.66666667 </v>
   <v>       0.40833333       0.40833333       0.68333333 </v>
   <v>       0.40000000       0.40000000       0.70000000 </v>
   <v>       0.39166667       0.39166667       0.71666667 </v>
   <v>       0.38333333       0.38333333       0.73333333 </v>
   <v>       0.37500000       0.37500000       0.75000000 </v>
   <v>       0.62500000       0.25000000       0.62500000 </v>
   <v>       0.61111111       0.22222222       0.61111111 </v>
   <v>       0.59722222       0.19444444       0.59722222 </v>
   <v>       0.58333333       0.16666667       0.58333333 </v>
   <v>       0.56944444       0.13888889       0.56944444 </v>
   <v>       0.55555556       0.11111111       0.55555556 </v>
   <v>       0.54166667       0.08333333       0.54166667 </v>
   <v>       0.52777778       0.05555556       0.52777778 </v>
   <v>       0.51388889       0.02777778       0.51388889 </v>
   <v>       0.50000000       0.00000000       0.50000000 </v>
  </varray>
  <varray name="weights" >
   <v>       0.00609756 </v>
   <v>       0.00609756 </v>
   <v>       0.00609756 </v>
   <v>       0.00609756 </v>
   <v>       0.00609756 </v>
   <v>       0.00609756 </v>
   <v>       0.00609756 </v>
   <v>       0.00609756 </v>
   <v>       0.00609756 </v>
   <v>       0.00609756 </v>
   <v>       0.00609756 </v>
   <v>       0.00609756 </v>
   <v>       0.00609756 </v>
   <v>       0.00609756 </v>
   <v>       0.00609756 </v>
   <v>       0.00609756 </v>
   <v>       0.00609756 </v>
   <v>       0.00609756 </v>
   <v>       0.00609756 </v>
   <v>       0.00609756 </v>
   <v>       0.00609756 </v>
   <v>       0.00609756 </v>
   <v>       0.00609756 </v>
   <v>       0.00609756 </v>
   <v>       0.00609756 </v>
   <v>       0.00609756 </v>
   <v>       0.00609756 </v>
   <v>       0.00609756 </v>
   <v>       0.00609756 </v>
   <v>       0.00609756 </v>
   <v>       0.00609756 </v>
   <v>       0.00609756 </v>
   <v>       0.00609756 </v>
   <v>       0.00609756 </v>
   <v>       0.00609756 </v>
   <v>       0.00609756 </v>
   <v>       0.00609756 </v>
   <v>       0.00609756 </v>
   <v>       0.00609756 </v>
   <v>       0.00609756 </v>
   <v>       0.00609756 </v>
   <v>       0.00609756 </v>
   <v>       0.00609756 </v>
   <v>       0.00609756 </v>
   <v>       0.00609756 </v>
   <v>       0.00609756 </v>
   <v>       0.00609756 </v>
   <v>       0.00609756 </v>
   <v>       0.00609756 </v>
   <v>       0.00609756 </v>
   <v>       0.00609756 </v>
   <v>       0.00609756 </v>
   <v>       0.00609756 </v>
   <v>       0.00609756 </v>
   <v>       0.00609756 </v>
   <v>       0.00609756 </v>
   <v>       0.00609756 </v>
   <v>       0.00609756 </v>
   <v>       0.00609756 </v>
   <v>       0.00609756 </v>
   <v>       0.00609756 </v>
   <v>       0.00609756 </v>
   <v>       0.00609756 </v>
   <v>       0.00609756 </v>
   <v>       0.00609756 </v>
   <v>       0.00609756 </v>
   <v>       0.00609756 </v>
   <v>       0.00609756 </v>
   <v>       0.00609756 </v>
   <v>       0.00609756 </v>
   <v>       0.00609756 </v>
   <v>       0.00609756 </v>
   <v>       0.00609756 </v>
   <v>       0.00609756 </v>
   <v>       0.00609756 </v>
   <v>       0.00609756 </v>
   <v>       0.00609756 </v>
   <v>       0.00609756 </v>
   <v>       0.00609756 </v>
   <v>       0.00609756 </v>
   <v>       0.00609756 </v>
   <v>       0.00609756 </v>
   <v>       0.00609756 </v>
   <v>       0.00609756 </v>
   <v>       0.00609756 </v>
   <v>       0.00609756 </v>
   <v>       0.00609756 </v>
   <v>       0.00609756 </v>
   <v>       0.00609756 </v>
   <v>       0.00609756 </v>
   <v>       0.00609756 </v>
   <v>       0.00609756 </v>
   <v>       0.00609756 </v>
   <v>       0.00609756 </v>
   <v>       0.00609756 </v>
   <v>       0.00609756 </v>
   <v>       0.00609756 </v>
   <v>       0.00609756 </v>
   <v>       0.00609756 </v>
   <v>       0.00609756 </v>
   <v>       0.00609756 </v>
   <v>       0.00609756 </v>
   <v>       0.00609756 </v>
   <v>       0.00609756 </v>
   <v>       0.00609756 </v>
   <v>       0.00609756 </v>
   <v>       0.00609756 </v>
   <v>       0.00609756 </v>
   <v>       0.00609756 </v>
   <v>       0.00609756 </v>
   <v>       0.00609756 </v>
   <v>       0.00609756 </v>
   <v>       0.00609756 </v>
   <v>       0.00609756 </v>
   <v>       0.00609756 </v>
   <v>       0.00609756 </v>
   <v>       0.00609756 </v>
   <v>       0.00609756 </v>
   <v>       0.00609756 </v>
   <v>       0.00609756 </v>
   <v>       0.00609756 </v>
   <v>       0.00609756 </v>
   <v>       0.00609756 </v>
   <v>       0.00609756 </v>
   <v>       0.00609756 </v>
   <v>       0.00609756 </v>
   <v>       0.00609756 </v>
   <v>       0.00609756 </v>
   <v>       0.00609756 </v>
   <v>       0.00609756 </v>
   <v>       0.00609756 </v>
   <v>       0.00609756 </v>
   <v>       0.00609756 </v>
   <v>       0.00609756 </v>
   <v>       0.00609756 </v>
   <v>       0.00609756 </v>
   <v>       0.00609756 </v>
   <v>       0.00609756 </v>
   <v>       0.00609756 </v>
   <v>       0.00609756 </v>
   <v>       0.00609756 </v>
   <v>       0.00609756 </v>
   <v>       0.00609756 </v>
   <v>       0.00609756 </v>
   <v>       0.00609756 </v>
   <v>       0.00609756 </v>
   <v>       0.00609756 </v>
   <v>       0.00609756 </v>
   <v>       0.00609756 </v>
   <v>       0.00609756 </v>
   <v>       0.00609756 </v>
   <v>       0.00609756 </v>
   <v>       0.00609756 </v>
   <v>       0.00609756 </v>
   <v>       0.00609756 </v>
   <v>       0.00609756 </v>
   <v>       0.00609756 </v>
   <v>       0.00609756 </v>
   <v>       0.00609756 </v>
   <v>       0.00609756 </v>
   <v>       0.00609756 </v>
   <v>       0.00609756 </v>
   <v>       0.00609756 </v>
   <v>       0.00609756 </v>
  </varray>
 </kpoints>
 <parameters>
  <separator name="general" >
   <i type="string" name="SYSTEM">unknown system</i>
   <i type="logical" name="LCOMPAT"> F  </i>
  </separator>
  <separator name="electronic" >
   <i type="string" name="PREC">accura</i>
   <i name="ENMAX">    520.00000000</i>
   <i name="ENAUG">    322.06900000</i>
   <i name="EDIFF">      0.00010000</i>
   <i type="int" name="IALGO">    68</i>
   <i type="int" name="IWAVPR">    10</i>
   <i type="int" name="NBANDS">    16</i>
   <i name="NELECT">      8.00000000</i>
   <separator name="electronic smearing" >
    <i type="int" name="ISMEAR">     0</i>
    <i name="SIGMA">      0.00100000</i>
   </separator>
   <separator name="electronic projectors" >
    <i type="logical" name="LREAL"> T  </i>
    <v name="ROPT">     -0.00025000</v>
    <i type="int" name="LMAXPAW">  -100</i>
    <i type="int" name="LMAXMIX">     2</i>
   </separator>
   <separator name="electronic startup" >
    <i type="int" name="ISTART">     0</i>
    <i type="int" name="ICHARG">    11</i>
    <i type="int" name="INIWAV">     1</i>
   </separator>
   <separator name="electronic spin" >
    <i type="int" name="ISPIN">     1</i>
    <i type="logical" name="LNONCOLLINEAR"> F  </i>
    <v name="MAGMOM">      1.00000000      1.00000000</v>
    <i name="NUPDOWN">     -1.00000000</i>
    <i type="logical" name="LSORBIT"> F  </i>
    <v name="SAXIS">      0.00000000      0.00000000      1.00000000</v>
    <i type="logical" name="LSPIRAL"> F  </i>
    <v name="QSPIRAL">      0.00000000      0.00000000      0.00000000</v>
    <i type="logical" name="LZEROZ"> F  </i>
   </separator>
   <separator name="electronic exchange-correlation" >
    <i type="logical" name="LASPH"> F  </i>
    <i type="logical" name="LMETAGGA"> F  </i>
   </separator>
   <separator name="electronic convergence" >
    <i type="int" name="NELM">   100</i>
    <i type="int" name="NELMDL">    -5</i>
    <i type="int" name="NELMIN">     2</i>
    <i name="ENINI">    520.00000000</i>
    <separator name="electronic convergence detail" >
     <i type="logical" name="LDIAG"> T  </i>
     <i name="WEIMIN">      0.00000000</i>
     <i name="EBREAK">      0.00000167</i>
     <i name="DEPER">      0.30000000</i>
     <i type="int" name="NRMM">     4</i>
     <i name="TIME">      0.40000000</i>
    </separator>
   </separator>
   <separator name="electronic mixer" >
    <i name="AMIX">      0.40000000</i>
    <i name="BMIX">      1.00000000</i>
    <i name="AMIN">      0.10000000</i>
    <i name="AMIX_MAG">      1.60000000</i>
    <i name="BMIX_MAG">      1.00000000</i>
    <separator name="electronic mixer details" >
     <i type="int" name="IMIX">     4</i>
     <i type="int" name="MAXMIX">   -45</i>
     <i name="WC">    100.00000000</i>
     <i type="int" name="INIMIX">     1</i>
     <i type="int" name="MIXPRE">     1</i>
     <i type="int" name="MREMOVE">     5</i>
    </separator>
   </separator>
   <separator name="electronic dipolcorrection" >
    <i type="logical" name="LDIPOL"> F  </i>
    <i type="logical" name="LMONO"> F  </i>
    <i type="int" name="IDIPOL">     0</i>
    <i name="EPSILON">      1.00000000</i>
    <v name="DIPOL">   -100.00000000   -100.00000000   -100.00000000</v>
    <i name="EFIELD">      0.00000000</i>
   </separator>
  </separator>
  <separator name="grids" >
   <i type="int" name="NGX">    30</i>
   <i type="int" name="NGY">    30</i>
   <i type="int" name="NGZ">    30</i>
   <i type="int" name="NGXF">    60</i>
   <i type="int" name="NGYF">    60</i>
   <i type="int" name="NGZF">    60</i>
   <i type="logical" name="ADDGRID"> F  </i>
  </separator>
  <separator name="ionic" >
   <i type="int" name="NSW">     0</i>
   <i type="int" name="IBRION">    -1</i>
   <i type="int" name="ISIF">     3</i>
   <i name="PSTRESS">      0.00000000</i>
   <i name="EDIFFG">      0.00100000</i>
   <i type="int" name="NFREE">     0</i>
   <i name="POTIM">      0.50000000</i>
   <i name="SMASS">     -3.00000000</i>
  </separator>
  <separator name="ionic md" >
   <i name="TEBEG">      0.00010000</i>
   <i name="TEEND">      0.00010000</i>
   <i type="int" name="NBLOCK">     1</i>
   <i type="int" name="KBLOCK">     1</i>
   <i type="int" name="NPACO">   256</i>
   <i name="APACO">     16.00000000</i>
  </separator>
  <separator name="symmetry" >
   <i type="int" name="ISYM">     0</i>
   <i name="SYMPREC">      0.00001000</i>
  </separator>
  <separator name="dos" >
   <i type="logical" name="LORBIT"> T  </i>
   <v name="RWIGS">     -1.00000000</v>
   <i type="int" name="NEDOS">   301</i>
   <i name="EMIN">     10.00000000</i>
   <i name="EMAX">    -10.00000000</i>
   <i name="EFERMI">      0.00000000</i>
  </separator>
  <separator name="writing" >
   <i type="int" name="NWRITE">     2</i>
   <i type="logical" name="LWAVE"> F  </i>
   <i type="logical" name="LCHARG"> F  </i>
   <i type="logical" name="LPARD"> F  </i>
   <i type="logical" name="LVTOT"> F  </i>
   <i type="logical" name="LELF"> F  </i>
   <i type="logical" name="LOPTICS"> F  </i>
   <v name="STM">      0.00000000      0.00000000      0.00000000      0.00000000      0.00000000</v>
  </separator>
  <separator name="performance" >
   <i type="int" name="NPAR">     2</i>
   <i type="int" name="NSIM">     4</i>
   <i type="int" name="NBLK">    32</i>
   <i type="logical" name="LPLANE"> T  </i>
   <i type="logical" name="LSCALAPACK"> F  </i>
   <i type="logical" name="LSCAAWARE"> F  </i>
   <i type="logical" name="LSCALU"> F  </i>
   <i type="logical" name="LASYNC"> F  </i>
  </separator>
  <separator name="miscellaneous" >
   <i type="int" name="IDIOT">     3</i>
   <i type="logical" name="LMUSIC"> F  </i>
   <v name="POMASS">     28.08500000</v>
   <i type="logical" name="LCORR"> T  </i>
  </separator>
  <i type="logical" name="LREAL_COMPAT"> F  </i>
  <i type="logical" name="GGA_COMPAT"> T  </i>
  <i type="logical" name="LBERRY"> F  </i>
  <i type="int" name="ICORELEVEL">     0</i>
  <i type="logical" name="LDAU"> F  </i>
  <i type="int" name="I_CONSTRAINED_M">     0</i>
  <separator name="electronic exchange-correlation" >
   <i type="string" name="GGA">--</i>
   <i type="int" name="VOSKOWN">     0</i>
   <i type="logical" name="LHFCALC"> F  </i>
   <i type="logical" name="LHFONE"> F  </i>
   <i type="logical" name="LRHFCALC"> F  </i>
   <i type="logical" name="LTHOMAS"> F  </i>
   <i type="logical" name="LMODELHF"> F  </i>
   <i name="ENCUTFOCK">      0.00000000</i>
   <i name="ENCUT4O">     -1.00000000</i>
   <i type="int" name="EXXOEP">     0</i>
   <i type="int" name="FOURORBIT">     0</i>
   <i name="AEXX">      0.00000000</i>
   <i name="HFALPHA">      0.00000000</i>
   <i name="ALDAX">      1.00000000</i>
   <i name="AGGAX">      1.00000000</i>
   <i name="ALDAC">      1.00000000</i>
   <i name="AGGAC">      1.00000000</i>
   <i type="int" name="NKREDX">     1</i>
   <i type="int" name="NKREDY">     1</i>
   <i type="int" name="NKREDZ">     1</i>
   <i type="logical" name="SHIFTRED"> F  </i>
   <i type="logical" name="ODDONLY"> F  </i>
   <i type="logical" name="EVENONLY"> F  </i>
   <i type="int" name="LMAXFOCK">     0</i>
   <i type="int" name="NMAXFOCKAE">     0</i>
   <i name="HFSCREEN">      0.00000000</i>
   <i name="HFSCREENC">      0.00000000</i>
  </separator>
  <separator name="model GW" >
   <i type="int" name="MODEL_GW">     0</i>
   <i name="MODEL_EPS0">     12.27197960</i>
   <i name="MODEL_ALPHA">      1.00000000</i>
  </separator>
  <separator name="linear response parameters" >
   <i type="logical" name="LEPSILON"> F  </i>
   <i type="logical" name="LRPA"> F  </i>
   <i type="logical" name="LNABLA"> F  </i>
   <i type="logical" name="LVEL"> F  </i>
   <i type="int" name="KINTER">     0</i>
   <i name="CSHIFT">      0.10000000</i>
   <i name="OMEGAMAX">     -1.00000000</i>
  </separator>
  <separator name="orbital magnetization" >
   <i type="logical" name="ORBITALMAG"> F  </i>
   <i type="logical" name="LMAGBLOCH"> F  </i>
   <i type="logical" name="LCHIMAG"> F  </i>
   <i type="logical" name="LGAUGE"> T  </i>
   <i type="int" name="MAGATOM">     0</i>
   <v name="MAGDIPOL">      0.00000000      0.00000000      0.00000000</v>
   <v name="AVECCONST">      0.00000000      0.00000000      0.00000000</v>
  </separator>
  <separator name="response functions" >
   <i type="logical" name="LRPA"> T  </i>
   <i type="logical" name="LTCTE"> F  </i>
   <i type="logical" name="LTETE"> F  </i>
   <i type="logical" name="L2ORDER"> F  </i>
   <i type="logical" name="LGWLF"> F  </i>
   <i name="ENCUTGW">    346.66666667</i>
   <i name="ENCUTGWSOFT">     -2.00000000</i>
   <i name="ENCUTLF">     -1.00000000</i>
   <i type="int" name="LMAXMP2">    -1</i>
   <i name="SCISSOR">      0.00000000</i>
   <i type="int" name="NOMEGA">     0</i>
   <i type="int" name="NOMEGAR">     0</i>
   <i type="int" name="NBANDSGW">    -1</i>
   <i type="int" name="NBANDSLF">    -1</i>
   <i type="int" name="NELM">   100</i>
   <i type="int" name="DIM">     3</i>
   <i type="int" name="ANTIRES">     0</i>
   <i type="logical" name="LUSEW"> F  </i>
   <i name="OMEGAMAX">    -30.00000000</i>
   <i name="OMEGATL">   -200.00000000</i>
   <i type="int" name="OMEGAGRID">     0</i>
   <i name="CSHIFT">     -0.10000000</i>
   <i type="logical" name="SELFENERGY"> F  </i>
   <i type="logical" name="LSPECTRAL"> F  </i>
   <i type="logical" name="ODDONLYGW"> F  </i>
   <i type="logical" name="EVENONLYGW"> F  </i>
   <i type="int" name="NKREDLFX">     1</i>
   <i type="int" name="NKREDLFY">     1</i>
   <i type="int" name="NKREDLFZ">     1</i>
   <i type="int" name="MAXMEM">  1024</i>
   <i type="int" name="TELESCOPE">     0</i>
  </separator>
 </parameters>
 <atominfo>
  <atoms>       2 </atoms>
  <types>       1 </types>
  <array name="atoms" >
   <dimension dim="1">ion</dimension>
   <field type="string">element</field>
   <field type="int">atomtype</field>
   <set>
    <rc><c>Si</c><c>   1</c></rc>
    <rc><c>Si</c><c>   1</c></rc>
   </set>
  </array>
  <array name="atomtypes" >
   <dimension dim="1">type</dimension>
   <field type="int">atomspertype</field>
   <field type="string">element</field>
   <field>mass</field>
   <field>valence</field>
   <field type="string">pseudopotential</field>
   <set>
    <rc><c>   2</c><c>Si</c><c>     28.08500000</c><c>      4.00000000</c><c> PAW_PBE Si 05Jan2001                   </c></rc>
   </set>
  </array>
 </atominfo>
 <structure name="initialpos" >
  <crystal>
   <varray name="basis" >
    <v>       0.00000000       2.73477200       2.73477200 </v>
    <v>       2.73477200       0.00000000       2.73477200 </v>
    <v>       2.73477200       2.73477200       0.00000000 </v>
   </varray>
   <i name="volume">     40.90659866 </i>
   <varray name="rec_basis" >
    <v>      -0.18283060       0.18283060       0.18283060 </v>
    <v>       0.18283060      -0.18283060       0.18283060 </v>
    <v>       0.18283060       0.18283060      -0.18283060 </v>
   </varray>
  </crystal>
  <varray name="positions" >
   <v>       0.00000000       0.00000000       0.00000000 </v>
   <v>       0.25000000       0.25000000       0.25000000 </v>
  </varray>
 </structure>
 <calculation>
  <scstep>
   <time name="dav">    4.33    4.44</time>
   <time name="total">    4.51    4.64</time>
   <energy>
    <i name="alphaZ">      3.29170154 </i>
    <i name="ewald">   -226.91104420 </i>
    <i name="hartreedc">    -15.17533739 </i>
    <i name="XCdc">    -18.06286518 </i>
    <i name="pawpsdc">     73.59749770 </i>
    <i name="pawaedc">    -38.61577854 </i>
    <i name="eentropy">      0.00000000 </i>
    <i name="bandstr">     22.86287947 </i>
    <i name="atom">    206.13270273 </i>
    <i name="e_fr_energy">      7.11975613 </i>
    <i name="e_wo_entrp">      7.11975613 </i>
    <i name="e_0_energy">      7.11975613 </i>
   </energy>
  </scstep>
  <scstep>
   <time name="dav">    5.40    5.43</time>
   <time name="total">    5.43    5.46</time>
   <energy>
    <i name="e_fr_energy">     -9.19962013 </i>
    <i name="e_wo_entrp">     -9.19962013 </i>
    <i name="e_0_energy">     -9.19962013 </i>
   </energy>
  </scstep>
  <scstep>
   <time name="dav">    5.31    5.32</time>
   <time name="total">    5.33    5.34</time>
   <energy>
    <i name="e_fr_energy">     -9.72003474 </i>
    <i name="e_wo_entrp">     -9.72003474 </i>
    <i name="e_0_energy">     -9.72003474 </i>
   </energy>
  </scstep>
  <scstep>
   <time name="dav">    5.22    5.23</time>
   <time name="total">    5.22    5.24</time>
   <energy>
    <i name="e_fr_energy">     -9.72293815 </i>
    <i name="e_wo_entrp">     -9.72293815 </i>
    <i name="e_0_energy">     -9.72293815 </i>
   </energy>
  </scstep>
  <scstep>
   <time name="dav">    5.71    5.73</time>
   <time name="total">    5.72    5.73</time>
   <energy>
    <i name="e_fr_energy">     -9.72296246 </i>
    <i name="e_wo_entrp">     -9.72296246 </i>
    <i name="e_0_energy">     -9.72296246 </i>
   </energy>
  </scstep>
  <scstep>
   <time name="diag">    0.71    0.71</time>
   <time name="diis">    1.89    1.90</time>
   <time name="orth">    0.08    0.08</time>
   <time name="total">    2.68    2.69</time>
   <energy>
    <i name="alphaZ">      3.29170154 </i>
    <i name="ewald">   -226.91104420 </i>
    <i name="hartreedc">    -15.17533739 </i>
    <i name="XCdc">    -18.06286518 </i>
    <i name="pawpsdc">     73.59749770 </i>
    <i name="pawaedc">    -38.61577854 </i>
    <i name="eentropy">      0.00000000 </i>
    <i name="bandstr">      6.02016066 </i>
    <i name="atom">    206.13270273 </i>
    <i name="e_fr_energy">     -9.72296268 </i>
    <i name="e_wo_entrp">     -9.72296268 </i>
    <i name="e_0_energy">     -9.72296268 </i>
   </energy>
  </scstep>
  <structure>
   <crystal>
    <varray name="basis" >
     <v>       0.00000000       2.73477200       2.73477200 </v>
     <v>       2.73477200       0.00000000       2.73477200 </v>
     <v>       2.73477200       2.73477200       0.00000000 </v>
    </varray>
    <i name="volume">     40.90659866 </i>
    <varray name="rec_basis" >
     <v>      -0.18283060       0.18283060       0.18283060 </v>
     <v>       0.18283060      -0.18283060       0.18283060 </v>
     <v>       0.18283060       0.18283060      -0.18283060 </v>
    </varray>
   </crystal>
   <varray name="positions" >
    <v>       0.00000000       0.00000000       0.00000000 </v>
    <v>       0.25000000       0.25000000       0.25000000 </v>
   </varray>
  </structure>
  <varray name="forces" >
   <v>       0.02857502      -0.04644999      -0.29611206 </v>
   <v>      -0.52857502       0.54644999       0.29611206 </v>
  </varray>
  <varray name="stress" >
   <v>      10.45935959     -41.89917693     -57.12597883 </v>
   <v>     -41.89917986      34.38183520     -38.65087545 </v>
   <v>     -57.12597611     -38.65087823      80.26919411 </v>
  </varray>
  <energy>
   <i name="e_fr_energy">     -9.72296268 </i>
   <i name="e_wo_entrp">     -9.72296268 </i>
   <i name="e_0_energy">      0.00000000 </i>
  </energy>
  <time name="totalsc">   34.50   34.76</time>
  <eigenvalues>
   <array>
    <dimension dim="1">band</dimension>
    <dimension dim="2">kpoint</dimension>
    <dimension dim="3">spin</dimension>
    <field>eigene</field>
    <field>occ</field>
    <set>
     <set comment="spin 1">
      <set comment="kpoint 1">
       <r>   -6.2006    1.0000 </r>
       <r>    5.6112    1.0000 </r>
       <r>    5.6112    1.0000 </r>
       <r>    5.6112    1.0000 </r>
       <r>    8.1681    0.0000 </r>
       <r>    8.1681    0.0000 </r>
       <r>    8.1681    0.0000 </r>
       <r>    8.7400    0.0000 </r>
       <r>   13.3204    0.0000 </r>
       <r>   13.3204    0.0000 </r>
       <r>   13.4874    0.0000 </r>
       <r>   16.7924    0.0000 </r>
       <r>   16.7924    0.0000 </r>
       <r>   16.7924    0.0000 </r>
       <r>   20.8829    0.0000 </r>
       <r>   28.4619    0.0000 </r>
      </set>
      <set comment="kpoint 2">
       <r>   -6.1925    1.0000 </r>
       <r>    5.5525    1.0000 </r>
       <r>    5.5766    1.0000 </r>
       <r>    5.5766    1.0000 </r>
       <r>    8.1479    0.0000 </r>
       <r>    8.2128    0.0000 </r>
       <r>    8.2128    0.0000 </r>
       <r>    8.7976    0.0000 </r>
       <r>   13.2537    0.0000 </r>
       <r>   13.3294    0.0000 </r>
       <r>   13.5238    0.0000 </r>
       <r>   16.8066    0.0000 </r>
       <r>   16.8066    0.0000 </r>
       <r>   16.8392    0.0000 </r>
       <r>   20.9423    0.0000 </r>
       <r>   28.3936    0.0000 </r>
      </set>
      <set comment="kpoint 3">
       <r>   -6.1681    1.0000 </r>
       <r>    5.3883    1.0000 </r>
       <r>    5.4797    1.0000 </r>
       <r>    5.4797    1.0000 </r>
       <r>    8.0892    0.0000 </r>
       <r>    8.3397    0.0000 </r>
       <r>    8.3397    0.0000 </r>
       <r>    8.9566    0.0000 </r>
       <r>   13.0702    0.0000 </r>
       <r>   13.3565    0.0000 </r>
       <r>   13.6310    0.0000 </r>
       <r>   16.8492    0.0000 </r>
       <r>   16.8492    0.0000 </r>
       <r>   16.9663    0.0000 </r>
       <r>   21.1186    0.0000 </r>
       <r>   27.9790    0.0000 </r>
      </set>
      <set comment="kpoint 4">
       <r>   -6.1275    1.0000 </r>
       <r>    5.1454    1.0000 </r>
       <r>    5.3362    1.0000 </r>
       <r>    5.3362    1.0000 </r>
       <r>    7.9968    0.0000 </r>
       <r>    8.5332    0.0000 </r>
       <r>    8.5332    0.0000 </r>
       <r>    9.1847    0.0000 </r>
       <r>   12.8091    0.0000 </r>
       <r>   13.4016    0.0000 </r>
       <r>   13.8038    0.0000 </r>
       <r>   16.9202    0.0000 </r>
       <r>   16.9202    0.0000 </r>
       <r>   17.1453    0.0000 </r>
       <r>   21.4060    0.0000 </r>
       <r>   27.5103    0.0000 </r>
      </set>
      <set comment="kpoint 5">
       <r>   -6.0707    1.0000 </r>
       <r>    4.8497    1.0000 </r>
       <r>    5.1628    1.0000 </r>
       <r>    5.1628    1.0000 </r>
       <r>    7.8778    0.0000 </r>
       <r>    8.7762    0.0000 </r>
       <r>    8.7762    0.0000 </r>
       <r>    9.4434    0.0000 </r>
       <r>   12.5171    0.0000 </r>
       <r>   13.4647    0.0000 </r>
       <r>   14.0352    0.0000 </r>
       <r>   17.0192    0.0000 </r>
       <r>   17.0192    0.0000 </r>
       <r>   17.3511    0.0000 </r>
       <r>   21.7941    0.0000 </r>
       <r>   26.9717    0.0000 </r>
      </set>
      <set comment="kpoint 6">
       <r>   -5.9978    1.0000 </r>
       <r>    4.5203    1.0000 </r>
       <r>    4.9728    1.0000 </r>
       <r>    4.9728    1.0000 </r>
       <r>    7.7394    0.0000 </r>
       <r>    9.0554    0.0000 </r>
       <r>    9.0554    0.0000 </r>
       <r>    9.6882    0.0000 </r>
       <r>   12.2461    0.0000 </r>
       <r>   13.5459    0.0000 </r>
       <r>   14.3172    0.0000 </r>
       <r>   17.1459    0.0000 </r>
       <r>   17.1459    0.0000 </r>
       <r>   17.5689    0.0000 </r>
       <r>   22.2693    0.0000 </r>
       <r>   26.4057    0.0000 </r>
      </set>
      <set comment="kpoint 7">
       <r>   -5.9089    1.0000 </r>
       <r>    4.1694    1.0000 </r>
       <r>    4.7756    1.0000 </r>
       <r>    4.7756    1.0000 </r>
       <r>    7.5886    0.0000 </r>
       <r>    9.3609    0.0000 </r>
       <r>    9.3609    0.0000 </r>
       <r>    9.8598    0.0000 </r>
       <r>   12.0615    0.0000 </r>
       <r>   13.6450    0.0000 </r>
       <r>   14.6422    0.0000 </r>
       <r>   17.2997    0.0000 </r>
       <r>   17.2997    0.0000 </r>
       <r>   17.7937    0.0000 </r>
       <r>   22.8155    0.0000 </r>
       <r>   25.8291    0.0000 </r>
      </set>
      <set comment="kpoint 8">
       <r>   -5.8040    1.0000 </r>
       <r>    3.8049    1.0000 </r>
       <r>    4.5775    1.0000 </r>
       <r>    4.5775    1.0000 </r>
       <r>    7.4317    0.0000 </r>
       <r>    9.6864    0.0000 </r>
       <r>    9.6864    0.0000 </r>
       <r>    9.8910    0.0000 </r>
       <r>   12.0347    0.0000 </r>
       <r>   13.7622    0.0000 </r>
       <r>   15.0032    0.0000 </r>
       <r>   17.4796    0.0000 </r>
       <r>   17.4796    0.0000 </r>
       <r>   18.0257    0.0000 </r>
       <r>   23.4164    0.0000 </r>
       <r>   25.2472    0.0000 </r>
      </set>
      <set comment="kpoint 9">
       <r>   -5.6833    1.0000 </r>
       <r>    3.4315    1.0000 </r>
       <r>    4.3828    1.0000 </r>
       <r>    4.3828    1.0000 </r>
       <r>    7.2736    0.0000 </r>
       <r>    9.7618    0.0000 </r>
       <r>   10.0270    0.0000 </r>
       <r>   10.0270    0.0000 </r>
       <r>   12.1889    0.0000 </r>
       <r>   13.8973    0.0000 </r>
       <r>   15.3939    0.0000 </r>
       <r>   17.6839    0.0000 </r>
       <r>   17.6839    0.0000 </r>
       <r>   18.2675    0.0000 </r>
       <r>   24.0590    0.0000 </r>
       <r>   24.6731    0.0000 </r>
      </set>
      <set comment="kpoint 10">
       <r>   -5.5469    1.0000 </r>
       <r>    3.0525    1.0000 </r>
       <r>    4.1944    1.0000 </r>
       <r>    4.1944    1.0000 </r>
       <r>    7.1184    0.0000 </r>
       <r>    9.5201    0.0000 </r>
       <r>   10.3796    0.0000 </r>
       <r>   10.3796    0.0000 </r>
       <r>   12.4782    0.0000 </r>
       <r>   14.0504    0.0000 </r>
       <r>   15.8083    0.0000 </r>
       <r>   17.9097    0.0000 </r>
       <r>   17.9097    0.0000 </r>
       <r>   18.5226    0.0000 </r>
       <r>   24.1141    0.0000 </r>
       <r>   24.1321    0.0000 </r>
      </set>
      <set comment="kpoint 11">
       <r>   -5.3950    1.0000 </r>
       <r>    2.6700    1.0000 </r>
       <r>    4.0145    1.0000 </r>
       <r>    4.0145    1.0000 </r>
       <r>    6.9695    0.0000 </r>
       <r>    9.2232    0.0000 </r>
       <r>   10.7418    0.0000 </r>
       <r>   10.7418    0.0000 </r>
       <r>   12.8468    0.0000 </r>
       <r>   14.2214    0.0000 </r>
       <r>   16.2409    0.0000 </r>
       <r>   18.1521    0.0000 </r>
       <r>   18.1521    0.0000 </r>
       <r>   18.7941    0.0000 </r>
       <r>   23.5730    0.0000 </r>
       <r>   23.5737    0.0000 </r>
      </set>
      <set comment="kpoint 12">
       <r>   -5.2278    1.0000 </r>
       <r>    2.2854    1.0000 </r>
       <r>    3.8445    1.0000 </r>
       <r>    3.8445    1.0000 </r>
       <r>    6.8295    0.0000 </r>
       <r>    8.9066    0.0000 </r>
       <r>   11.1120    0.0000 </r>
       <r>   11.1120    0.0000 </r>
       <r>   13.2595    0.0000 </r>
       <r>   14.4103    0.0000 </r>
       <r>   16.6855    0.0000 </r>
       <r>   18.4029    0.0000 </r>
       <r>   18.4029    0.0000 </r>
       <r>   19.0849    0.0000 </r>
       <r>   23.0647    0.0000 </r>
       <r>   23.0648    0.0000 </r>
      </set>
      <set comment="kpoint 13">
       <r>   -5.0454    1.0000 </r>
       <r>    1.9000    1.0000 </r>
       <r>    3.6856    1.0000 </r>
       <r>    3.6856    1.0000 </r>
       <r>    6.7005    0.0000 </r>
       <r>    8.5896    0.0000 </r>
       <r>   11.4887    0.0000 </r>
       <r>   11.4887    0.0000 </r>
       <r>   13.6970    0.0000 </r>
       <r>   14.6170    0.0000 </r>
       <r>   17.1350    0.0000 </r>
       <r>   18.6472    0.0000 </r>
       <r>   18.6472    0.0000 </r>
       <r>   19.3975    0.0000 </r>
       <r>   22.6035    0.0000 </r>
       <r>   22.6037    0.0000 </r>
      </set>
      <set comment="kpoint 14">
       <r>   -4.8481    1.0000 </r>
       <r>    1.5147    1.0000 </r>
       <r>    3.5386    1.0000 </r>
       <r>    3.5386    1.0000 </r>
       <r>    6.5843    0.0000 </r>
       <r>    8.2826    0.0000 </r>
       <r>   11.8712    0.0000 </r>
       <r>   11.8712    0.0000 </r>
       <r>   14.1482    0.0000 </r>
       <r>   14.8415    0.0000 </r>
       <r>   17.5806    0.0000 </r>
       <r>   18.8584    0.0000 </r>
       <r>   18.8584    0.0000 </r>
       <r>   19.7338    0.0000 </r>
       <r>   22.2166    0.0000 </r>
       <r>   22.2171    0.0000 </r>
      </set>
      <set comment="kpoint 15">
       <r>   -4.6362    1.0000 </r>
       <r>    1.1305    1.0000 </r>
       <r>    3.4042    1.0000 </r>
       <r>    3.4042    1.0000 </r>
       <r>    6.4823    0.0000 </r>
       <r>    7.9915    0.0000 </r>
       <r>   12.2587    0.0000 </r>
       <r>   12.2587    0.0000 </r>
       <r>   14.6062    0.0000 </r>
       <r>   15.0838    0.0000 </r>
       <r>   18.0106    0.0000 </r>
       <r>   18.9928    0.0000 </r>
       <r>   18.9928    0.0000 </r>
       <r>   20.0953    0.0000 </r>
       <r>   21.9479    0.0000 </r>
       <r>   21.9480    0.0000 </r>
      </set>
      <set comment="kpoint 16">
       <r>   -4.4100    1.0000 </r>
       <r>    0.7482    1.0000 </r>
       <r>    3.2829    1.0000 </r>
       <r>    3.2829    1.0000 </r>
       <r>    6.3958    0.0000 </r>
       <r>    7.7197    0.0000 </r>
       <r>   12.6507    0.0000 </r>
       <r>   12.6507    0.0000 </r>
       <r>   15.0660    0.0000 </r>
       <r>   15.3438    0.0000 </r>
       <r>   18.4087    0.0000 </r>
       <r>   18.9979    0.0000 </r>
       <r>   18.9979    0.0000 </r>
       <r>   20.4832    0.0000 </r>
       <r>   21.8335    0.0000 </r>
       <r>   21.8502    0.0000 </r>
      </set>
      <set comment="kpoint 17">
       <r>   -4.1698    1.0000 </r>
       <r>    0.3687    1.0000 </r>
       <r>    3.1751    1.0000 </r>
       <r>    3.1751    1.0000 </r>
       <r>    6.3257    0.0000 </r>
       <r>    7.4693    0.0000 </r>
       <r>   13.0467    0.0000 </r>
       <r>   13.0467    0.0000 </r>
       <r>   15.5240    0.0000 </r>
       <r>   15.6215    0.0000 </r>
       <r>   18.7535    0.0000 </r>
       <r>   18.8494    0.0000 </r>
       <r>   18.8494    0.0000 </r>
       <r>   20.8980    0.0000 </r>
       <r>   21.3037    0.0000 </r>
       <r>   21.9474    0.0000 </r>
      </set>
      <set comment="kpoint 18">
       <r>   -3.9160    1.0000 </r>
       <r>   -0.0071    1.0000 </r>
       <r>    3.0812    1.0000 </r>
       <r>    3.0812    1.0000 </r>
       <r>    6.2731    0.0000 </r>
       <r>    7.2415    0.0000 </r>
       <r>   13.4462    0.0000 </r>
       <r>   13.4462    0.0000 </r>
       <r>   15.9168    0.0000 </r>
       <r>   15.9769    0.0000 </r>
       <r>   18.5754    0.0000 </r>
       <r>   18.5754    0.0000 </r>
       <r>   19.0190    0.0000 </r>
       <r>   20.7920    0.0000 </r>
       <r>   21.3394    0.0000 </r>
       <r>   22.2112    0.0000 </r>
      </set>
      <set comment="kpoint 19">
       <r>   -3.6489    1.0000 </r>
       <r>   -0.3782    1.0000 </r>
       <r>    3.0013    1.0000 </r>
       <r>    3.0013    1.0000 </r>
       <r>    6.2386    0.0000 </r>
       <r>    7.0370    0.0000 </r>
       <r>   13.8482    0.0000 </r>
       <r>   13.8482    0.0000 </r>
       <r>   16.2295    0.0000 </r>
       <r>   16.4218    0.0000 </r>
       <r>   18.2241    0.0000 </r>
       <r>   18.2241    0.0000 </r>
       <r>   19.1798    0.0000 </r>
       <r>   20.2955    0.0000 </r>
       <r>   21.8065    0.0000 </r>
       <r>   22.5930    0.0000 </r>
      </set>
      <set comment="kpoint 20">
       <r>   -3.3692    1.0000 </r>
       <r>   -0.7439    1.0000 </r>
       <r>    2.9356    1.0000 </r>
       <r>    2.9356    1.0000 </r>
       <r>    6.2231    0.0000 </r>
       <r>    6.8560    0.0000 </r>
       <r>   14.2512    0.0000 </r>
       <r>   14.2512    0.0000 </r>
       <r>   16.5598    0.0000 </r>
       <r>   16.8561    0.0000 </r>
       <r>   17.8336    0.0000 </r>
       <r>   17.8336    0.0000 </r>
       <r>   19.2208    0.0000 </r>
       <r>   19.8146    0.0000 </r>
       <r>   22.2967    0.0000 </r>
       <r>   23.0552    0.0000 </r>
      </set>
      <set comment="kpoint 21">
       <r>   -3.0772    1.0000 </r>
       <r>   -1.1031    1.0000 </r>
       <r>    2.8844    1.0000 </r>
       <r>    2.8844    1.0000 </r>
       <r>    6.2273    0.0000 </r>
       <r>    6.6985    0.0000 </r>
       <r>   14.6514    0.0000 </r>
       <r>   14.6514    0.0000 </r>
       <r>   16.9073    0.0000 </r>
       <r>   17.2765    0.0000 </r>
       <r>   17.4293    0.0000 </r>
       <r>   17.4293    0.0000 </r>
       <r>   19.1449    0.0000 </r>
       <r>   19.3496    0.0000 </r>
       <r>   22.8056    0.0000 </r>
       <r>   23.5748    0.0000 </r>
      </set>
      <set comment="kpoint 22">
       <r>   -2.7736    1.0000 </r>
       <r>   -1.4550    1.0000 </r>
       <r>    2.8478    1.0000 </r>
       <r>    2.8478    1.0000 </r>
       <r>    6.2518    0.0000 </r>
       <r>    6.5642    0.0000 </r>
       <r>   15.0385    0.0000 </r>
       <r>   15.0385    0.0000 </r>
       <r>   17.0330    0.0000 </r>
       <r>   17.0330    0.0000 </r>
       <r>   17.2721    0.0000 </r>
       <r>   17.6792    0.0000 </r>
       <r>   18.9008    0.0000 </r>
       <r>   18.9694    0.0000 </r>
       <r>   23.3237    0.0000 </r>
       <r>   24.1359    0.0000 </r>
      </set>
      <set comment="kpoint 23">
       <r>   -2.4588    1.0000 </r>
       <r>   -1.7988    1.0000 </r>
       <r>    2.8258    1.0000 </r>
       <r>    2.8258    1.0000 </r>
       <r>    6.2971    0.0000 </r>
       <r>    6.4528    0.0000 </r>
       <r>   15.3787    0.0000 </r>
       <r>   15.3787    0.0000 </r>
       <r>   16.6853    0.0000 </r>
       <r>   16.6853    0.0000 </r>
       <r>   17.6540    0.0000 </r>
       <r>   18.0591    0.0000 </r>
       <r>   18.4685    0.0000 </r>
       <r>   18.7173    0.0000 </r>
       <r>   23.8313    0.0000 </r>
       <r>   24.6074    0.0000 </r>
      </set>
      <set comment="kpoint 24">
       <r>   -2.1337    1.0000 </r>
       <r>   -2.1337    1.0000 </r>
       <r>    2.8184    1.0000 </r>
       <r>    2.8184    1.0000 </r>
       <r>    6.3640    0.0000 </r>
       <r>    6.3640    0.0000 </r>
       <r>   15.5442    0.0000 </r>
       <r>   15.5442    0.0000 </r>
       <r>   16.5170    0.0000 </r>
       <r>   16.5170    0.0000 </r>
       <r>   18.0528    0.0000 </r>
       <r>   18.0528    0.0000 </r>
       <r>   18.4087    0.0000 </r>
       <r>   18.4087    0.0000 </r>
       <r>   24.2845    0.0000 </r>
       <r>   24.2854    0.0000 </r>
      </set>
      <set comment="kpoint 25">
       <r>   -2.1337    1.0000 </r>
       <r>   -2.1337    1.0000 </r>
       <r>    2.8184    1.0000 </r>
       <r>    2.8184    1.0000 </r>
       <r>    6.3640    0.0000 </r>
       <r>    6.3640    0.0000 </r>
       <r>   15.5442    0.0000 </r>
       <r>   15.5442    0.0000 </r>
       <r>   16.5170    0.0000 </r>
       <r>   16.5170    0.0000 </r>
       <r>   18.0528    0.0000 </r>
       <r>   18.0528    0.0000 </r>
       <r>   18.4087    0.0000 </r>
       <r>   18.4087    0.0000 </r>
       <r>   24.2842    0.0000 </r>
       <r>   24.2848    0.0000 </r>
      </set>
      <set comment="kpoint 26">
       <r>   -2.1313    1.0000 </r>
       <r>   -2.1313    1.0000 </r>
       <r>    2.7962    1.0000 </r>
       <r>    2.7962    1.0000 </r>
       <r>    6.4051    0.0000 </r>
       <r>    6.4051    0.0000 </r>
       <r>   15.4772    0.0000 </r>
       <r>   15.4772    0.0000 </r>
       <r>   16.4197    0.0000 </r>
       <r>   16.4197    0.0000 </r>
       <r>   18.1190    0.0000 </r>
       <r>   18.1190    0.0000 </r>
       <r>   18.5141    0.0000 </r>
       <r>   18.5141    0.0000 </r>
       <r>   24.1704    0.0000 </r>
       <r>   24.1706    0.0000 </r>
      </set>
      <set comment="kpoint 27">
       <r>   -2.1242    1.0000 </r>
       <r>   -2.1242    1.0000 </r>
       <r>    2.7332    1.0000 </r>
       <r>    2.7332    1.0000 </r>
       <r>    6.5250    0.0000 </r>
       <r>    6.5250    0.0000 </r>
       <r>   15.2537    0.0000 </r>
       <r>   15.2537    0.0000 </r>
       <r>   16.2545    0.0000 </r>
       <r>   16.2545    0.0000 </r>
       <r>   18.1883    0.0000 </r>
       <r>   18.1883    0.0000 </r>
       <r>   18.8549    0.0000 </r>
       <r>   18.8549    0.0000 </r>
       <r>   23.9177    0.0000 </r>
       <r>   23.9179    0.0000 </r>
      </set>
      <set comment="kpoint 28">
       <r>   -2.1128    1.0000 </r>
       <r>   -2.1127    1.0000 </r>
       <r>    2.6384    1.0000 </r>
       <r>    2.6384    1.0000 </r>
       <r>    6.7149    0.0000 </r>
       <r>    6.7149    0.0000 </r>
       <r>   14.8756    0.0000 </r>
       <r>   14.8756    0.0000 </r>
       <r>   16.1484    0.0000 </r>
       <r>   16.1484    0.0000 </r>
       <r>   18.2270    0.0000 </r>
       <r>   18.2270    0.0000 </r>
       <r>   19.3352    0.0000 </r>
       <r>   19.3353    0.0000 </r>
       <r>   23.6261    0.0000 </r>
       <r>   23.6264    0.0000 </r>
      </set>
      <set comment="kpoint 29">
       <r>   -2.0976    1.0000 </r>
       <r>   -2.0976    1.0000 </r>
       <r>    2.5231    1.0000 </r>
       <r>    2.5231    1.0000 </r>
       <r>    6.9638    0.0000 </r>
       <r>    6.9638    0.0000 </r>
       <r>   14.4045    0.0000 </r>
       <r>   14.4045    0.0000 </r>
       <r>   16.0972    0.0000 </r>
       <r>   16.0972    0.0000 </r>
       <r>   18.2599    0.0000 </r>
       <r>   18.2599    0.0000 </r>
       <r>   19.8706    0.0000 </r>
       <r>   19.8706    0.0000 </r>
       <r>   23.3373    0.0000 </r>
       <r>   23.3373    0.0000 </r>
      </set>
      <set comment="kpoint 30">
       <r>   -2.0797    1.0000 </r>
       <r>   -2.0797    1.0000 </r>
       <r>    2.3985    1.0000 </r>
       <r>    2.3985    1.0000 </r>
       <r>    7.2611    0.0000 </r>
       <r>    7.2611    0.0000 </r>
       <r>   13.8913    0.0000 </r>
       <r>   13.8913    0.0000 </r>
       <r>   16.0735    0.0000 </r>
       <r>   16.0735    0.0000 </r>
       <r>   18.2939    0.0000 </r>
       <r>   18.2939    0.0000 </r>
       <r>   20.4270    0.0000 </r>
       <r>   20.4270    0.0000 </r>
       <r>   23.0696    0.0000 </r>
       <r>   23.0696    0.0000 </r>
      </set>
      <set comment="kpoint 31">
       <r>   -2.0600    1.0000 </r>
       <r>   -2.0600    1.0000 </r>
       <r>    2.2738    1.0000 </r>
       <r>    2.2738    1.0000 </r>
       <r>    7.5979    0.0000 </r>
       <r>    7.5979    0.0000 </r>
       <r>   13.3616    0.0000 </r>
       <r>   13.3616    0.0000 </r>
       <r>   16.0629    0.0000 </r>
       <r>   16.0629    0.0000 </r>
       <r>   18.3296    0.0000 </r>
       <r>   18.3296    0.0000 </r>
       <r>   20.9844    0.0000 </r>
       <r>   20.9844    0.0000 </r>
       <r>   22.8373    0.0000 </r>
       <r>   22.8374    0.0000 </r>
      </set>
      <set comment="kpoint 32">
       <r>   -2.0399    1.0000 </r>
       <r>   -2.0399    1.0000 </r>
       <r>    2.1567    1.0000 </r>
       <r>    2.1567    1.0000 </r>
       <r>    7.9673    0.0000 </r>
       <r>    7.9673    0.0000 </r>
       <r>   12.8280    0.0000 </r>
       <r>   12.8280    0.0000 </r>
       <r>   16.0587    0.0000 </r>
       <r>   16.0587    0.0000 </r>
       <r>   18.3661    0.0000 </r>
       <r>   18.3661    0.0000 </r>
       <r>   21.5141    0.0000 </r>
       <r>   21.5141    0.0000 </r>
       <r>   22.6670    0.0000 </r>
       <r>   22.6670    0.0000 </r>
      </set>
      <set comment="kpoint 33">
       <r>   -2.0206    1.0000 </r>
       <r>   -2.0206    1.0000 </r>
       <r>    2.0532    1.0000 </r>
       <r>    2.0532    1.0000 </r>
       <r>    8.3631    0.0000 </r>
       <r>    8.3631    0.0000 </r>
       <r>   12.2978    0.0000 </r>
       <r>   12.2978    0.0000 </r>
       <r>   16.0578    0.0000 </r>
       <r>   16.0578    0.0000 </r>
       <r>   18.4012    0.0000 </r>
       <r>   18.4012    0.0000 </r>
       <r>   21.9152    0.0000 </r>
       <r>   21.9152    0.0000 </r>
       <r>   22.6579    0.0000 </r>
       <r>   22.6580    0.0000 </r>
      </set>
      <set comment="kpoint 34">
       <r>   -2.0038    1.0000 </r>
       <r>   -2.0038    1.0000 </r>
       <r>    1.9680    1.0000 </r>
       <r>    1.9680    1.0000 </r>
       <r>    8.7798    0.0000 </r>
       <r>    8.7798    0.0000 </r>
       <r>   11.7770    0.0000 </r>
       <r>   11.7770    0.0000 </r>
       <r>   16.0583    0.0000 </r>
       <r>   16.0583    0.0000 </r>
       <r>   18.4325    0.0000 </r>
       <r>   18.4325    0.0000 </r>
       <r>   22.0157    0.0000 </r>
       <r>   22.0157    0.0000 </r>
       <r>   22.9788    0.0000 </r>
       <r>   22.9789    0.0000 </r>
      </set>
      <set comment="kpoint 35">
       <r>   -1.9906    1.0000 </r>
       <r>   -1.9906    1.0000 </r>
       <r>    1.9045    1.0000 </r>
       <r>    1.9045    1.0000 </r>
       <r>    9.2094    0.0000 </r>
       <r>    9.2094    0.0000 </r>
       <r>   11.2733    0.0000 </r>
       <r>   11.2733    0.0000 </r>
       <r>   16.0593    0.0000 </r>
       <r>   16.0593    0.0000 </r>
       <r>   18.4573    0.0000 </r>
       <r>   18.4573    0.0000 </r>
       <r>   21.9733    0.0000 </r>
       <r>   21.9733    0.0000 </r>
       <r>   23.4616    0.0000 </r>
       <r>   23.4626    0.0000 </r>
      </set>
      <set comment="kpoint 36">
       <r>   -1.9822    1.0000 </r>
       <r>   -1.9822    1.0000 </r>
       <r>    1.8655    1.0000 </r>
       <r>    1.8655    1.0000 </r>
       <r>    9.6285    0.0000 </r>
       <r>    9.6285    0.0000 </r>
       <r>   10.8098    0.0000 </r>
       <r>   10.8098    0.0000 </r>
       <r>   16.0602    0.0000 </r>
       <r>   16.0602    0.0000 </r>
       <r>   18.4734    0.0000 </r>
       <r>   18.4734    0.0000 </r>
       <r>   21.9277    0.0000 </r>
       <r>   21.9277    0.0000 </r>
       <r>   23.9428    0.0000 </r>
       <r>   24.0068    0.0000 </r>
      </set>
      <set comment="kpoint 37">
       <r>   -1.9793    1.0000 </r>
       <r>   -1.9793    1.0000 </r>
       <r>    1.8522    1.0000 </r>
       <r>    1.8522    1.0000 </r>
       <r>    9.8818    0.0000 </r>
       <r>    9.8818    0.0000 </r>
       <r>   10.5418    0.0000 </r>
       <r>   10.5418    0.0000 </r>
       <r>   16.0605    0.0000 </r>
       <r>   16.0605    0.0000 </r>
       <r>   18.4789    0.0000 </r>
       <r>   18.4789    0.0000 </r>
       <r>   21.9105    0.0000 </r>
       <r>   21.9106    0.0000 </r>
       <r>   24.0118    0.0000 </r>
       <r>   24.0416    0.0000 </r>
      </set>
      <set comment="kpoint 38">
       <r>   -1.9793    1.0000 </r>
       <r>   -1.9793    1.0000 </r>
       <r>    1.8522    1.0000 </r>
       <r>    1.8522    1.0000 </r>
       <r>    9.8818    0.0000 </r>
       <r>    9.8818    0.0000 </r>
       <r>   10.5418    0.0000 </r>
       <r>   10.5418    0.0000 </r>
       <r>   16.0605    0.0000 </r>
       <r>   16.0605    0.0000 </r>
       <r>   18.4789    0.0000 </r>
       <r>   18.4789    0.0000 </r>
       <r>   21.9105    0.0000 </r>
       <r>   21.9105    0.0000 </r>
       <r>   24.0114    0.0000 </r>
       <r>   24.0656    0.0000 </r>
      </set>
      <set comment="kpoint 39">
       <r>   -2.0983    1.0000 </r>
       <r>   -1.8646    1.0000 </r>
       <r>    1.7628    1.0000 </r>
       <r>    1.9649    1.0000 </r>
       <r>    9.5611    0.0000 </r>
       <r>    9.9287    0.0000 </r>
       <r>   10.6795    0.0000 </r>
       <r>   10.7050    0.0000 </r>
       <r>   15.8137    0.0000 </r>
       <r>   16.2506    0.0000 </r>
       <r>   18.2688    0.0000 </r>
       <r>   18.7347    0.0000 </r>
       <r>   21.6877    0.0000 </r>
       <r>   22.1073    0.0000 </r>
       <r>   23.7608    0.0000 </r>
       <r>   24.0238    0.0000 </r>
      </set>
      <set comment="kpoint 40">
       <r>   -2.2035    1.0000 </r>
       <r>   -1.7721    1.0000 </r>
       <r>    1.6826    1.0000 </r>
       <r>    2.1129    1.0000 </r>
       <r>    9.0859    0.0000 </r>
       <r>    9.9138    0.0000 </r>
       <r>   10.9502    0.0000 </r>
       <r>   11.0069    0.0000 </r>
       <r>   15.5423    0.0000 </r>
       <r>   16.3138    0.0000 </r>
       <r>   18.1697    0.0000 </r>
       <r>   19.0125    0.0000 </r>
       <r>   21.4833    0.0000 </r>
       <r>   22.2158    0.0000 </r>
       <r>   23.5750    0.0000 </r>
       <r>   23.6137    0.0000 </r>
      </set>
      <set comment="kpoint 41">
       <r>   -2.2948    1.0000 </r>
       <r>   -1.7002    1.0000 </r>
       <r>    1.6122    1.0000 </r>
       <r>    2.2907    1.0000 </r>
       <r>    8.6077    0.0000 </r>
       <r>    9.8766    0.0000 </r>
       <r>   11.2368    0.0000 </r>
       <r>   11.3767    0.0000 </r>
       <r>   15.2528    0.0000 </r>
       <r>   16.2029    0.0000 </r>
       <r>   18.2345    0.0000 </r>
       <r>   19.3045    0.0000 </r>
       <r>   21.3049    0.0000 </r>
       <r>   22.2102    0.0000 </r>
       <r>   23.1767    0.0000 </r>
       <r>   23.4206    0.0000 </r>
      </set>
      <set comment="kpoint 42">
       <r>   -2.3722    1.0000 </r>
       <r>   -1.6464    1.0000 </r>
       <r>    1.5520    1.0000 </r>
       <r>    2.4899    1.0000 </r>
       <r>    8.1545    0.0000 </r>
       <r>    9.8353    0.0000 </r>
       <r>   11.5450    0.0000 </r>
       <r>   11.7662    0.0000 </r>
       <r>   14.9492    0.0000 </r>
       <r>   15.9433    0.0000 </r>
       <r>   18.4433    0.0000 </r>
       <r>   19.6052    0.0000 </r>
       <r>   21.1534    0.0000 </r>
       <r>   22.1149    0.0000 </r>
       <r>   22.7306    0.0000 </r>
       <r>   23.2328    0.0000 </r>
      </set>
      <set comment="kpoint 43">
       <r>   -2.4356    1.0000 </r>
       <r>   -1.6077    1.0000 </r>
       <r>    1.5023    1.0000 </r>
       <r>    2.6983    1.0000 </r>
       <r>    7.7407    0.0000 </r>
       <r>    9.7972    0.0000 </r>
       <r>   11.8656    0.0000 </r>
       <r>   12.1691    0.0000 </r>
       <r>   14.6353    0.0000 </r>
       <r>   15.5947    0.0000 </r>
       <r>   18.7409    0.0000 </r>
       <r>   19.9098    0.0000 </r>
       <r>   21.0253    0.0000 </r>
       <r>   21.9741    0.0000 </r>
       <r>   22.2852    0.0000 </r>
       <r>   23.0142    0.0000 </r>
      </set>
      <set comment="kpoint 44">
       <r>   -2.4850    1.0000 </r>
       <r>   -1.5810    1.0000 </r>
       <r>    1.4634    1.0000 </r>
       <r>    2.9000    1.0000 </r>
       <r>    7.3818    0.0000 </r>
       <r>    9.7657    0.0000 </r>
       <r>   12.1923    0.0000 </r>
       <r>   12.5817    0.0000 </r>
       <r>   14.3149    0.0000 </r>
       <r>   15.2003    0.0000 </r>
       <r>   19.0877    0.0000 </r>
       <r>   20.2127    0.0000 </r>
       <r>   20.9116    0.0000 </r>
       <r>   21.8132    0.0000 </r>
       <r>   21.8566    0.0000 </r>
       <r>   22.7980    0.0000 </r>
      </set>
      <set comment="kpoint 45">
       <r>   -2.5203    1.0000 </r>
       <r>   -1.5640    1.0000 </r>
       <r>    1.4355    1.0000 </r>
       <r>    3.0735    1.0000 </r>
       <r>    7.0975    0.0000 </r>
       <r>    9.7424    0.0000 </r>
       <r>   12.5175    0.0000 </r>
       <r>   12.9997    0.0000 </r>
       <r>   13.9946    0.0000 </r>
       <r>   14.7853    0.0000 </r>
       <r>   19.4603    0.0000 </r>
       <r>   20.5051    0.0000 </r>
       <r>   20.7866    0.0000 </r>
       <r>   21.4768    0.0000 </r>
       <r>   21.6380    0.0000 </r>
       <r>   22.6151    0.0000 </r>
      </set>
      <set comment="kpoint 46">
       <r>   -2.5415    1.0000 </r>
       <r>   -1.5545    1.0000 </r>
       <r>    1.4187    1.0000 </r>
       <r>    3.1935    1.0000 </r>
       <r>    6.9115    0.0000 </r>
       <r>    9.7281    0.0000 </r>
       <r>   12.8207    0.0000 </r>
       <r>   13.4110    0.0000 </r>
       <r>   13.6944    0.0000 </r>
       <r>   14.3725    0.0000 </r>
       <r>   19.8375    0.0000 </r>
       <r>   20.5898    0.0000 </r>
       <r>   20.7656    0.0000 </r>
       <r>   21.2195    0.0000 </r>
       <r>   21.4560    0.0000 </r>
       <r>   22.4934    0.0000 </r>
      </set>
      <set comment="kpoint 47">
       <r>   -2.5486    1.0000 </r>
       <r>   -1.5515    1.0000 </r>
       <r>    1.4131    1.0000 </r>
       <r>    3.2367    1.0000 </r>
       <r>    6.8464    0.0000 </r>
       <r>    9.7233    0.0000 </r>
       <r>   12.9904    0.0000 </r>
       <r>   13.5257    0.0000 </r>
       <r>   13.6911    0.0000 </r>
       <r>   14.0913    0.0000 </r>
       <r>   20.1081    0.0000 </r>
       <r>   20.3746    0.0000 </r>
       <r>   20.9020    0.0000 </r>
       <r>   21.1389    0.0000 </r>
       <r>   21.3471    0.0000 </r>
       <r>   22.4510    0.0000 </r>
      </set>
      <set comment="kpoint 48">
       <r>   -2.5486    1.0000 </r>
       <r>   -1.5515    1.0000 </r>
       <r>    1.4131    1.0000 </r>
       <r>    3.2367    1.0000 </r>
       <r>    6.8464    0.0000 </r>
       <r>    9.7233    0.0000 </r>
       <r>   12.9904    0.0000 </r>
       <r>   13.5257    0.0000 </r>
       <r>   13.6911    0.0000 </r>
       <r>   14.0913    0.0000 </r>
       <r>   20.1081    0.0000 </r>
       <r>   20.3746    0.0000 </r>
       <r>   20.9020    0.0000 </r>
       <r>   21.1389    0.0000 </r>
       <r>   21.3471    0.0000 </r>
       <r>   22.4510    0.0000 </r>
      </set>
      <set comment="kpoint 49">
       <r>   -2.6930    1.0000 </r>
       <r>   -1.4039    1.0000 </r>
       <r>    1.3333    1.0000 </r>
       <r>    3.3390    1.0000 </r>
       <r>    6.9643    0.0000 </r>
       <r>   10.3261    0.0000 </r>
       <r>   12.6311    0.0000 </r>
       <r>   13.1544    0.0000 </r>
       <r>   13.4011    0.0000 </r>
       <r>   13.7796    0.0000 </r>
       <r>   20.2265    0.0000 </r>
       <r>   20.6718    0.0000 </r>
       <r>   20.9036    0.0000 </r>
       <r>   21.0349    0.0000 </r>
       <r>   21.3169    0.0000 </r>
       <r>   22.9336    0.0000 </r>
      </set>
      <set comment="kpoint 50">
       <r>   -2.8609    1.0000 </r>
       <r>   -1.2399    1.0000 </r>
       <r>    1.2992    1.0000 </r>
       <r>    3.4506    1.0000 </r>
       <r>    7.0930    0.0000 </r>
       <r>   10.9342    0.0000 </r>
       <r>   12.2817    0.0000 </r>
       <r>   12.8093    0.0000 </r>
       <r>   13.1179    0.0000 </r>
       <r>   13.4827    0.0000 </r>
       <r>   20.0768    0.0000 </r>
       <r>   20.6900    0.0000 </r>
       <r>   20.9391    0.0000 </r>
       <r>   20.9599    0.0000 </r>
       <r>   21.7222    0.0000 </r>
       <r>   23.4478    0.0000 </r>
      </set>
      <set comment="kpoint 51">
       <r>   -3.0485    1.0000 </r>
       <r>   -1.0596    1.0000 </r>
       <r>    1.3089    1.0000 </r>
       <r>    3.5708    1.0000 </r>
       <r>    7.2312    0.0000 </r>
       <r>   11.5062    0.0000 </r>
       <r>   11.9435    0.0000 </r>
       <r>   12.5289    0.0000 </r>
       <r>   12.8443    0.0000 </r>
       <r>   13.2027    0.0000 </r>
       <r>   19.7784    0.0000 </r>
       <r>   20.3485    0.0000 </r>
       <r>   21.1062    0.0000 </r>
       <r>   21.2391    0.0000 </r>
       <r>   22.1170    0.0000 </r>
       <r>   22.8074    0.0000 </r>
      </set>
      <set comment="kpoint 52">
       <r>   -3.2515    1.0000 </r>
       <r>   -0.8631    1.0000 </r>
       <r>    1.3589    1.0000 </r>
       <r>    3.6986    1.0000 </r>
       <r>    7.3776    0.0000 </r>
       <r>   11.6174    0.0000 </r>
       <r>   11.7908    0.0000 </r>
       <r>   12.5607    0.0000 </r>
       <r>   12.5827    0.0000 </r>
       <r>   12.9413    0.0000 </r>
       <r>   19.4530    0.0000 </r>
       <r>   20.0210    0.0000 </r>
       <r>   21.1902    0.0000 </r>
       <r>   21.5093    0.0000 </r>
       <r>   22.2205    0.0000 </r>
       <r>   22.5013    0.0000 </r>
      </set>
      <set comment="kpoint 53">
       <r>   -3.4649    1.0000 </r>
       <r>   -0.6504    1.0000 </r>
       <r>    1.4451    1.0000 </r>
       <r>    3.8329    1.0000 </r>
       <r>    7.5302    0.0000 </r>
       <r>   11.3042    0.0000 </r>
       <r>   11.6155    0.0000 </r>
       <r>   12.3356    0.0000 </r>
       <r>   12.7001    0.0000 </r>
       <r>   13.0728    0.0000 </r>
       <r>   19.1297    0.0000 </r>
       <r>   19.7135    0.0000 </r>
       <r>   20.8763    0.0000 </r>
       <r>   21.7693    0.0000 </r>
       <r>   22.0497    0.0000 </r>
       <r>   22.8767    0.0000 </r>
      </set>
      <set comment="kpoint 54">
       <r>   -3.6842    1.0000 </r>
       <r>   -0.4218    1.0000 </r>
       <r>    1.5635    1.0000 </r>
       <r>    3.9724    1.0000 </r>
       <r>    7.6867    0.0000 </r>
       <r>   11.0044    0.0000 </r>
       <r>   11.3408    0.0000 </r>
       <r>   12.1055    0.0000 </r>
       <r>   12.4810    0.0000 </r>
       <r>   13.6974    0.0000 </r>
       <r>   18.8156    0.0000 </r>
       <r>   19.4330    0.0000 </r>
       <r>   20.2469    0.0000 </r>
       <r>   22.0159    0.0000 </r>
       <r>   22.2090    0.0000 </r>
       <r>   23.2462    0.0000 </r>
      </set>
      <set comment="kpoint 55">
       <r>   -3.9053    1.0000 </r>
       <r>   -0.1774    1.0000 </r>
       <r>    1.7102    1.0000 </r>
       <r>    4.1156    1.0000 </r>
       <r>    7.8442    0.0000 </r>
       <r>   10.7184    0.0000 </r>
       <r>   11.0583    0.0000 </r>
       <r>   11.8952    0.0000 </r>
       <r>   12.2857    0.0000 </r>
       <r>   14.3316    0.0000 </r>
       <r>   18.5114    0.0000 </r>
       <r>   19.1893    0.0000 </r>
       <r>   19.5512    0.0000 </r>
       <r>   22.2426    0.0000 </r>
       <r>   22.4517    0.0000 </r>
       <r>   22.8668    0.0000 </r>
      </set>
      <set comment="kpoint 56">
       <r>   -4.1250    1.0000 </r>
       <r>    0.0826    1.0000 </r>
       <r>    1.8818    1.0000 </r>
       <r>    4.2610    1.0000 </r>
       <r>    7.9989    0.0000 </r>
       <r>   10.4467    0.0000 </r>
       <r>   10.7831    0.0000 </r>
       <r>   11.7076    0.0000 </r>
       <r>   12.1160    0.0000 </r>
       <r>   14.9401    0.0000 </r>
       <r>   18.2092    0.0000 </r>
       <r>   18.8590    0.0000 </r>
       <r>   18.9999    0.0000 </r>
       <r>   22.3048    0.0000 </r>
       <r>   22.4374    0.0000 </r>
       <r>   22.7180    0.0000 </r>
      </set>
      <set comment="kpoint 57">
       <r>   -4.3403    1.0000 </r>
       <r>    0.3579    1.0000 </r>
       <r>    2.0754    1.0000 </r>
       <r>    4.4066    1.0000 </r>
       <r>    8.1462    0.0000 </r>
       <r>   10.1895    0.0000 </r>
       <r>   10.5192    0.0000 </r>
       <r>   11.5462    0.0000 </r>
       <r>   11.9739    0.0000 </r>
       <r>   15.4839    0.0000 </r>
       <r>   17.8565    0.0000 </r>
       <r>   18.2399    0.0000 </r>
       <r>   18.8950    0.0000 </r>
       <r>   21.7327    0.0000 </r>
       <r>   22.5782    0.0000 </r>
       <r>   22.9924    0.0000 </r>
      </set>
      <set comment="kpoint 58">
       <r>   -4.5490    1.0000 </r>
       <r>    0.6484    1.0000 </r>
       <r>    2.2883    1.0000 </r>
       <r>    4.5504    1.0000 </r>
       <r>    8.2808    0.0000 </r>
       <r>    9.9471    0.0000 </r>
       <r>   10.2682    0.0000 </r>
       <r>   11.4143    0.0000 </r>
       <r>   11.8611    0.0000 </r>
       <r>   15.9067    0.0000 </r>
       <r>   17.3106    0.0000 </r>
       <r>   17.8447    0.0000 </r>
       <r>   18.9194    0.0000 </r>
       <r>   21.1755    0.0000 </r>
       <r>   22.6298    0.0000 </r>
       <r>   23.2677    0.0000 </r>
      </set>
      <set comment="kpoint 59">
       <r>   -4.7494    1.0000 </r>
       <r>    0.9537    1.0000 </r>
       <r>    2.5180    1.0000 </r>
       <r>    4.6904    1.0000 </r>
       <r>    8.3969    0.0000 </r>
       <r>    9.7196    0.0000 </r>
       <r>   10.0307    0.0000 </r>
       <r>   11.3146    0.0000 </r>
       <r>   11.7795    0.0000 </r>
       <r>   16.1526    0.0000 </r>
       <r>   16.6649    0.0000 </r>
       <r>   17.5859    0.0000 </r>
       <r>   19.0997    0.0000 </r>
       <r>   20.6705    0.0000 </r>
       <r>   22.5472    0.0000 </r>
       <r>   23.5364    0.0000 </r>
      </set>
      <set comment="kpoint 60">
       <r>   -4.9399    1.0000 </r>
       <r>    1.2733    1.0000 </r>
       <r>    2.7624    1.0000 </r>
       <r>    4.8245    1.0000 </r>
       <r>    8.4892    0.0000 </r>
       <r>    9.5073    0.0000 </r>
       <r>    9.8070    0.0000 </r>
       <r>   11.2477    0.0000 </r>
       <r>   11.7310    0.0000 </r>
       <r>   16.0177    0.0000 </r>
       <r>   16.2133    0.0000 </r>
       <r>   17.3713    0.0000 </r>
       <r>   19.3178    0.0000 </r>
       <r>   20.3501    0.0000 </r>
       <r>   22.3029    0.0000 </r>
       <r>   23.7871    0.0000 </r>
      </set>
      <set comment="kpoint 61">
       <r>   -5.1194    1.0000 </r>
       <r>    1.6069    1.0000 </r>
       <r>    3.0190    1.0000 </r>
       <r>    4.9507    1.0000 </r>
       <r>    8.5543    0.0000 </r>
       <r>    9.3103    0.0000 </r>
       <r>    9.5970    0.0000 </r>
       <r>   11.2099    0.0000 </r>
       <r>   11.7168    0.0000 </r>
       <r>   15.3928    0.0000 </r>
       <r>   16.1329    0.0000 </r>
       <r>   17.1851    0.0000 </r>
       <r>   19.1995    0.0000 </r>
       <r>   20.5484    0.0000 </r>
       <r>   21.9150    0.0000 </r>
       <r>   23.9953    0.0000 </r>
      </set>
      <set comment="kpoint 62">
       <r>   -5.2870    1.0000 </r>
       <r>    1.9538    1.0000 </r>
       <r>    3.2855    1.0000 </r>
       <r>    5.0672    1.0000 </r>
       <r>    8.5915    0.0000 </r>
       <r>    9.1286    0.0000 </r>
       <r>    9.4006    0.0000 </r>
       <r>   11.1906    0.0000 </r>
       <r>   11.7381    0.0000 </r>
       <r>   14.8046    0.0000 </r>
       <r>   15.9611    0.0000 </r>
       <r>   17.0246    0.0000 </r>
       <r>   18.8363    0.0000 </r>
       <r>   21.1275    0.0000 </r>
       <r>   21.4311    0.0000 </r>
       <r>   24.1145    0.0000 </r>
      </set>
      <set comment="kpoint 63">
       <r>   -5.4419    1.0000 </r>
       <r>    2.3132    1.0000 </r>
       <r>    3.5592    1.0000 </r>
       <r>    5.1727    1.0000 </r>
       <r>    8.6031    0.0000 </r>
       <r>    8.9625    0.0000 </r>
       <r>    9.2177    0.0000 </r>
       <r>   11.1695    0.0000 </r>
       <r>   11.7951    0.0000 </r>
       <r>   14.2709    0.0000 </r>
       <r>   15.7304    0.0000 </r>
       <r>   16.8897    0.0000 </r>
       <r>   18.4511    0.0000 </r>
       <r>   20.8959    0.0000 </r>
       <r>   21.8347    0.0000 </r>
       <r>   24.0698    0.0000 </r>
      </set>
      <set comment="kpoint 64">
       <r>   -5.5835    1.0000 </r>
       <r>    2.6841    1.0000 </r>
       <r>    3.8372    1.0000 </r>
       <r>    5.2662    1.0000 </r>
       <r>    8.5937    0.0000 </r>
       <r>    8.8120    0.0000 </r>
       <r>    9.0478    0.0000 </r>
       <r>   11.1144    0.0000 </r>
       <r>   11.8874    0.0000 </r>
       <r>   13.8176    0.0000 </r>
       <r>   15.4601    0.0000 </r>
       <r>   16.7814    0.0000 </r>
       <r>   18.0983    0.0000 </r>
       <r>   20.3400    0.0000 </r>
       <r>   22.5984    0.0000 </r>
       <r>   23.8228    0.0000 </r>
      </set>
      <set comment="kpoint 65">
       <r>   -5.7113    1.0000 </r>
       <r>    3.0649    1.0000 </r>
       <r>    4.1158    1.0000 </r>
       <r>    5.3472    1.0000 </r>
       <r>    8.5690    0.0000 </r>
       <r>    8.6771    0.0000 </r>
       <r>    8.8907    0.0000 </r>
       <r>   10.9860    0.0000 </r>
       <r>   12.0133    0.0000 </r>
       <r>   13.4764    0.0000 </r>
       <r>   15.1647    0.0000 </r>
       <r>   16.7008    0.0000 </r>
       <r>   17.7916    0.0000 </r>
       <r>   19.7826    0.0000 </r>
       <r>   23.3925    0.0000 </r>
       <r>   23.4331    0.0000 </r>
      </set>
      <set comment="kpoint 66">
       <r>   -5.8248    1.0000 </r>
       <r>    3.4536    1.0000 </r>
       <r>    4.3909    1.0000 </r>
       <r>    5.4157    1.0000 </r>
       <r>    8.5343    0.0000 </r>
       <r>    8.5580    0.0000 </r>
       <r>    8.7460    0.0000 </r>
       <r>   10.7564    0.0000 </r>
       <r>   12.1700    0.0000 </r>
       <r>   13.2673    0.0000 </r>
       <r>   14.8574    0.0000 </r>
       <r>   16.6488    0.0000 </r>
       <r>   17.5334    0.0000 </r>
       <r>   19.2366    0.0000 </r>
       <r>   22.9835    0.0000 </r>
       <r>   24.2024    0.0000 </r>
      </set>
      <set comment="kpoint 67">
       <r>   -5.9238    1.0000 </r>
       <r>    3.8470    1.0000 </r>
       <r>    4.6571    1.0000 </r>
       <r>    5.4723    1.0000 </r>
       <r>    8.4547    0.0000 </r>
       <r>    8.4937    0.0000 </r>
       <r>    8.6136    0.0000 </r>
       <r>   10.4329    0.0000 </r>
       <r>   12.3527    0.0000 </r>
       <r>   13.1771    0.0000 </r>
       <r>   14.5523    0.0000 </r>
       <r>   16.6256    0.0000 </r>
       <r>   17.3211    0.0000 </r>
       <r>   18.7123    0.0000 </r>
       <r>   22.5258    0.0000 </r>
       <r>   25.0163    0.0000 </r>
      </set>
      <set comment="kpoint 68">
       <r>   -6.0080    1.0000 </r>
       <r>    4.2401    1.0000 </r>
       <r>    4.9080    1.0000 </r>
       <r>    5.5178    1.0000 </r>
       <r>    8.3672    0.0000 </r>
       <r>    8.4500    0.0000 </r>
       <r>    8.4939    0.0000 </r>
       <r>   10.0514    0.0000 </r>
       <r>   12.5547    0.0000 </r>
       <r>   13.1669    0.0000 </r>
       <r>   14.2634    0.0000 </r>
       <r>   16.6296    0.0000 </r>
       <r>   17.1504    0.0000 </r>
       <r>   18.2197    0.0000 </r>
       <r>   22.0897    0.0000 </r>
       <r>   25.8215    0.0000 </r>
      </set>
      <set comment="kpoint 69">
       <r>   -6.0771    1.0000 </r>
       <r>    4.6248    1.0000 </r>
       <r>    5.1357    1.0000 </r>
       <r>    5.5532    1.0000 </r>
       <r>    8.2956    0.0000 </r>
       <r>    8.3881    0.0000 </r>
       <r>    8.4033    0.0000 </r>
       <r>    9.6539    0.0000 </r>
       <r>   12.7658    0.0000 </r>
       <r>   13.1979    0.0000 </r>
       <r>   14.0043    0.0000 </r>
       <r>   16.6565    0.0000 </r>
       <r>   17.0169    0.0000 </r>
       <r>   17.7704    0.0000 </r>
       <r>   21.6954    0.0000 </r>
       <r>   26.6006    0.0000 </r>
      </set>
      <set comment="kpoint 70">
       <r>   -6.1311    1.0000 </r>
       <r>    4.9868    1.0000 </r>
       <r>    5.3305    1.0000 </r>
       <r>    5.5793    1.0000 </r>
       <r>    8.2398    0.0000 </r>
       <r>    8.2983    0.0000 </r>
       <r>    8.3501    0.0000 </r>
       <r>    9.2817    0.0000 </r>
       <r>   12.9712    0.0000 </r>
       <r>   13.2423    0.0000 </r>
       <r>   13.7875    0.0000 </r>
       <r>   16.6985    0.0000 </r>
       <r>   16.9167    0.0000 </r>
       <r>   17.3797    0.0000 </r>
       <r>   21.3605    0.0000 </r>
       <r>   27.3855    0.0000 </r>
      </set>
      <set comment="kpoint 71">
       <r>   -6.1697    1.0000 </r>
       <r>    5.3013    1.0000 </r>
       <r>    5.4815    1.0000 </r>
       <r>    5.5973    1.0000 </r>
       <r>    8.2000    0.0000 </r>
       <r>    8.2286    0.0000 </r>
       <r>    8.2831    0.0000 </r>
       <r>    8.9813    0.0000 </r>
       <r>   13.1498    0.0000 </r>
       <r>   13.2831    0.0000 </r>
       <r>   13.6239    0.0000 </r>
       <r>   16.7440    0.0000 </r>
       <r>   16.8470    0.0000 </r>
       <r>   17.0687    0.0000 </r>
       <r>   21.1028    0.0000 </r>
       <r>   27.9599    0.0000 </r>
      </set>
      <set comment="kpoint 72">
       <r>   -6.1929    1.0000 </r>
       <r>    5.5269    1.0000 </r>
       <r>    5.5780    1.0000 </r>
       <r>    5.6078    1.0000 </r>
       <r>    8.1761    0.0000 </r>
       <r>    8.1837    0.0000 </r>
       <r>    8.2066    0.0000 </r>
       <r>    8.7977    0.0000 </r>
       <r>   13.2749    0.0000 </r>
       <r>   13.3107    0.0000 </r>
       <r>   13.5220    0.0000 </r>
       <r>   16.7791    0.0000 </r>
       <r>   16.8060    0.0000 </r>
       <r>   16.8643    0.0000 </r>
       <r>   20.9391    0.0000 </r>
       <r>   28.3949    0.0000 </r>
      </set>
      <set comment="kpoint 73">
       <r>   -6.2006    1.0000 </r>
       <r>    5.6112    1.0000 </r>
       <r>    5.6112    1.0000 </r>
       <r>    5.6112    1.0000 </r>
       <r>    8.1681    0.0000 </r>
       <r>    8.1681    0.0000 </r>
       <r>    8.1681    0.0000 </r>
       <r>    8.7400    0.0000 </r>
       <r>   13.3204    0.0000 </r>
       <r>   13.3204    0.0000 </r>
       <r>   13.4874    0.0000 </r>
       <r>   16.7924    0.0000 </r>
       <r>   16.7924    0.0000 </r>
       <r>   16.7924    0.0000 </r>
       <r>   20.8829    0.0000 </r>
       <r>   28.4610    0.0000 </r>
      </set>
      <set comment="kpoint 74">
       <r>   -6.2006    1.0000 </r>
       <r>    5.6112    1.0000 </r>
       <r>    5.6112    1.0000 </r>
       <r>    5.6112    1.0000 </r>
       <r>    8.1681    0.0000 </r>
       <r>    8.1681    0.0000 </r>
       <r>    8.1681    0.0000 </r>
       <r>    8.7400    0.0000 </r>
       <r>   13.3204    0.0000 </r>
       <r>   13.3204    0.0000 </r>
       <r>   13.4874    0.0000 </r>
       <r>   16.7924    0.0000 </r>
       <r>   16.7924    0.0000 </r>
       <r>   16.7924    0.0000 </r>
       <r>   20.8829    0.0000 </r>
       <r>   28.4632    0.0000 </r>
      </set>
      <set comment="kpoint 75">
       <r>   -6.1925    1.0000 </r>
       <r>    5.5134    1.0000 </r>
       <r>    5.5973    1.0000 </r>
       <r>    5.5973    1.0000 </r>
       <r>    8.1884    0.0000 </r>
       <r>    8.1884    0.0000 </r>
       <r>    8.1907    0.0000 </r>
       <r>    8.8011    0.0000 </r>
       <r>   13.2916    0.0000 </r>
       <r>   13.2916    0.0000 </r>
       <r>   13.5235    0.0000 </r>
       <r>   16.7582    0.0000 </r>
       <r>   16.8472    0.0000 </r>
       <r>   16.8472    0.0000 </r>
       <r>   20.9413    0.0000 </r>
       <r>   28.3642    0.0000 </r>
      </set>
      <set comment="kpoint 76">
       <r>   -6.1684    1.0000 </r>
       <r>    5.2525    1.0000 </r>
       <r>    5.5574    1.0000 </r>
       <r>    5.5574    1.0000 </r>
       <r>    8.2124    0.0000 </r>
       <r>    8.2472    0.0000 </r>
       <r>    8.2472    0.0000 </r>
       <r>    8.9990    0.0000 </r>
       <r>   13.2121    0.0000 </r>
       <r>   13.2121    0.0000 </r>
       <r>   13.6293    0.0000 </r>
       <r>   16.6629    0.0000 </r>
       <r>   17.0053    0.0000 </r>
       <r>   17.0053    0.0000 </r>
       <r>   21.1100    0.0000 </r>
       <r>   28.0959    0.0000 </r>
      </set>
      <set comment="kpoint 77">
       <r>   -6.1282    1.0000 </r>
       <r>    4.8889    1.0000 </r>
       <r>    5.4956    1.0000 </r>
       <r>    5.4956    1.0000 </r>
       <r>    8.1907    0.0000 </r>
       <r>    8.3384    0.0000 </r>
       <r>    8.3384    0.0000 </r>
       <r>    9.3187    0.0000 </r>
       <r>   13.0986    0.0000 </r>
       <r>   13.0986    0.0000 </r>
       <r>   13.7981    0.0000 </r>
       <r>   16.5259    0.0000 </r>
       <r>   17.2513    0.0000 </r>
       <r>   17.2513    0.0000 </r>
       <r>   21.3722    0.0000 </r>
       <r>   27.6640    0.0000 </r>
      </set>
      <set comment="kpoint 78">
       <r>   -6.0721    1.0000 </r>
       <r>    4.4692    1.0000 </r>
       <r>    5.4176    1.0000 </r>
       <r>    5.4176    1.0000 </r>
       <r>    8.1329    0.0000 </r>
       <r>    8.4537    0.0000 </r>
       <r>    8.4537    0.0000 </r>
[...]
        <r>  0.0000  0.0000  0.0000  0.0000  0.0000  0.0000  0.0000  0.0000  0.0000 </r>
       </set>
       <set comment="band 13">
        <r>  0.0000  0.0000  0.0318  0.0318  0.0000  0.0000  0.0000  0.0000  0.0000 </r>
        <r>  0.0000  0.0000  0.0318  0.0318  0.0000  0.0000  0.0000  0.0000  0.0000 </r>
       </set>
       <set comment="band 14">
        <r>  0.0344  0.1328  0.0060  0.0060  0.0000  0.0000  0.0000  0.0000  0.0000 </r>
        <r>  0.0344  0.1328  0.0060  0.0060  0.0000  0.0000  0.0000  0.0000  0.0000 </r>
       </set>
       <set comment="band 15">
        <r>  0.0130  0.0014  0.0035  0.0035  0.0000  0.0000  0.0000  0.0000  0.0000 </r>
        <r>  0.0130  0.0014  0.0035  0.0035  0.0000  0.0000  0.0000  0.0000  0.0000 </r>
       </set>
       <set comment="band 16">
        <r>  0.0057  0.0044  0.0120  0.0120  0.0000  0.0000  0.0000  0.0000  0.0000 </r>
        <r>  0.0057  0.0044  0.0120  0.0119  0.0000  0.0000  0.0000  0.0000  0.0000 </r>
       </set>
      </set>
      <set comment="kpoint 160">
       <set comment="band 1">
        <r>  0.1991  0.0395  0.0007  0.0007  0.0000  0.0000  0.0000  0.0000  0.0000 </r>
        <r>  0.1991  0.0395  0.0007  0.0007  0.0000  0.0000  0.0000  0.0000  0.0000 </r>
       </set>
       <set comment="band 2">
        <r>  0.1913  0.0436  0.0011  0.0011  0.0000  0.0000  0.0000  0.0000  0.0000 </r>
        <r>  0.1914  0.0436  0.0011  0.0011  0.0000  0.0000  0.0000  0.0000  0.0000 </r>
       </set>
       <set comment="band 3">
        <r>  0.0025  0.0137  0.0794  0.0794  0.0000  0.0000  0.0000  0.0000  0.0000 </r>
        <r>  0.0025  0.0137  0.0794  0.0794  0.0000  0.0000  0.0000  0.0000  0.0000 </r>
       </set>
       <set comment="band 4">
        <r>  0.0000  0.0000  0.0978  0.0978  0.0000  0.0000  0.0000  0.0000  0.0000 </r>
        <r>  0.0000  0.0000  0.0978  0.0978  0.0000  0.0000  0.0000  0.0000  0.0000 </r>
       </set>
       <set comment="band 5">
        <r>  0.0513  0.0370  0.0002  0.0002  0.0000  0.0000  0.0000  0.0000  0.0000 </r>
        <r>  0.0513  0.0370  0.0002  0.0002  0.0000  0.0000  0.0000  0.0000  0.0000 </r>
       </set>
       <set comment="band 6">
        <r>  0.0415  0.0271  0.0171  0.0171  0.0000  0.0000  0.0000  0.0000  0.0000 </r>
        <r>  0.0415  0.0271  0.0171  0.0171  0.0000  0.0000  0.0000  0.0000  0.0000 </r>
       </set>
       <set comment="band 7">
        <r>  0.0000  0.0000  0.0951  0.0951  0.0000  0.0000  0.0000  0.0000  0.0000 </r>
        <r>  0.0000  0.0000  0.0951  0.0951  0.0000  0.0000  0.0000  0.0000  0.0000 </r>
       </set>
       <set comment="band 8">
        <r>  0.0200  0.0198  0.0993  0.0993  0.0000  0.0000  0.0000  0.0000  0.0000 </r>
        <r>  0.0200  0.0198  0.0993  0.0993  0.0000  0.0000  0.0000  0.0000  0.0000 </r>
       </set>
       <set comment="band 9">
        <r>  0.0193  0.0663  0.0022  0.0022  0.0000  0.0000  0.0000  0.0000  0.0000 </r>
        <r>  0.0193  0.0663  0.0022  0.0022  0.0000  0.0000  0.0000  0.0000  0.0000 </r>
       </set>
       <set comment="band 10">
        <r>  0.0000  0.0000  0.0057  0.0057  0.0000  0.0000  0.0000  0.0000  0.0000 </r>
        <r>  0.0000  0.0000  0.0057  0.0057  0.0000  0.0000  0.0000  0.0000  0.0000 </r>
       </set>
       <set comment="band 11">
        <r>  0.0000  0.0000  0.0000  0.0000  0.0000  0.0000  0.0000  0.0000  0.0000 </r>
        <r>  0.0000  0.0000  0.0000  0.0000  0.0000  0.0000  0.0000  0.0000  0.0000 </r>
       </set>
       <set comment="band 12">
        <r>  0.0375  0.1885  0.0179  0.0179  0.0000  0.0000  0.0000  0.0000  0.0000 </r>
        <r>  0.0374  0.1885  0.0179  0.0179  0.0000  0.0000  0.0000  0.0000  0.0000 </r>
       </set>
       <set comment="band 13">
        <r>  0.0000  0.0000  0.0261  0.0261  0.0000  0.0000  0.0000  0.0000  0.0000 </r>
        <r>  0.0000  0.0000  0.0261  0.0261  0.0000  0.0000  0.0000  0.0000  0.0000 </r>
       </set>
       <set comment="band 14">
        <r>  0.0380  0.1421  0.0045  0.0045  0.0000  0.0000  0.0000  0.0000  0.0000 </r>
        <r>  0.0380  0.1421  0.0045  0.0045  0.0000  0.0000  0.0000  0.0000  0.0000 </r>
       </set>
       <set comment="band 15">
        <r>  0.0113  0.0013  0.0038  0.0038  0.0000  0.0000  0.0000  0.0000  0.0000 </r>
        <r>  0.0113  0.0013  0.0037  0.0038  0.0000  0.0000  0.0000  0.0000  0.0000 </r>
       </set>
       <set comment="band 16">
        <r>  0.0020  0.0050  0.0122  0.0121  0.0000  0.0000  0.0000  0.0000  0.0000 </r>
        <r>  0.0021  0.0049  0.0121  0.0122  0.0000  0.0000  0.0000  0.0000  0.0000 </r>
       </set>
      </set>
      <set comment="kpoint 161">
       <set comment="band 1">
        <r>  0.1966  0.0414  0.0004  0.0004  0.0000  0.0000  0.0000  0.0000  0.0000 </r>
        <r>  0.1966  0.0414  0.0004  0.0004  0.0000  0.0000  0.0000  0.0000  0.0000 </r>
       </set>
       <set comment="band 2">
        <r>  0.1922  0.0438  0.0006  0.0006  0.0000  0.0000  0.0000  0.0000  0.0000 </r>
        <r>  0.1922  0.0437  0.0006  0.0006  0.0000  0.0000  0.0000  0.0000  0.0000 </r>
       </set>
       <set comment="band 3">
        <r>  0.0022  0.0087  0.0853  0.0853  0.0000  0.0000  0.0000  0.0000  0.0000 </r>
        <r>  0.0022  0.0087  0.0853  0.0853  0.0000  0.0000  0.0000  0.0000  0.0000 </r>
       </set>
       <set comment="band 4">
        <r>  0.0000  0.0000  0.0976  0.0976  0.0000  0.0000  0.0000  0.0000  0.0000 </r>
        <r>  0.0000  0.0000  0.0976  0.0976  0.0000  0.0000  0.0000  0.0000  0.0000 </r>
       </set>
       <set comment="band 5">
        <r>  0.0512  0.0366  0.0001  0.0001  0.0000  0.0000  0.0000  0.0000  0.0000 </r>
        <r>  0.0512  0.0366  0.0001  0.0001  0.0000  0.0000  0.0000  0.0000  0.0000 </r>
       </set>
       <set comment="band 6">
        <r>  0.0448  0.0301  0.0117  0.0117  0.0000  0.0000  0.0000  0.0000  0.0000 </r>
        <r>  0.0448  0.0301  0.0117  0.0117  0.0000  0.0000  0.0000  0.0000  0.0000 </r>
       </set>
       <set comment="band 7">
        <r>  0.0000  0.0000  0.1015  0.1015  0.0000  0.0000  0.0000  0.0000  0.0000 </r>
        <r>  0.0000  0.0000  0.1015  0.1015  0.0000  0.0000  0.0000  0.0000  0.0000 </r>
       </set>
       <set comment="band 8">
        <r>  0.0131  0.0137  0.1062  0.1062  0.0000  0.0000  0.0000  0.0000  0.0000 </r>
        <r>  0.0131  0.0137  0.1062  0.1062  0.0000  0.0000  0.0000  0.0000  0.0000 </r>
       </set>
       <set comment="band 9">
        <r>  0.0152  0.0527  0.0030  0.0030  0.0000  0.0000  0.0000  0.0000  0.0000 </r>
        <r>  0.0152  0.0527  0.0030  0.0030  0.0000  0.0000  0.0000  0.0000  0.0000 </r>
       </set>
       <set comment="band 10">
        <r>  0.0000  0.0000  0.0056  0.0056  0.0000  0.0000  0.0000  0.0000  0.0000 </r>
        <r>  0.0000  0.0000  0.0056  0.0056  0.0000  0.0000  0.0000  0.0000  0.0000 </r>
       </set>
       <set comment="band 11">
        <r>  0.0000  0.0000  0.0001  0.0001  0.0000  0.0000  0.0000  0.0000  0.0000 </r>
        <r>  0.0000  0.0000  0.0001  0.0001  0.0000  0.0000  0.0000  0.0000  0.0000 </r>
       </set>
       <set comment="band 12">
        <r>  0.0000  0.0000  0.0192  0.0192  0.0000  0.0000  0.0000  0.0000  0.0000 </r>
        <r>  0.0000  0.0000  0.0192  0.0192  0.0000  0.0000  0.0000  0.0000  0.0000 </r>
       </set>
       <set comment="band 13">
        <r>  0.0443  0.1943  0.0122  0.0122  0.0000  0.0000  0.0000  0.0000  0.0000 </r>
        <r>  0.0443  0.1943  0.0122  0.0122  0.0000  0.0000  0.0000  0.0000  0.0000 </r>
       </set>
       <set comment="band 14">
        <r>  0.0421  0.1552  0.0031  0.0031  0.0000  0.0000  0.0000  0.0000  0.0000 </r>
        <r>  0.0421  0.1552  0.0031  0.0031  0.0000  0.0000  0.0000  0.0000  0.0000 </r>
       </set>
       <set comment="band 15">
        <r>  0.0099  0.0014  0.0036  0.0037  0.0000  0.0000  0.0000  0.0000  0.0000 </r>
        <r>  0.0098  0.0014  0.0037  0.0036  0.0000  0.0000  0.0000  0.0000  0.0000 </r>
       </set>
       <set comment="band 16">
        <r>  0.0001  0.0047  0.0109  0.0109  0.0000  0.0000  0.0000  0.0000  0.0000 </r>
        <r>  0.0001  0.0047  0.0109  0.0109  0.0000  0.0000  0.0000  0.0000  0.0000 </r>
       </set>
      </set>
      <set comment="kpoint 162">
       <set comment="band 1">
        <r>  0.1948  0.0428  0.0002  0.0002  0.0000  0.0000  0.0000  0.0000  0.0000 </r>
        <r>  0.1947  0.0428  0.0002  0.0002  0.0000  0.0000  0.0000  0.0000  0.0000 </r>
       </set>
       <set comment="band 2">
        <r>  0.1927  0.0438  0.0003  0.0003  0.0000  0.0000  0.0000  0.0000  0.0000 </r>
        <r>  0.1928  0.0438  0.0003  0.0003  0.0000  0.0000  0.0000  0.0000  0.0000 </r>
       </set>
       <set comment="band 3">
        <r>  0.0014  0.0043  0.0911  0.0911  0.0000  0.0000  0.0000  0.0000  0.0000 </r>
        <r>  0.0014  0.0043  0.0911  0.0911  0.0000  0.0000  0.0000  0.0000  0.0000 </r>
       </set>
       <set comment="band 4">
        <r>  0.0000  0.0000  0.0975  0.0975  0.0000  0.0000  0.0000  0.0000  0.0000 </r>
        <r>  0.0000  0.0000  0.0975  0.0975  0.0000  0.0000  0.0000  0.0000  0.0000 </r>
       </set>
       <set comment="band 5">
        <r>  0.0512  0.0364  0.0000  0.0000  0.0000  0.0000  0.0000  0.0000  0.0000 </r>
        <r>  0.0512  0.0364  0.0000  0.0000  0.0000  0.0000  0.0000  0.0000  0.0000 </r>
       </set>
       <set comment="band 6">
        <r>  0.0479  0.0330  0.0061  0.0061  0.0000  0.0000  0.0000  0.0000  0.0000 </r>
        <r>  0.0479  0.0330  0.0061  0.0061  0.0000  0.0000  0.0000  0.0000  0.0000 </r>
       </set>
       <set comment="band 7">
        <r>  0.0000  0.0000  0.1092  0.1092  0.0000  0.0000  0.0000  0.0000  0.0000 </r>
        <r>  0.0000  0.0000  0.1092  0.1092  0.0000  0.0000  0.0000  0.0000  0.0000 </r>
       </set>
       <set comment="band 8">
        <r>  0.0066  0.0073  0.1129  0.1129  0.0000  0.0000  0.0000  0.0000  0.0000 </r>
        <r>  0.0066  0.0073  0.1129  0.1129  0.0000  0.0000  0.0000  0.0000  0.0000 </r>
       </set>
       <set comment="band 9">
        <r>  0.0098  0.0343  0.0039  0.0039  0.0000  0.0000  0.0000  0.0000  0.0000 </r>
        <r>  0.0098  0.0343  0.0039  0.0039  0.0000  0.0000  0.0000  0.0000  0.0000 </r>
       </set>
       <set comment="band 10">
        <r>  0.0000  0.0000  0.0055  0.0055  0.0000  0.0000  0.0000  0.0000  0.0000 </r>
        <r>  0.0000  0.0000  0.0055  0.0055  0.0000  0.0000  0.0000  0.0000  0.0000 </r>
       </set>
       <set comment="band 11">
        <r>  0.0000  0.0000  0.0111  0.0111  0.0000  0.0000  0.0000  0.0000  0.0000 </r>
        <r>  0.0000  0.0000  0.0111  0.0111  0.0000  0.0000  0.0000  0.0000  0.0000 </r>
       </set>
       <set comment="band 12">
        <r>  0.0000  0.0000  0.0001  0.0001  0.0000  0.0000  0.0000  0.0000  0.0000 </r>
        <r>  0.0000  0.0000  0.0001  0.0001  0.0000  0.0000  0.0000  0.0000  0.0000 </r>
       </set>
       <set comment="band 13">
        <r>  0.0507  0.2004  0.0064  0.0064  0.0000  0.0000  0.0000  0.0000  0.0000 </r>
        <r>  0.0507  0.2003  0.0064  0.0064  0.0000  0.0000  0.0000  0.0000  0.0000 </r>
       </set>
       <set comment="band 14">
        <r>  0.0475  0.1732  0.0018  0.0018  0.0000  0.0000  0.0000  0.0000  0.0000 </r>
        <r>  0.0475  0.1732  0.0018  0.0018  0.0000  0.0000  0.0000  0.0000  0.0000 </r>
       </set>
       <set comment="band 15">
        <r>  0.0085  0.0016  0.0030  0.0030  0.0000  0.0000  0.0000  0.0000  0.0000 </r>
        <r>  0.0086  0.0016  0.0030  0.0030  0.0000  0.0000  0.0000  0.0000  0.0000 </r>
       </set>
       <set comment="band 16">
        <r>  0.0009  0.0039  0.0074  0.0075  0.0000  0.0000  0.0000  0.0000  0.0000 </r>
        <r>  0.0009  0.0039  0.0076  0.0074  0.0000  0.0000  0.0000  0.0000  0.0000 </r>
       </set>
      </set>
      <set comment="kpoint 163">
       <set comment="band 1">
        <r>  0.1938  0.0436  0.0000  0.0000  0.0000  0.0000  0.0000  0.0000  0.0000 </r>
        <r>  0.1935  0.0437  0.0000  0.0000  0.0000  0.0000  0.0000  0.0000  0.0000 </r>
       </set>
       <set comment="band 2">
        <r>  0.1930  0.0439  0.0001  0.0001  0.0000  0.0000  0.0000  0.0000  0.0000 </r>
        <r>  0.1933  0.0439  0.0001  0.0001  0.0000  0.0000  0.0000  0.0000  0.0000 </r>
       </set>
       <set comment="band 3">
        <r>  0.0004  0.0012  0.0957  0.0957  0.0000  0.0000  0.0000  0.0000  0.0000 </r>
        <r>  0.0004  0.0012  0.0957  0.0957  0.0000  0.0000  0.0000  0.0000  0.0000 </r>
       </set>
       <set comment="band 4">
        <r>  0.0000  0.0000  0.0975  0.0975  0.0000  0.0000  0.0000  0.0000  0.0000 </r>
        <r>  0.0000  0.0000  0.0975  0.0975  0.0000  0.0000  0.0000  0.0000  0.0000 </r>
       </set>
       <set comment="band 5">
        <r>  0.0511  0.0363  0.0000  0.0000  0.0000  0.0000  0.0000  0.0000  0.0000 </r>
        <r>  0.0511  0.0363  0.0000  0.0000  0.0000  0.0000  0.0000  0.0000  0.0000 </r>
       </set>
       <set comment="band 6">
        <r>  0.0502  0.0353  0.0017  0.0017  0.0000  0.0000  0.0000  0.0000  0.0000 </r>
        <r>  0.0502  0.0353  0.0017  0.0017  0.0000  0.0000  0.0000  0.0000  0.0000 </r>
       </set>
       <set comment="band 7">
        <r>  0.0000  0.0000  0.1166  0.1166  0.0000  0.0000  0.0000  0.0000  0.0000 </r>
        <r>  0.0000  0.0000  0.1166  0.1166  0.0000  0.0000  0.0000  0.0000  0.0000 </r>
       </set>
       <set comment="band 8">
        <r>  0.0018  0.0021  0.1180  0.1180  0.0000  0.0000  0.0000  0.0000  0.0000 </r>
        <r>  0.0018  0.0021  0.1180  0.1180  0.0000  0.0000  0.0000  0.0000  0.0000 </r>
       </set>
       <set comment="band 9">
        <r>  0.0035  0.0123  0.0050  0.0050  0.0000  0.0000  0.0000  0.0000  0.0000 </r>
        <r>  0.0035  0.0123  0.0050  0.0050  0.0000  0.0000  0.0000  0.0000  0.0000 </r>
       </set>
       <set comment="band 10">
        <r>  0.0000  0.0000  0.0055  0.0055  0.0000  0.0000  0.0000  0.0000  0.0000 </r>
        <r>  0.0000  0.0000  0.0055  0.0055  0.0000  0.0000  0.0000  0.0000  0.0000 </r>
       </set>
       <set comment="band 11">
        <r>  0.0000  0.0000  0.0034  0.0034  0.0000  0.0000  0.0000  0.0000  0.0000 </r>
        <r>  0.0000  0.0000  0.0034  0.0034  0.0000  0.0000  0.0000  0.0000  0.0000 </r>
       </set>
       <set comment="band 12">
        <r>  0.0000  0.0000  0.0001  0.0001  0.0000  0.0000  0.0000  0.0000  0.0000 </r>
        <r>  0.0000  0.0000  0.0001  0.0001  0.0000  0.0000  0.0000  0.0000  0.0000 </r>
       </set>
       <set comment="band 13">
        <r>  0.0554  0.2054  0.0018  0.0018  0.0000  0.0000  0.0000  0.0000  0.0000 </r>
        <r>  0.0554  0.2054  0.0018  0.0018  0.0000  0.0000  0.0000  0.0000  0.0000 </r>
       </set>
       <set comment="band 14">
        <r>  0.0537  0.1951  0.0006  0.0006  0.0000  0.0000  0.0000  0.0000  0.0000 </r>
        <r>  0.0537  0.1951  0.0006  0.0006  0.0000  0.0000  0.0000  0.0000  0.0000 </r>
       </set>
       <set comment="band 15">
        <r>  0.0075  0.0021  0.0014  0.0011  0.0000  0.0000  0.0000  0.0000  0.0000 </r>
        <r>  0.0079  0.0021  0.0016  0.0013  0.0000  0.0000  0.0000  0.0000  0.0000 </r>
       </set>
       <set comment="band 16">
        <r>  0.0049  0.0029  0.0024  0.0029  0.0000  0.0000  0.0000  0.0000  0.0000 </r>
        <r>  0.0047  0.0029  0.0033  0.0021  0.0000  0.0000  0.0000  0.0000  0.0000 </r>
       </set>
      </set>
      <set comment="kpoint 164">
       <set comment="band 1">
        <r>  0.3865  0.0000  0.0000  0.0000  0.0000  0.0000  0.0000  0.0000  0.0000 </r>
        <r>  0.0000  0.0878  0.0000  0.0000  0.0000  0.0000  0.0000  0.0000  0.0000 </r>
       </set>
       <set comment="band 2">
        <r>  0.0000  0.0878  0.0000  0.0000  0.0000  0.0000  0.0000  0.0000  0.0000 </r>
        <r>  0.3865  0.0000  0.0000  0.0000  0.0000  0.0000  0.0000  0.0000  0.0000 </r>
       </set>
       <set comment="band 3">
        <r>  0.0000  0.0000  0.0220  0.1730  0.0000  0.0000  0.0000  0.0000  0.0000 </r>
        <r>  0.0000  0.0000  0.1730  0.0220  0.0000  0.0000  0.0000  0.0000  0.0000 </r>
       </set>
       <set comment="band 4">
        <r>  0.0000  0.0000  0.1730  0.0220  0.0000  0.0000  0.0000  0.0000  0.0000 </r>
        <r>  0.0000  0.0000  0.0220  0.1730  0.0000  0.0000  0.0000  0.0000  0.0000 </r>
       </set>
       <set comment="band 5">
        <r>  0.1021  0.0001  0.0000  0.0000  0.0000  0.0000  0.0000  0.0000  0.0000 </r>
        <r>  0.0001  0.0724  0.0000  0.0000  0.0000  0.0000  0.0000  0.0000  0.0000 </r>
       </set>
       <set comment="band 6">
        <r>  0.0001  0.0724  0.0000  0.0000  0.0000  0.0000  0.0000  0.0000  0.0000 </r>
        <r>  0.1021  0.0001  0.0000  0.0000  0.0000  0.0000  0.0000  0.0000  0.0000 </r>
       </set>
       <set comment="band 7">
        <r>  0.0000  0.0000  0.0924  0.1475  0.0000  0.0000  0.0000  0.0000  0.0000 </r>
        <r>  0.0000  0.0000  0.1475  0.0924  0.0000  0.0000  0.0000  0.0000  0.0000 </r>
       </set>
       <set comment="band 8">
        <r>  0.0000  0.0000  0.1475  0.0924  0.0000  0.0000  0.0000  0.0000  0.0000 </r>
        <r>  0.0000  0.0000  0.0924  0.1475  0.0000  0.0000  0.0000  0.0000  0.0000 </r>
       </set>
       <set comment="band 9">
        <r>  0.0000  0.0000  0.0078  0.0032  0.0000  0.0000  0.0000  0.0000  0.0000 </r>
        <r>  0.0000  0.0000  0.0032  0.0078  0.0000  0.0000  0.0000  0.0000  0.0000 </r>
       </set>
       <set comment="band 10">
        <r>  0.0000  0.0000  0.0032  0.0078  0.0000  0.0000  0.0000  0.0000  0.0000 </r>
        <r>  0.0000  0.0000  0.0078  0.0032  0.0000  0.0000  0.0000  0.0000  0.0000 </r>
       </set>
       <set comment="band 11">
        <r>  0.0000  0.0000  0.0000  0.0000  0.0000  0.0000  0.0000  0.0000  0.0000 </r>
        <r>  0.0000  0.0000  0.0000  0.0000  0.0000  0.0000  0.0000  0.0000  0.0000 </r>
       </set>
       <set comment="band 12">
        <r>  0.0000  0.0000  0.0000  0.0000  0.0000  0.0000  0.0000  0.0000  0.0000 </r>
        <r>  0.0000  0.0000  0.0000  0.0000  0.0000  0.0000  0.0000  0.0000  0.0000 </r>
       </set>
       <set comment="band 13">
        <r>  0.0000  0.4147  0.0000  0.0000  0.0000  0.0000  0.0000  0.0000  0.0000 </r>
        <r>  0.1145  0.0000  0.0000  0.0000  0.0000  0.0000  0.0000  0.0000  0.0000 </r>
       </set>
       <set comment="band 14">
        <r>  0.1145  0.0000  0.0000  0.0000  0.0000  0.0000  0.0000  0.0000  0.0000 </r>
        <r>  0.0000  0.4147  0.0000  0.0000  0.0000  0.0000  0.0000  0.0000  0.0000 </r>
       </set>
       <set comment="band 15">
        <r>  0.0105  0.0015  0.0000  0.0000  0.0000  0.0000  0.0000  0.0000  0.0000 </r>
        <r>  0.0042  0.0036  0.0000  0.0000  0.0000  0.0000  0.0000  0.0000  0.0000 </r>
       </set>
       <set comment="band 16">
        <r>  0.0043  0.0035  0.0000  0.0000  0.0000  0.0000  0.0000  0.0000  0.0000 </r>
        <r>  0.0108  0.0014  0.0000  0.0000  0.0000  0.0000  0.0000  0.0000  0.0000 </r>
       </set>
      </set>
     </set>
    </set>
   </array>
  </projected>
 </calculation>
 <structure name="finalpos" >
  <crystal>
   <varray name="basis" >
    <v>       0.00000000       2.73477200       2.73477200 </v>
    <v>       2.73477200       0.00000000       2.73477200 </v>
    <v>       2.73477200       2.73477200       0.00000000 </v>
   </varray>
   <i name="volume">     40.90659866 </i>
   <varray name="rec_basis" >
    <v>      -0.18283060       0.18283060       0.18283060 </v>
    <v>       0.18283060      -0.18283060       0.18283060 </v>
    <v>       0.18283060       0.18283060      -0.18283060 </v>
   </varray>
  </crystal>
  <varray name="positions" >
   <v>       0.00000000       0.00000000       0.00000000 </v>
   <v>       0.25000000       0.25000000       0.25000000 </v>
  </varray>
  <varray name="selective"  type="logical" >
   <v type="logical" >  T  T  T </v>
   <v type="logical" >  F  F  F </v>
  </varray>
 </structure>
</modeling>
