 running on    8 nodes
 distr:  one band on    8 nodes,    1 groups
 vasp.5.2.11 01Dec10 complex 
 POSCAR found type information on POSCAR  Fe O 
 POSCAR found :  2 types and       8 ions

 ----------------------------------------------------------------------------- 
|                                                                             |
|  ADVICE TO THIS USER RUNNING 'VASP/VAMP'   (HEAR YOUR MASTER'S VOICE ...):  |
|                                                                             |
|      You have a (more or less) 'small supercell' and for smaller cells      |
|      it is recommended  to use the reciprocal-space projection scheme!      |
|      The real space optimization is not  efficient for small cells and it   |
|      is also less accurate ...                                              |
|      Therefore set LREAL=.FALSE. in the  INCAR file                         |
|                                                                             |
 ----------------------------------------------------------------------------- 

 LDA part: xc-table for Pade appr. of Perdew
 POSCAR, INCAR and KPOINTS ok, starting setup
 FFT: planning ...(           4 )
 WAVECAR not read
 WARNING: chargedensity file is incomplete
 entering main loop
       N       E                     dE             d eps       ncg     rms          rms(c)
DAV:   1     0.117364980023E+04    0.11736E+04   -0.40370E+04  4736   0.179E+03
DAV:   2     0.897299368044E+02   -0.10839E+04   -0.99559E+03  4536   0.553E+02
DAV:   3    -0.617471988853E+02   -0.15148E+03   -0.13751E+03  4904   0.213E+02
DAV:   4    -0.706112890711E+02   -0.88641E+01   -0.86140E+01  5449   0.530E+01
DAV:   5    -0.708154877572E+02   -0.20420E+00   -0.20376E+00  5449   0.873E+00    0.263E+01
RMM:   6    -0.661175039936E+02    0.46980E+01   -0.55924E+01  4587   0.455E+01    0.343E+01
RMM:   7    -0.125671281825E+03   -0.59554E+02   -0.27379E+01  5289   0.269E+01    0.894E+01
RMM:   8    -0.541066579864E+03   -0.41540E+03   -0.10339E+03  5897   0.217E+02    0.117E+02
RMM:   9    -0.497426919396E+03    0.43640E+02   -0.23072E+03  5852   0.348E+02    0.114E+02
  WARNING: DENTET: can't reach specified precision
  Number of Electrons is NELECT =   79.9948086087416     
RMM:  10    -0.548577903987E+03   -0.51151E+02   -0.24181E+03  6005   0.350E+02    0.115E+02
RMM:  11    -0.561976481137E+03   -0.13399E+02   -0.36567E+03  6243   0.448E+02    0.104E+02
RMM:  12    -0.379994457752E+03    0.18198E+03   -0.31764E+03  6419   0.459E+02    0.834E+01
RMM:  13    -0.181006199185E+03    0.19899E+03   -0.25229E+03  6924   0.413E+02    0.608E+01
RMM:  14    -0.214834280071E+03   -0.33828E+02   -0.17946E+03  6917   0.282E+02    0.830E+01
RMM:  15    -0.453641287868E+03   -0.23881E+03   -0.13730E+03  6191   0.188E+02    0.108E+02
RMM:  16    -0.490909666038E+03   -0.37268E+02   -0.29482E+03  6280   0.427E+02    0.105E+02
RMM:  17    -0.371297406364E+03    0.11961E+03   -0.30456E+03  6438   0.475E+02    0.811E+01
RMM:  18    -0.169569649710E+03    0.20173E+03   -0.19411E+03  6574   0.394E+02    0.622E+01
RMM:  19    -0.266505983552E+03   -0.96936E+02   -0.14571E+03  6643   0.229E+02    0.944E+01
RMM:  20    -0.554540209696E+03   -0.28803E+03   -0.18082E+03  6427   0.260E+02    0.113E+02
RMM:  21    -0.448571683256E+03    0.10597E+03   -0.27011E+03  6168   0.417E+02    0.102E+02
RMM:  22    -0.413002016536E+03    0.35570E+02   -0.31337E+03  6379   0.458E+02    0.907E+01
RMM:  23    -0.279427158805E+03    0.13357E+03   -0.24663E+03  6326   0.411E+02    0.778E+01
RMM:  24    -0.299633859919E+03   -0.20207E+02   -0.23638E+03  6858   0.371E+02    0.851E+01
RMM:  25    -0.415251950467E+03   -0.11562E+03   -0.19196E+03  6669   0.280E+02    0.106E+02
RMM:  26    -0.568620918187E+03   -0.15337E+03   -0.25612E+03  6296   0.353E+02    0.116E+02
RMM:  27    -0.510481476840E+03    0.58139E+02   -0.32711E+03  6175   0.461E+02    0.101E+02
RMM:  28    -0.398721539964E+03    0.11176E+03   -0.31684E+03  6300   0.462E+02    0.943E+01
RMM:  29    -0.418152829522E+03   -0.19431E+02   -0.35495E+03  6941   0.460E+02    0.901E+01
RMM:  30    -0.325062900727E+03    0.93090E+02   -0.23067E+03  6437   0.370E+02    0.922E+01
RMM:  31    -0.493381350220E+03   -0.16832E+03   -0.34245E+03  6899   0.410E+02    0.104E+02
RMM:  32    -0.488417527285E+03    0.49638E+01   -0.30733E+03  6467   0.421E+02    0.104E+02
RMM:  33    -0.437665717071E+03    0.50752E+02   -0.31419E+03  6365   0.442E+02    0.930E+01
RMM:  34    -0.273425426501E+03    0.16424E+03   -0.26837E+03  6565   0.438E+02    0.739E+01
RMM:  35    -0.215224939750E+03    0.58200E+02   -0.20249E+03  6690   0.361E+02    0.763E+01
RMM:  36    -0.384766723301E+03   -0.16954E+03   -0.18043E+03  6643   0.247E+02    0.104E+02
RMM:  37    -0.593303132801E+03   -0.20854E+03   -0.27053E+03  6450   0.362E+02    0.117E+02
RMM:  38    -0.507432627866E+03    0.85871E+02   -0.31907E+03  6138   0.452E+02    0.104E+02
RMM:  39    -0.440714811213E+03    0.66718E+02   -0.33916E+03  6347   0.474E+02    0.973E+01
RMM:  40    -0.411029948317E+03    0.29685E+02   -0.35108E+03  6706   0.467E+02    0.881E+01
RMM:  41    -0.259492667001E+03    0.15154E+03   -0.23493E+03  6481   0.390E+02    0.774E+01
RMM:  42    -0.316470541184E+03   -0.56978E+02   -0.24950E+03  6880   0.366E+02    0.936E+01
  WARNING: DENTET: can't reach specified precision
  Number of Electrons is NELECT =   80.0042928422225     
RMM:  43    -0.505705241698E+03   -0.18923E+03   -0.22040E+03  6437   0.289E+02    0.112E+02
RMM:  44    -0.554044392941E+03   -0.48339E+02   -0.31423E+03  6237   0.422E+02    0.110E+02
RMM:  45    -0.460048934649E+03    0.93995E+02   -0.33364E+03  6225   0.476E+02    0.971E+01
RMM:  46    -0.331043376758E+03    0.12901E+03   -0.31323E+03  6562   0.471E+02    0.842E+01
RMM:  47    -0.272426548472E+03    0.58617E+02   -0.25349E+03  6764   0.400E+02    0.815E+01
RMM:  48    -0.366167475580E+03   -0.93741E+02   -0.23989E+03  6838   0.340E+02    0.992E+01
RMM:  49    -0.555358972845E+03   -0.18919E+03   -0.28299E+03  6655   0.355E+02    0.114E+02
RMM:  50    -0.539579317276E+03    0.15780E+02   -0.31982E+03  6225   0.435E+02    0.107E+02
RMM:  51    -0.449411847426E+03    0.90167E+02   -0.33677E+03  6298   0.473E+02    0.970E+01
RMM:  52    -0.367288487193E+03    0.82123E+02   -0.32900E+03  6792   0.470E+02    0.848E+01
RMM:  53    -0.278929944672E+03    0.88359E+02   -0.21735E+03  6513   0.371E+02    0.851E+01
  WARNING: DENTET: can't reach specified precision
  Number of Electrons is NELECT =   80.0071747717733     
RMM:  54    -0.441124189143E+03   -0.16219E+03   -0.28088E+03  6805   0.354E+02    0.104E+02
RMM:  55    -0.565602187435E+03   -0.12448E+03   -0.30854E+03  6515   0.396E+02    0.112E+02
RMM:  56    -0.500827568722E+03    0.64775E+02   -0.34612E+03  6286   0.468E+02    0.979E+01
RMM:  57    -0.318675530380E+03    0.18215E+03   -0.29945E+03  6429   0.470E+02    0.837E+01
RMM:  58    -0.304855360679E+03    0.13820E+02   -0.29342E+03  6965   0.422E+02    0.810E+01
RMM:  59    -0.344959835617E+03   -0.40104E+02   -0.22546E+03  6927   0.330E+02    0.969E+01
RMM:  60    -0.531374353813E+03   -0.18641E+03   -0.23366E+03  6601   0.309E+02    0.114E+02
RMM:  61    -0.542978258683E+03   -0.11604E+02   -0.30808E+03  6207   0.424E+02    0.109E+02
  WARNING: DENTET: can't reach specified precision
  Number of Electrons is NELECT =   79.9956545117752     
RMM:  62    -0.477773823323E+03    0.65204E+02   -0.33945E+03  6260   0.470E+02    0.100E+02
RMM:  63    -0.396097151392E+03    0.81677E+02   -0.34213E+03  6652   0.485E+02    0.879E+01
RMM:  64    -0.291710647338E+03    0.10439E+03   -0.26077E+03  6632   0.403E+02    0.809E+01
RMM:  65    -0.335032678110E+03   -0.43322E+02   -0.25246E+03  6816   0.363E+02    0.919E+01
RMM:  66    -0.480839623860E+03   -0.14581E+03   -0.25024E+03  6634   0.336E+02    0.109E+02
RMM:  67    -0.540836027255E+03   -0.59996E+02   -0.33577E+03  6483   0.444E+02    0.104E+02
RMM:  68    -0.384532901177E+03    0.15630E+03   -0.29171E+03  6216   0.448E+02    0.899E+01
RMM:  69    -0.328275813902E+03    0.56257E+02   -0.31296E+03  6787   0.449E+02    0.810E+01
RMM:  70    -0.290686818237E+03    0.37589E+02   -0.22198E+03  6615   0.355E+02    0.879E+01
RMM:  71    -0.458405361119E+03   -0.16772E+03   -0.24216E+03  6796   0.324E+02    0.108E+02
RMM:  72    -0.559818781698E+03   -0.10141E+03   -0.29412E+03  6384   0.397E+02    0.111E+02
RMM:  73    -0.473251580045E+03    0.86567E+02   -0.32337E+03  6186   0.451E+02    0.101E+02
RMM:  74    -0.414433104069E+03    0.58818E+02   -0.33102E+03  6387   0.472E+02    0.935E+01
RMM:  75    -0.330082447554E+03    0.84351E+02   -0.30365E+03  6641   0.441E+02    0.831E+01
RMM:  76    -0.279947580320E+03    0.50135E+02   -0.21619E+03  6620   0.361E+02    0.860E+01
RMM:  77    -0.439207432048E+03   -0.15926E+03   -0.24157E+03  6809   0.318E+02    0.106E+02
RMM:  78    -0.554655267967E+03   -0.11545E+03   -0.25892E+03  6450   0.356E+02    0.113E+02
RMM:  79    -0.490935530400E+03    0.63720E+02   -0.29501E+03  6132   0.424E+02    0.105E+02
RMM:  80    -0.453727484677E+03    0.37208E+02   -0.32235E+03  6274   0.457E+02    0.993E+01
RMM:  81    -0.404187886530E+03    0.49540E+02   -0.32937E+03  6672   0.455E+02    0.903E+01
RMM:  82    -0.309450498834E+03    0.94737E+02   -0.24284E+03  6422   0.389E+02    0.854E+01
RMM:  83    -0.382386925373E+03   -0.72936E+02   -0.26567E+03  6861   0.377E+02    0.957E+01
RMM:  84    -0.470297911431E+03   -0.87911E+02   -0.23059E+03  6467   0.330E+02    0.109E+02
RMM:  85    -0.533374366712E+03   -0.63076E+02   -0.34011E+03  6436   0.453E+02    0.994E+01
RMM:  86    -0.300892638911E+03    0.23248E+03   -0.27112E+03  6292   0.449E+02    0.813E+01
RMM:  87    -0.278972364582E+03    0.21920E+02   -0.27661E+03  6879   0.422E+02    0.708E+01
RMM:  88    -0.258472973751E+03    0.20499E+02   -0.17258E+03  6739   0.294E+02    0.890E+01
RMM:  89    -0.491426834694E+03   -0.23295E+03   -0.15130E+03  6286   0.217E+02    0.112E+02
RMM:  90    -0.524683392374E+03   -0.33257E+02   -0.25394E+03  6078   0.381E+02    0.113E+02
RMM:  91    -0.502570556253E+03    0.22113E+02   -0.31192E+03  6134   0.444E+02    0.103E+02
RMM:  92    -0.404493243446E+03    0.98077E+02   -0.30783E+03  6326   0.458E+02    0.938E+01
RMM:  93    -0.368354778835E+03    0.36138E+02   -0.31845E+03  6624   0.452E+02    0.842E+01
RMM:  94    -0.278528422607E+03    0.89826E+02   -0.22375E+03  6492   0.373E+02    0.836E+01
RMM:  95    -0.426559399168E+03   -0.14803E+03   -0.25023E+03  6791   0.330E+02    0.104E+02
RMM:  96    -0.553929560856E+03   -0.12737E+03   -0.27647E+03  6435   0.371E+02    0.112E+02
RMM:  97    -0.490254351066E+03    0.63675E+02   -0.31405E+03  6181   0.441E+02    0.103E+02
RMM:  98    -0.419051890354E+03    0.71202E+02   -0.32429E+03  6319   0.462E+02    0.930E+01
RMM:  99    -0.345637335633E+03    0.73415E+02   -0.30990E+03  6703   0.446E+02    0.828E+01
RMM: 100    -0.297300275525E+03    0.48337E+02   -0.22298E+03  6652   0.361E+02
   1 F= -.29730028E+03 E0= -.29730028E+03  d E =-.297300E+03  mag=    -0.8987
 curvature:   0.00 expect dE= 0.000E+00 dE for cont linesearch  0.000E+00
 trial: gam= 0.00000 g(F)=  0.544E-58 g(S)=  0.985E+04 ort = 0.000E+00 (trialstep = 0.100E+01)
 search vector abs. value=  0.985E+04
 bond charge predicted
       N       E                     dE             d eps       ncg     rms          rms(c)
DAV:   1     0.469347527379E+04    0.50391E+04   -0.35213E+04  8405   0.287E+02    0.521E+01
RMM:   2     0.429260996701E+04   -0.40087E+03   -0.52952E+03  6423   0.189E+02    0.345E+01
RMM:   3     0.437386287181E+04    0.81253E+02   -0.53666E+03  6325   0.149E+02    0.279E+01
RMM:   4     0.479900025218E+04    0.42514E+03    0.49899E+02  6104   0.420E+01    0.190E+01
RMM:   5     0.500002051262E+04    0.20102E+03    0.12607E+02  6180   0.723E+01    0.147E+01
RMM:   6     0.502535602621E+04    0.25336E+02   -0.19059E+02  5920   0.711E+01    0.115E+01
RMM:   7     0.504460171516E+04    0.19246E+02   -0.90559E+01  5849   0.544E+01    0.897E+00
RMM:   8     0.510337504575E+04    0.58773E+02    0.41571E+02  5709   0.470E+01    0.709E+00
RMM:   9     0.510170639770E+04   -0.16686E+01   -0.92848E+01  5945   0.650E+01    0.564E+00
RMM:  10     0.510835377202E+04    0.66474E+01    0.10330E+01  5819   0.561E+01    0.548E+00
RMM:  11     0.512888642631E+04    0.20533E+02    0.17886E+02  5831   0.544E+01    0.441E+00
RMM:  12     0.512896579897E+04    0.79373E-01   -0.24159E+01  5775   0.615E+01    0.354E+00
RMM:  13     0.513658960319E+04    0.76238E+01    0.89243E+01  5752   0.574E+01    0.304E+00
RMM:  14     0.512928056431E+04   -0.73090E+01   -0.44813E+01  5720   0.585E+01    0.255E+00
  WARNING: DENTET: can't reach specified precision
  Number of Electrons is NELECT =   80.0026635967496     
RMM:  15     0.513408740917E+04    0.48068E+01    0.68753E+01  5756   0.534E+01    0.249E+00
RMM:  16     0.101896067784E+02   -0.51239E+04   -0.13907E+04  6885   0.441E+02    0.859E+00
RMM:  17     0.488339605540E+04    0.48732E+04   -0.26905E+03  7125   0.964E+01    0.399E+00
RMM:  18     0.511070414660E+04    0.22731E+03   -0.28223E+02  6583   0.674E+01    0.544E+00
RMM:  19     0.514232019332E+04    0.31616E+02    0.71468E+01  6047   0.612E+01    0.420E+00
RMM:  20     0.513427429736E+04   -0.80459E+01   -0.75190E+01  5902   0.598E+01    0.237E+00
RMM:  21     0.513811913561E+04    0.38448E+01    0.81943E+01  5792   0.524E+01    0.249E+00
RMM:  22     0.514298074768E+04    0.48616E+01    0.67654E+01  5680   0.549E+01    0.308E+00
RMM:  23     0.513925811213E+04   -0.37226E+01   -0.83934E+00  5672   0.572E+01    0.205E+00
RMM:  24     0.514766018806E+04    0.84021E+01    0.11463E+02  5809   0.543E+01    0.136E+00
RMM:  25     0.513696721074E+04   -0.10693E+02   -0.59946E+01  5801   0.580E+01    0.190E+00
RMM:  26     0.514112247042E+04    0.41553E+01    0.81075E+01  5628   0.524E+01    0.143E+00
RMM:  27     0.513812928679E+04   -0.29932E+01    0.57267E+00  5717   0.542E+01    0.222E+00
RMM:  28     0.514276392462E+04    0.46346E+01    0.80402E+01  5588   0.531E+01    0.167E+00
RMM:  29     0.514004590390E+04   -0.27180E+01    0.61245E+00  5764   0.552E+01    0.188E+00
RMM:  30     0.513697497560E+04   -0.30709E+01    0.13564E+01  5637   0.537E+01    0.193E+00
RMM:  31     0.514045053549E+04    0.34756E+01    0.61648E+01  5685   0.524E+01    0.976E-01
RMM:  32     0.514318985116E+04    0.27393E+01    0.66192E+01  5743   0.538E+01    0.252E+00
RMM:  33     0.514098918428E+04   -0.22007E+01    0.73560E+00  5615   0.559E+01    0.148E+00
RMM:  34     0.514026473792E+04   -0.72445E+00    0.27245E+01  5756   0.541E+01    0.187E+00
RMM:  35     0.513527910505E+04   -0.49856E+01   -0.59371E+00  5653   0.538E+01    0.197E+00
RMM:  36     0.513662864669E+04    0.13495E+01    0.38404E+01  5682   0.513E+01    0.121E+00
RMM:  37     0.514282868889E+04    0.62000E+01    0.10602E+02  5699   0.513E+01    0.268E+00
RMM:  38     0.514533968554E+04    0.25110E+01    0.56168E+01  5628   0.560E+01    0.151E+00
RMM:  39     0.513888695035E+04   -0.64527E+01   -0.30886E+01  5771   0.563E+01    0.187E+00
RMM:  40     0.513467470817E+04   -0.42122E+01    0.82824E-01  5622   0.525E+01    0.200E+00
RMM:  41     0.513599363937E+04    0.13189E+01    0.44233E+01  5663   0.503E+01    0.111E+00
RMM:  42     0.514219708274E+04    0.62034E+01    0.10191E+02  5670   0.511E+01    0.265E+00
RMM:  43     0.514201925843E+04   -0.17782E+00    0.28751E+01  5611   0.557E+01    0.145E+00
RMM:  44     0.513971273312E+04   -0.23065E+01    0.13012E+01  5765   0.545E+01    0.203E+00
RMM:  45     0.513978433651E+04    0.71603E-01    0.40653E+01  5608   0.538E+01    0.183E+00
RMM:  46     0.513975640894E+04   -0.27928E-01    0.27177E+01  5702   0.539E+01    0.788E-01
RMM:  47     0.513589833891E+04   -0.38581E+01    0.62073E+00  5696   0.529E+01    0.224E+00
RMM:  48     0.514163172186E+04    0.57334E+01    0.85807E+01  5662   0.520E+01    0.117E+00
RMM:  49     0.513775244282E+04   -0.38793E+01   -0.12539E+00  5771   0.538E+01    0.219E+00
RMM:  50     0.513335366930E+04   -0.43988E+01   -0.62416E+00  5531   0.521E+01    0.180E+00
RMM:  51     0.513858080453E+04    0.52271E+01    0.80281E+01  5683   0.500E+01    0.128E+00
RMM:  52     0.513525298812E+04   -0.33278E+01    0.75686E+00  5635   0.530E+01    0.189E+00
RMM:  53     0.514366842827E+04    0.84154E+01    0.11352E+02  5739   0.516E+01    0.915E-01
RMM:  54     0.513167179223E+04   -0.11997E+02   -0.78276E+01  5725   0.546E+01    0.213E+00
RMM:  55     0.514310544754E+04    0.11434E+02    0.14927E+02  5604   0.493E+01    0.173E+00
RMM:  56     0.514367520915E+04    0.56976E+00    0.32970E+01  5740   0.556E+01    0.181E+00
RMM:  57     0.513751256713E+04   -0.61626E+01   -0.19011E+01  5654   0.557E+01    0.181E+00
RMM:  58     0.513797736252E+04    0.46480E+00    0.37592E+01  5718   0.520E+01    0.111E+00
RMM:  59     0.513897899207E+04    0.10016E+01    0.54309E+01  5656   0.522E+01    0.211E+00
RMM:  60     0.514115588302E+04    0.21769E+01    0.49034E+01  5701   0.538E+01    0.162E+00
RMM:  61     0.513934933639E+04   -0.18065E+01    0.17617E+01  5746   0.539E+01    0.237E+00
RMM:  62     0.514041110878E+04    0.10618E+01    0.53314E+01  5589   0.533E+01    0.174E+00
RMM:  63     0.513487557422E+04   -0.55355E+01   -0.23196E+01  5739   0.533E+01    0.156E+00
RMM:  64     0.513564793592E+04    0.77236E+00    0.52831E+01  5631   0.504E+01    0.190E+00
RMM:  65     0.514454577257E+04    0.88978E+01    0.12091E+02  5665   0.517E+01    0.114E+00
RMM:  66     0.513702850790E+04   -0.75173E+01   -0.35896E+01  5767   0.556E+01    0.263E+00
RMM:  67     0.514828462662E+04    0.11256E+02    0.14806E+02  5528   0.527E+01    0.161E+00
RMM:  68     0.513127646873E+04   -0.17008E+02   -0.13484E+02  5798   0.573E+01    0.208E+00
RMM:  69     0.513269861375E+04    0.14221E+01    0.60419E+01  5564   0.482E+01    0.195E+00
RMM:  70     0.513956502357E+04    0.68664E+01    0.94666E+01  5700   0.498E+01    0.777E-01
RMM:  71     0.513795220833E+04   -0.16128E+01    0.26521E+01  5722   0.535E+01    0.247E+00
RMM:  72     0.514314424206E+04    0.51920E+01    0.75478E+01  5676   0.536E+01    0.137E+00
RMM:  73     0.513665576044E+04   -0.64885E+01   -0.26637E+01  5743   0.549E+01    0.221E+00
RMM:  74     0.514389165421E+04    0.72359E+01    0.11156E+02  5586   0.522E+01    0.178E+00
RMM:  75     0.513481031274E+04   -0.90813E+01   -0.62636E+01  5726   0.556E+01    0.995E-01
  WARNING: DENTET: can't reach specified precision
  Number of Electrons is NELECT =   80.0041348058255     
RMM:  76     0.513706424492E+04    0.22539E+01    0.70896E+01  5632   0.503E+01    0.207E+00
RMM:  77     0.513485728972E+04   -0.22070E+01    0.58355E+00  5703   0.522E+01    0.101E+00
RMM:  78     0.513764167971E+04    0.27844E+01    0.69649E+01  5736   0.503E+01    0.230E+00
RMM:  79     0.514372793564E+04    0.60863E+01    0.89447E+01  5616   0.531E+01    0.174E+00
RMM:  80     0.513302137636E+04   -0.10707E+02   -0.74157E+01  5732   0.552E+01    0.152E+00
RMM:  81     0.514149555618E+04    0.84742E+01    0.13171E+02  5589   0.496E+01    0.189E+00
RMM:  82     0.514084868352E+04   -0.64687E+00    0.19980E+01  5733   0.548E+01    0.826E-01
RMM:  83     0.513961207438E+04   -0.12366E+01    0.31926E+01  5772   0.537E+01    0.236E+00
RMM:  84     0.513596557956E+04   -0.36465E+01   -0.66165E+00  5592   0.536E+01    0.164E+00
RMM:  85     0.513557958961E+04   -0.38599E+00    0.33544E+01  5707   0.509E+01    0.197E+00
  WARNING: DENTET: can't reach specified precision
  Number of Electrons is NELECT =   80.0008107774238     
RMM:  86     0.514143882315E+04    0.58592E+01    0.10098E+02  5642   0.515E+01    0.181E+00
  WARNING: DENTET: can't reach specified precision
  Number of Electrons is NELECT =   80.0028288184554     
RMM:  87     0.514025781147E+04   -0.11810E+01    0.16742E+01  5731   0.545E+01    0.817E-01
RMM:  88     0.513848827834E+04   -0.17695E+01    0.28481E+01  5657   0.532E+01    0.228E+00
RMM:  89     0.514045761054E+04    0.19693E+01    0.48530E+01  5676   0.532E+01    0.147E+00
RMM:  90     0.513699443508E+04   -0.34632E+01    0.28685E+00  5743   0.536E+01    0.222E+00
RMM:  91     0.513309895170E+04   -0.38955E+01   -0.96910E-01  5632   0.519E+01    0.189E+00
RMM:  92     0.513917259378E+04    0.60736E+01    0.92450E+01  5687   0.498E+01    0.959E-01
RMM:  93     0.514187622531E+04    0.27036E+01    0.71801E+01  5684   0.531E+01    0.221E+00
RMM:  94     0.513670562047E+04   -0.51706E+01   -0.27502E+01  5716   0.551E+01    0.135E+00
RMM:  95     0.513450018009E+04   -0.22054E+01    0.17665E+01  5712   0.509E+01    0.241E+00
RMM:  96     0.514174104641E+04    0.72409E+01    0.10590E+02  5558   0.512E+01    0.174E+00
RMM:  97     0.514203207309E+04    0.29103E+00    0.31835E+01  5760   0.548E+01    0.160E+00
RMM:  98     0.513605030921E+04   -0.59818E+01   -0.14199E+01  5667   0.545E+01    0.182E+00
RMM:  99     0.513953914084E+04    0.34888E+01    0.66906E+01  5679   0.514E+01    0.771E-01
  WARNING: DENTET: can't reach specified precision
  Number of Electrons is NELECT =   80.0055724972462     
RMM: 100     0.514266875759E+04    0.31296E+01    0.72845E+01  5710   0.532E+01
   2 F= 0.51426688E+04 E0= 0.51426688E+04  d E =0.543997E+04  mag=    -3.9004
 trial-energy change: 5439.969033  1 .order-4005.890392-9848.732151 1836.951367
 step:   0.8428(harm=  0.8428)  dis= 0.00000  next Energy= -4447.572052 (dE=-0.415E+04)
 bond charge predicted
       N       E                     dE             d eps       ncg     rms          rms(c)
DAV:   1     0.512509718513E+04   -0.14442E+02   -0.21584E+03  5458   0.930E+01    0.352E+01
RMM:   2     0.515125184643E+04    0.26155E+02   -0.16926E+01  4536   0.102E+01    0.215E+01
RMM:   3     0.514902654849E+04   -0.22253E+01   -0.31205E+00  4536   0.441E+00    0.132E+01
RMM:   4     0.515064354835E+04    0.16170E+01   -0.11179E+00  4536   0.250E+00    0.809E+00
RMM:   5     0.515020037715E+04   -0.44317E+00   -0.49436E-01  4536   0.168E+00    0.510E+00
RMM:   6     0.515047054447E+04    0.27017E+00   -0.38701E-01  4536   0.140E+00    0.317E+00
RMM:   7     0.515020948663E+04   -0.26106E+00   -0.23330E-01  4536   0.103E+00    0.191E+00
RMM:   8     0.515009395757E+04   -0.11553E+00   -0.48941E-02  4536   0.522E-01    0.121E+00
RMM:   9     0.515013412074E+04    0.40163E-01   -0.81064E-03  4316   0.216E-01    0.984E-01
RMM:  10     0.515020759786E+04    0.73477E-01   -0.31132E-02  4446   0.377E-01    0.985E-01
RMM:  11     0.515026837940E+04    0.60782E-01   -0.69100E-02  4534   0.560E-01    0.754E-01
RMM:  12     0.515015548092E+04   -0.11290E+00   -0.55738E-02  4530   0.495E-01    0.313E-01
RMM:  13     0.515011117630E+04   -0.44305E-01   -0.94720E-03  3828   0.199E-01    0.822E-01
RMM:  14     0.515032620810E+04    0.21503E+00   -0.52714E-02  4534   0.503E-01    0.148E+00
RMM:  15     0.515082859454E+04    0.50239E+00   -0.30392E-01  4536   0.121E+00    0.165E+00
RMM:  16     0.515084510088E+04    0.16506E-01   -0.52266E-01  4536   0.151E+00    0.114E+00
RMM:  17     0.515022845688E+04   -0.61664E+00   -0.27124E-01  4536   0.105E+00    0.457E-01
RMM:  18     0.515013008813E+04   -0.98369E-01   -0.19705E-02  4212   0.302E-01    0.153E+00
RMM:  19     0.515110656653E+04    0.97648E+00   -0.30862E-01  4536   0.126E+00    0.228E+00
RMM:  20     0.515172828311E+04    0.62172E+00   -0.94646E-01  4536   0.209E+00    0.204E+00
RMM:  21     0.515108921220E+04   -0.63907E+00   -0.96736E-01  4536   0.198E+00    0.983E-01
RMM:  22     0.515015429461E+04   -0.93492E+00   -0.30468E-01  4536   0.109E+00    0.106E+00
RMM:  23     0.515073277422E+04    0.57848E+00   -0.16751E-01  4536   0.964E-01    0.233E+00
RMM:  24     0.515195166972E+04    0.12189E+01   -0.84326E-01  4536   0.205E+00    0.250E+00
RMM:  25     0.515180149509E+04   -0.15017E+00   -0.13285E+00  4536   0.236E+00    0.149E+00
RMM:  26     0.515038091098E+04   -0.14206E+01   -0.67425E-01  4536   0.159E+00    0.827E-01
RMM:  27     0.515053206631E+04    0.15116E+00   -0.12994E-01  4536   0.827E-01    0.233E+00
RMM:  28     0.515204157676E+04    0.15095E+01   -0.78117E-01  4536   0.201E+00    0.268E+00
RMM:  29     0.515214413857E+04    0.10256E+00   -0.14975E+00  4536   0.252E+00    0.161E+00
RMM:  30     0.515047493723E+04   -0.16692E+01   -0.84559E-01  4536   0.177E+00    0.892E-01
RMM:  31     0.515060631040E+04    0.13137E+00   -0.15706E-01  4536   0.907E-01    0.240E+00
RMM:  32     0.515211909934E+04    0.15128E+01   -0.83462E-01  4536   0.208E+00    0.268E+00
  WARNING: DENTET: can't reach specified precision
  Number of Electrons is NELECT =   79.9969802413272     
RMM:  33     0.515214276995E+04    0.23671E-01   -0.15126E+00  4536   0.252E+00    0.154E+00
RMM:  34     0.515038089687E+04   -0.17619E+01   -0.77783E-01  4536   0.170E+00    0.983E-01
RMM:  35     0.515070424208E+04    0.32335E+00   -0.17295E-01  4536   0.960E-01    0.248E+00
RMM:  36     0.515219057353E+04    0.14863E+01   -0.89701E-01  4536   0.214E+00    0.265E+00
RMM:  37     0.515204312211E+04   -0.14745E+00   -0.15126E+00  4536   0.251E+00    0.145E+00
RMM:  38     0.515032584802E+04   -0.17173E+01   -0.73283E-01  4536   0.163E+00    0.104E+00
RMM:  39     0.515075420285E+04    0.42835E+00   -0.18610E-01  4536   0.100E+00    0.251E+00
RMM:  40     0.515219937474E+04    0.14452E+01   -0.91824E-01  4536   0.216E+00    0.261E+00
  WARNING: DENTET: can't reach specified precision
  Number of Electrons is NELECT =   79.9970481652603     
RMM:  41     0.515201073608E+04   -0.18864E+00   -0.14933E+00  4536   0.249E+00    0.139E+00
RMM:  42     0.515028706093E+04   -0.17237E+01   -0.69509E-01  4536   0.159E+00    0.105E+00
RMM:  43     0.515075538881E+04    0.46833E+00   -0.18433E-01  4536   0.993E-01    0.250E+00
RMM:  44     0.515218700493E+04    0.14316E+01   -0.91629E-01  4536   0.216E+00    0.260E+00
  WARNING: DENTET: can't reach specified precision
  Number of Electrons is NELECT =   80.0087292245456     
RMM:  45     0.515188574307E+04   -0.30126E+00   -0.14902E+00  4536   0.249E+00    0.139E+00
RMM:  46     0.515028630558E+04   -0.15994E+01   -0.68978E-01  4536   0.158E+00    0.104E+00
RMM:  47     0.515073918648E+04    0.45288E+00   -0.18039E-01  4536   0.980E-01    0.249E+00
RMM:  48     0.515216804312E+04    0.14289E+01   -0.90762E-01  4536   0.215E+00    0.260E+00
RMM:  49     0.515197100149E+04   -0.19704E+00   -0.14840E+00  4536   0.248E+00    0.139E+00
RMM:  50     0.515028858189E+04   -0.16824E+01   -0.69364E-01  4536   0.159E+00    0.104E+00
RMM:  51     0.515073733593E+04    0.44875E+00   -0.17977E-01  4536   0.979E-01    0.249E+00
RMM:  52     0.515216556577E+04    0.14282E+01   -0.90459E-01  4536   0.214E+00    0.260E+00
RMM:  53     0.515196903552E+04   -0.19653E+00   -0.14856E+00  4536   0.248E+00    0.140E+00
RMM:  54     0.515029044078E+04   -0.16786E+01   -0.69447E-01  4536   0.159E+00    0.103E+00
RMM:  55     0.515073155839E+04    0.44112E+00   -0.17885E-01  4536   0.976E-01    0.248E+00
RMM:  56     0.515216100508E+04    0.14294E+01   -0.90148E-01  4536   0.214E+00    0.260E+00
RMM:  57     0.515197314690E+04   -0.18786E+00   -0.14828E+00  4536   0.248E+00    0.140E+00
RMM:  58     0.515029407820E+04   -0.16791E+01   -0.69805E-01  4536   0.159E+00    0.103E+00
RMM:  59     0.515072859585E+04    0.43452E+00   -0.17767E-01  4536   0.974E-01    0.248E+00
RMM:  60     0.515215968143E+04    0.14311E+01   -0.90052E-01  4536   0.214E+00    0.260E+00
RMM:  61     0.515197543733E+04   -0.18424E+00   -0.14860E+00  4536   0.249E+00    0.141E+00
RMM:  62     0.515029562665E+04   -0.16798E+01   -0.69932E-01  4536   0.159E+00    0.103E+00
RMM:  63     0.515072726559E+04    0.43164E+00   -0.17777E-01  4536   0.974E-01    0.248E+00
RMM:  64     0.515215903620E+04    0.14318E+01   -0.89989E-01  4536   0.214E+00    0.260E+00
RMM:  65     0.515197674125E+04   -0.18229E+00   -0.14836E+00  4536   0.248E+00    0.141E+00
RMM:  66     0.515029613400E+04   -0.16806E+01   -0.70004E-01  4536   0.159E+00    0.103E+00
RMM:  67     0.515072681428E+04    0.43068E+00   -0.17747E-01  4536   0.973E-01    0.248E+00
RMM:  68     0.515215905898E+04    0.14322E+01   -0.89991E-01  4536   0.214E+00    0.260E+00
RMM:  69     0.515197708097E+04   -0.18198E+00   -0.14863E+00  4536   0.249E+00    0.141E+00
RMM:  70     0.515029623495E+04   -0.16808E+01   -0.69998E-01  4536   0.159E+00    0.103E+00
RMM:  71     0.515072681535E+04    0.43058E+00   -0.17776E-01  4536   0.974E-01    0.248E+00
RMM:  72     0.515215911247E+04    0.14323E+01   -0.89983E-01  4536   0.214E+00    0.260E+00
RMM:  73     0.515197715806E+04   -0.18195E+00   -0.14839E+00  4536   0.248E+00    0.141E+00
RMM:  74     0.515029621482E+04   -0.16809E+01   -0.70018E-01  4536   0.159E+00    0.103E+00
RMM:  75     0.515072687748E+04    0.43066E+00   -0.17751E-01  4536   0.973E-01    0.248E+00
RMM:  76     0.515215919475E+04    0.14323E+01   -0.90000E-01  4536   0.214E+00    0.260E+00
RMM:  77     0.515197704516E+04   -0.18215E+00   -0.14862E+00  4536   0.249E+00    0.141E+00
RMM:  78     0.515029615922E+04   -0.16809E+01   -0.69994E-01  4536   0.159E+00    0.103E+00
RMM:  79     0.515072693225E+04    0.43077E+00   -0.17777E-01  4536   0.974E-01    0.248E+00
RMM:  80     0.515215919314E+04    0.14323E+01   -0.89990E-01  4536   0.214E+00    0.260E+00
RMM:  81     0.515197702475E+04   -0.18217E+00   -0.14840E+00  4536   0.248E+00    0.141E+00
RMM:  82     0.515029613843E+04   -0.16809E+01   -0.70012E-01  4536   0.159E+00    0.103E+00
RMM:  83     0.515072694029E+04    0.43080E+00   -0.17753E-01  4536   0.973E-01    0.248E+00
RMM:  84     0.515215920504E+04    0.14323E+01   -0.90004E-01  4536   0.214E+00    0.260E+00
RMM:  85     0.515197695087E+04   -0.18225E+00   -0.14861E+00  4536   0.249E+00    0.141E+00
RMM:  86     0.515029611553E+04   -0.16808E+01   -0.69990E-01  4536   0.159E+00    0.103E+00
RMM:  87     0.515072694721E+04    0.43083E+00   -0.17776E-01  4536   0.974E-01    0.248E+00
RMM:  88     0.515215917720E+04    0.14322E+01   -0.89991E-01  4536   0.214E+00    0.260E+00
RMM:  89     0.515197697217E+04   -0.18221E+00   -0.14841E+00  4536   0.248E+00    0.141E+00
RMM:  90     0.515029612068E+04   -0.16809E+01   -0.70011E-01  4536   0.159E+00    0.103E+00
RMM:  91     0.515072692877E+04    0.43081E+00   -0.17754E-01  4536   0.973E-01    0.248E+00
RMM:  92     0.515215917935E+04    0.14323E+01   -0.90005E-01  4536   0.214E+00    0.260E+00
RMM:  93     0.515197693223E+04   -0.18225E+00   -0.14860E+00  4536   0.249E+00    0.141E+00
RMM:  94     0.515029611120E+04   -0.16808E+01   -0.69989E-01  4536   0.159E+00    0.103E+00
RMM:  95     0.515072693183E+04    0.43082E+00   -0.17775E-01  4536   0.974E-01    0.248E+00
RMM:  96     0.515215915766E+04    0.14322E+01   -0.89990E-01  4536   0.214E+00    0.260E+00
RMM:  97     0.515197696473E+04   -0.18219E+00   -0.14842E+00  4536   0.248E+00    0.141E+00
RMM:  98     0.515029612095E+04   -0.16808E+01   -0.70011E-01  4536   0.159E+00    0.103E+00
RMM:  99     0.515072691421E+04    0.43079E+00   -0.17755E-01  4536   0.973E-01    0.248E+00
RMM: 100     0.515215916442E+04    0.14323E+01   -0.90005E-01  4536   0.214E+00
   3 F= 0.51521592E+04 E0= 0.51521592E+04  d E =0.544946E+04  mag=    -6.9851
 curvature:  -0.42 expect dE=-0.450E+05 dE for cont linesearch -0.206E+05
 ZBRENT: interpolating
 opt :   0.9879  next Energy=  5131.527275 (dE= 0.543E+04)
 bond charge predicted
       N       E                     dE             d eps       ncg     rms          rms(c)
DAV:   1     0.502071516034E+04   -0.13001E+03   -0.21403E+02  4824   0.572E+01    0.302E+01
RMM:   2     0.503079896505E+04    0.10084E+02   -0.26646E+00  4798   0.770E+00    0.191E+01
RMM:   3     0.505451936254E+04    0.23720E+02   -0.94952E+00  4763   0.983E+00    0.119E+01
RMM:   4     0.503658126201E+04   -0.17938E+02    0.15479E-01  4581   0.929E+00    0.784E+00
RMM:   5     0.504095133005E+04    0.43701E+01    0.88050E+00  4819   0.103E+01    0.571E+00
RMM:   6     0.506956421314E+04    0.28613E+02    0.11865E+02  4723   0.149E+01    0.395E+00
RMM:   7     0.518570142973E+04    0.11614E+03    0.12414E+03  4986   0.263E+01    0.375E+00
RMM:   8     0.507930074484E+04   -0.10640E+03   -0.10385E+03  5893   0.832E+01    0.248E+00
RMM:   9     0.508479910291E+04    0.54984E+01    0.13976E+02  4795   0.259E+01    0.162E+00
RMM:  10     0.519986727344E+04    0.11507E+03    0.12724E+03  5309   0.315E+01    0.334E+00
RMM:  11     0.506629665317E+04   -0.13357E+03   -0.13015E+03  5706   0.887E+01    0.220E+00
RMM:  12     0.507748757408E+04    0.11191E+02    0.19047E+02  4730   0.187E+01    0.146E+00
RMM:  13     0.510719097268E+04    0.29703E+02    0.33577E+02  5326   0.275E+01    0.665E-01
RMM:  14     0.513620001450E+04    0.29009E+02    0.34861E+02  5295   0.454E+01    0.111E+00
RMM:  15     0.510310596644E+04   -0.33094E+02   -0.30288E+02  5508   0.595E+01    0.837E-01
RMM:  16     0.509098066544E+04   -0.12125E+02   -0.46833E+01  4849   0.385E+01    0.891E-01
RMM:  17     0.517678398891E+04    0.85803E+02    0.91889E+02  5181   0.366E+01    0.239E+00
RMM:  18     0.509014479181E+04   -0.86639E+02   -0.83541E+02  5497   0.771E+01    0.120E+00
RMM:  19     0.510169329068E+04    0.11548E+02    0.19150E+02  5104   0.324E+01    0.819E-01
RMM:  20     0.514633769816E+04    0.44644E+02    0.52080E+02  5375   0.408E+01    0.147E+00
RMM:  21     0.509512761657E+04   -0.51210E+02   -0.46781E+02  5367   0.638E+01    0.100E+00
RMM:  22     0.516066872854E+04    0.65541E+02    0.69795E+02  5031   0.398E+01    0.157E+00
RMM:  23     0.509636365174E+04   -0.64305E+02   -0.61191E+02  5426   0.699E+01    0.115E+00
RMM:  24     0.510940787731E+04    0.13044E+02    0.19229E+02  5091   0.372E+01    0.525E-01
RMM:  25     0.512015204585E+04    0.10744E+02    0.14652E+02  4953   0.451E+01    0.387E-01
RMM:  26     0.511817955032E+04   -0.19725E+01    0.31210E+01  4174   0.514E+01    0.284E-01
RMM:  27     0.513367673860E+04    0.15497E+02    0.18683E+02  3728   0.510E+01    0.642E-01
RMM:  28     0.511656056959E+04   -0.17116E+02   -0.12888E+02  4049   0.576E+01    0.303E-01
RMM:  29     0.512239320240E+04    0.58326E+01    0.10912E+02  3911   0.488E+01    0.265E-01
RMM:  30     0.511416146707E+04   -0.82317E+01   -0.40501E+01  3917   0.513E+01    0.400E-01
RMM:  31     0.512655094537E+04    0.12389E+02    0.17900E+02  3507   0.476E+01    0.410E-01
RMM:  32     0.511782551385E+04   -0.87254E+01   -0.50174E+01  3352   0.541E+01    0.326E-01
RMM:  33     0.512352152434E+04    0.56960E+01    0.10685E+02  3404   0.497E+01    0.505E-01
RMM:  34     0.512862178976E+04    0.51003E+01    0.95116E+01  3795   0.526E+01    0.626E-01
RMM:  35     0.511372173598E+04   -0.14900E+02   -0.10253E+02  3789   0.547E+01    0.536E-01
RMM:  36     0.512763543622E+04    0.13914E+02    0.18884E+02  3640   0.476E+01    0.289E-01
RMM:  37     0.511373503227E+04   -0.13900E+02   -0.99495E+01  3795   0.542E+01    0.522E-01
RMM:  38     0.513241801899E+04    0.18683E+02    0.24007E+02  4237   0.480E+01    0.582E-01
RMM:  39     0.512155930083E+04   -0.10859E+02   -0.68693E+01  4128   0.574E+01    0.342E-01
RMM:  40     0.511851826330E+04   -0.30410E+01    0.19542E+01  3882   0.512E+01    0.291E-01
RMM:  41     0.513622302870E+04    0.17705E+02    0.22205E+02  3391   0.508E+01    0.646E-01
RMM:  42     0.511813418050E+04   -0.18089E+02   -0.14343E+02  3780   0.593E+01    0.386E-01
RMM:  43     0.512722610534E+04    0.90919E+01    0.13808E+02  3936   0.499E+01    0.419E-01
RMM:  44     0.511866366492E+04   -0.85624E+01   -0.45000E+01  3917   0.541E+01    0.642E-01
RMM:  45     0.511828097243E+04   -0.38269E+00    0.47204E+01  4102   0.494E+01    0.539E-01
RMM:  46     0.512764391550E+04    0.93629E+01    0.13630E+02  3744   0.500E+01    0.522E-01
RMM:  47     0.511959502288E+04   -0.80489E+01   -0.38489E+01  3410   0.550E+01    0.351E-01
RMM:  48     0.512706829870E+04    0.74733E+01    0.12062E+02  3211   0.509E+01    0.401E-01
RMM:  49     0.511922582231E+04   -0.78425E+01   -0.34813E+01  3595   0.544E+01    0.554E-01
RMM:  50     0.512416694079E+04    0.49411E+01    0.96141E+01  3317   0.504E+01    0.650E-01
RMM:  51     0.512806534499E+04    0.38984E+01    0.86581E+01  3133   0.531E+01    0.560E-01
RMM:  52     0.511989834435E+04   -0.81670E+01   -0.39798E+01  3117   0.551E+01    0.417E-01
RMM:  53     0.511748519798E+04   -0.24131E+01    0.18985E+01  3009   0.505E+01    0.335E-01
RMM:  54     0.512149288615E+04    0.40077E+01    0.85531E+01  3146   0.494E+01    0.154E-01
RMM:  55     0.512387113537E+04    0.23782E+01    0.63722E+01  3760   0.520E+01    0.207E-01
RMM:  56     0.512606812736E+04    0.21970E+01    0.60503E+01  4070   0.534E+01    0.233E-01
RMM:  57     0.511724303063E+04   -0.88251E+01   -0.45552E+01  3685   0.538E+01    0.453E-01
RMM:  58     0.512117561400E+04    0.39326E+01    0.86012E+01  3726   0.492E+01    0.383E-01
RMM:  59     0.512493845030E+04    0.37628E+01    0.80653E+01  3557   0.515E+01    0.211E-01
RMM:  60     0.511619128547E+04   -0.87472E+01   -0.42119E+01  3392   0.528E+01    0.416E-01
RMM:  61     0.512549501591E+04    0.93037E+01    0.14158E+02  3304   0.488E+01    0.403E-01
RMM:  62     0.511550541611E+04   -0.99896E+01   -0.59391E+01  3456   0.535E+01    0.281E-01
RMM:  63     0.512330621626E+04    0.78008E+01    0.12568E+02  3180   0.484E+01    0.165E-01
RMM:  64     0.512668142911E+04    0.33752E+01    0.76591E+01  3056   0.529E+01    0.298E-01
RMM:  65     0.511919170374E+04   -0.74897E+01   -0.37520E+01  3085   0.544E+01    0.197E-01
RMM:  66     0.512339467427E+04    0.42030E+01    0.88674E+01  2955   0.503E+01    0.178E-01
RMM:  67     0.512164680789E+04   -0.17479E+01    0.23631E+01  2943   0.525E+01    0.303E-01
RMM:  68     0.512244144898E+04    0.79464E+00    0.51256E+01  2963   0.519E+01    0.143E-01
RMM:  69     0.512697277547E+04    0.45313E+01    0.88761E+01  2997   0.525E+01    0.200E-01
RMM:  70     0.511721584724E+04   -0.97569E+01   -0.55828E+01  2952   0.541E+01    0.242E-01
RMM:  71     0.512914370860E+04    0.11928E+02    0.16822E+02  3185   0.494E+01    0.287E-01
RMM:  72     0.512183116191E+04   -0.73125E+01   -0.36024E+01  2970   0.558E+01    0.227E-01
RMM:  73     0.513107537133E+04    0.92442E+01    0.13554E+02  3173   0.527E+01    0.344E-01
RMM:  74     0.511819942988E+04   -0.12876E+02   -0.85615E+01  3207   0.564E+01    0.370E-01
RMM:  75     0.512103345746E+04    0.28340E+01    0.69917E+01  3386   0.501E+01    0.253E-01
RMM:  76     0.513296307006E+04    0.11930E+02    0.15731E+02  3976   0.524E+01    0.441E-01
RMM:  77     0.511766836915E+04   -0.15295E+02   -0.11640E+02  3997   0.578E+01    0.403E-01
RMM:  78     0.512735529144E+04    0.96869E+01    0.14146E+02  3635   0.499E+01    0.422E-01
RMM:  79     0.512670745302E+04   -0.64784E+00    0.38636E+01  3601   0.547E+01    0.490E-01
RMM:  80     0.511821046410E+04   -0.84970E+01   -0.40861E+01  3662   0.540E+01    0.283E-01
RMM:  81     0.512852921855E+04    0.10319E+02    0.14691E+02  3523   0.504E+01    0.261E-01
RMM:  82     0.512254804329E+04   -0.59812E+01   -0.22696E+01  3373   0.557E+01    0.187E-01
RMM:  83     0.512354782208E+04    0.99978E+00    0.52411E+01  3203   0.526E+01    0.117E-01
RMM:  84     0.512837154453E+04    0.48237E+01    0.85926E+01  3219   0.534E+01    0.237E-01
RMM:  85     0.512207166928E+04   -0.62999E+01   -0.21322E+01  3036   0.556E+01    0.210E-01
RMM:  86     0.512668053568E+04    0.46089E+01    0.88795E+01  3083   0.523E+01    0.134E-01
RMM:  87     0.512051024715E+04   -0.61703E+01   -0.19326E+01  3060   0.543E+01    0.354E-01
RMM:  88     0.512579233046E+04    0.52821E+01    0.99117E+01  3326   0.511E+01    0.507E-01
RMM:  89     0.511937026828E+04   -0.64221E+01   -0.22689E+01  3302   0.537E+01    0.284E-01
RMM:  90     0.512722990738E+04    0.78596E+01    0.12359E+02  3022   0.509E+01    0.176E-01
RMM:  91     0.513000063932E+04    0.27707E+01    0.68514E+01  3141   0.555E+01    0.318E-01
RMM:  92     0.512298484421E+04   -0.70158E+01   -0.33959E+01  3103   0.566E+01    0.194E-01
RMM:  93     0.512213843986E+04   -0.84640E+00    0.32911E+01  2987   0.527E+01    0.374E-01
RMM:  94     0.512286684896E+04    0.72841E+00    0.48476E+01  3096   0.521E+01    0.178E-01
RMM:  95     0.511823987521E+04   -0.46270E+01   -0.64846E+00  3052   0.525E+01    0.549E-01
RMM:  96     0.512530969577E+04    0.70698E+01    0.11402E+02  3365   0.504E+01    0.308E-01
RMM:  97     0.512145130898E+04   -0.38584E+01    0.30914E+00  3133   0.536E+01    0.300E-01
RMM:  98     0.512890761395E+04    0.74563E+01    0.11833E+02  3219   0.519E+01    0.402E-01
RMM:  99     0.511940501994E+04   -0.95026E+01   -0.52158E+01  3109   0.554E+01    0.316E-01
RMM: 100     0.511787996741E+04   -0.15251E+01    0.31116E+01  3385   0.503E+01
   4 F= 0.51178800E+04 E0= 0.51178800E+04  d E =0.541518E+04  mag=    -8.0001
 curvature:  -0.00 expect dE=-0.200E+02 dE for cont linesearch -0.234E+00
 ZBRENT: bisectioning
 opt :   0.9153  next Energy=  4594.704468 (dE= 0.489E+04)
 bond charge predicted
       N       E                     dE             d eps       ncg     rms          rms(c)
DAV:   1     0.491798091925E+04   -0.20142E+03   -0.16199E+03  4543   0.935E+01    0.118E+01
RMM:   2     0.492727451628E+04    0.92936E+01   -0.24577E+01  4683   0.113E+01    0.711E+00
RMM:   3     0.492687979941E+04   -0.39472E+00   -0.30754E+00  4536   0.468E+00    0.442E+00
RMM:   4     0.492587206698E+04   -0.10077E+01   -0.72922E-01  4536   0.260E+00    0.277E+00
RMM:   5     0.492539230344E+04   -0.47976E+00   -0.37089E-01  4550   0.175E+00    0.181E+00
RMM:   6     0.492529771447E+04   -0.94589E-01   -0.11244E-01  4443   0.105E+00    0.121E+00
RMM:   7     0.492527354283E+04   -0.24172E-01   -0.72028E-02  4213   0.784E-01    0.839E-01
RMM:   8     0.492523489561E+04   -0.38647E-01   -0.33308E-02  4050   0.562E-01    0.603E-01
RMM:   9     0.492516828277E+04   -0.66613E-01   -0.23483E-02  3960   0.449E-01    0.450E-01
RMM:  10     0.492504385537E+04   -0.12443E+00   -0.17446E-02  4036   0.395E-01    0.422E-01
RMM:  11     0.492499099703E+04   -0.52858E-01   -0.14930E-02  4358   0.367E-01    0.424E-01
RMM:  12     0.492490721969E+04   -0.83777E-01   -0.12498E-02  4202   0.327E-01    0.282E-01
RMM:  13     0.492475036906E+04   -0.15685E+00   -0.93916E-03  4005   0.269E-01    0.188E-01
RMM:  14     0.492463210890E+04   -0.11826E+00   -0.76220E-03  4016   0.236E-01    0.152E-01
RMM:  15     0.492457747970E+04   -0.54629E-01   -0.36424E-03  3444   0.161E-01    0.140E-01
RMM:  16     0.492455344786E+04   -0.24032E-01   -0.12312E-03  3038   0.105E-01    0.119E-01
RMM:  17     0.492453671394E+04   -0.16734E-01   -0.80601E-04  2894   0.839E-02    0.983E-02
RMM:  18     0.492452537104E+04   -0.11343E-01   -0.48876E-04  2779   0.676E-02    0.834E-02
RMM:  19     0.492452002480E+04   -0.53462E-02   -0.22144E-04  2536   0.470E-02    0.718E-02
RMM:  20     0.492451667398E+04   -0.33508E-02   -0.11748E-04  2254   0.363E-02    0.613E-02
RMM:  21     0.492451439343E+04   -0.22805E-02   -0.66376E-05  2056   0.296E-02    0.537E-02
RMM:  22     0.492451283905E+04   -0.15544E-02   -0.57799E-05  1775   0.271E-02    0.461E-02
RMM:  23     0.492451173545E+04   -0.11036E-02   -0.39129E-05  1755   0.237E-02    0.407E-02
RMM:  24     0.492451094334E+04   -0.79211E-03   -0.29815E-05  1514   0.233E-02    0.350E-02
RMM:  25     0.492451036130E+04   -0.58204E-03   -0.13594E-05  1458   0.218E-02    0.314E-02
RMM:  26     0.492450993304E+04   -0.42825E-03   -0.19725E-05  1412   0.230E-02    0.383E-02
RMM:  27     0.492450973350E+04   -0.19954E-03   -0.31034E-05  1633   0.258E-02
   5 F= 0.49245097E+04 E0= 0.49245097E+04  d E =0.522181E+04  mag=    -8.0000
 curvature:  -0.51 expect dE=-0.208E+04 dE for cont linesearch -0.145E+03
 ZBRENT: interpolating
 opt :   0.9404  next Energy=  4903.509739 (dE= 0.520E+04)
 bond charge predicted
       N       E                     dE             d eps       ncg     rms          rms(c)
DAV:   1     0.494186443617E+04    0.17355E+02   -0.11056E+01  4886   0.128E+01    0.669E+00
RMM:   2     0.495058592632E+04    0.87215E+01   -0.37421E+00  4593   0.529E+00    0.455E+00
RMM:   3     0.494698731631E+04   -0.35986E+01   -0.86137E+00  4538   0.662E+00    0.218E+00
RMM:   4     0.494544719369E+04   -0.15401E+01   -0.60598E+00  4670   0.497E+00    0.130E+00
RMM:   5     0.494268176994E+04   -0.27654E+01   -0.14745E+00  4577   0.306E+00    0.131E+00
RMM:   6     0.494314386359E+04    0.46209E+00    0.16048E-01  4546   0.185E+00    0.625E-01
RMM:   7     0.494275837532E+04   -0.38549E+00    0.42844E-02  4575   0.211E+00    0.627E-01
  WARNING: DENTET: can't reach specified precision
  Number of Electrons is NELECT =   79.9996667526253     
RMM:   8     0.494285958736E+04    0.10121E+00    0.77628E-01  4670   0.187E+00    0.273E-01
  WARNING: DENTET: can't reach specified precision
  Number of Electrons is NELECT =   80.0050903085633     
RMM:   9     0.494282638332E+04   -0.33204E-01    0.53025E-01  4641   0.244E+00    0.142E-01
RMM:  10     0.494306486641E+04    0.23848E+00    0.20759E+00  3660   0.259E+00    0.988E-02
RMM:  11     0.494319969193E+04    0.13483E+00    0.14314E+00  3201   0.355E+00    0.646E-02
  WARNING: DENTET: can't reach specified precision
  Number of Electrons is NELECT =   79.9969365368186     
RMM:  12     0.494376056012E+04    0.56087E+00    0.55146E+00  2758   0.404E+00    0.449E-02
RMM:  13     0.494408397584E+04    0.32342E+00    0.36545E+00  2663   0.567E+00    0.503E-02
RMM:  14     0.494550395016E+04    0.14200E+01    0.14509E+01  2663   0.650E+00    0.689E-02
RMM:  15     0.495034759637E+04    0.48436E+01    0.48815E+01  2619   0.918E+00    0.211E-01
RMM:  16     0.501124352431E+04    0.60896E+02    0.61007E+02  2952   0.145E+01    0.213E+00
RMM:  17     0.505022145924E+04    0.38978E+02    0.39277E+02  4928   0.437E+01    0.292E+00
RMM:  18     0.505137244069E+04    0.11510E+01    0.65730E+01  5304   0.577E+01    0.174E+00
RMM:  19     0.501779679162E+04   -0.33576E+02   -0.28212E+02  5339   0.567E+01    0.359E-01
RMM:  20     0.504316804104E+04    0.25371E+02    0.33429E+02  5179   0.436E+01    0.931E-01
RMM:  21     0.505592608113E+04    0.12758E+02    0.16768E+02  5426   0.567E+01    0.123E+00
RMM:  22     0.503709625001E+04   -0.18830E+02   -0.13219E+02  5260   0.601E+01    0.965E-01
RMM:  23     0.502719084448E+04   -0.99054E+01   -0.51189E+01  5394   0.517E+01    0.979E-01
RMM:  24     0.503965525440E+04    0.12464E+02    0.19122E+02  5184   0.479E+01    0.581E-01
RMM:  25     0.504436500193E+04    0.47097E+01    0.89126E+01  5407   0.537E+01    0.104E+00
RMM:  26     0.502008234225E+04   -0.24283E+02   -0.18011E+02  5237   0.544E+01    0.116E+00
RMM:  27     0.503975933222E+04    0.19677E+02    0.25015E+02  5268   0.462E+01    0.504E-01
RMM:  28     0.503086065504E+04   -0.88987E+01   -0.38672E+01  5172   0.536E+01    0.445E-01
RMM:  29     0.503581000357E+04    0.49493E+01    0.96180E+01  5122   0.503E+01    0.531E-01
RMM:  30     0.503700108502E+04    0.11911E+01    0.58230E+01  5369   0.520E+01    0.717E-01
RMM:  31     0.505108150205E+04    0.14080E+02    0.19117E+02  5223   0.530E+01    0.118E+00
RMM:  32     0.501618471708E+04   -0.34897E+02   -0.29704E+02  5313   0.569E+01    0.108E+00
RMM:  33     0.504768358153E+04    0.31499E+02    0.37680E+02  5106   0.444E+01    0.800E-01
RMM:  34     0.503055279451E+04   -0.17131E+02   -0.13010E+02  5306   0.570E+01    0.747E-01
RMM:  35     0.505212026522E+04    0.21567E+02    0.27183E+02  5251   0.511E+01    0.803E-01
RMM:  36     0.503368427466E+04   -0.18436E+02   -0.14155E+02  5497   0.587E+01    0.534E-01
RMM:  37     0.504644509395E+04    0.12761E+02    0.18422E+02  5290   0.518E+01    0.415E-01
RMM:  38     0.503142290640E+04   -0.15022E+02   -0.10305E+02  5179   0.560E+01    0.486E-01
RMM:  39     0.503612174827E+04    0.46988E+01    0.99984E+01  4981   0.504E+01    0.629E-01
RMM:  40     0.504857916548E+04    0.12457E+02    0.17329E+02  5145   0.532E+01    0.766E-01
RMM:  41     0.504649952649E+04   -0.20796E+01    0.27040E+01  5293   0.580E+01    0.442E-01
RMM:  42     0.503333469880E+04   -0.13165E+02   -0.81443E+01  5064   0.565E+01    0.414E-01
RMM:  43     0.504253894287E+04    0.92042E+01    0.13918E+02  4679   0.517E+01    0.400E-01
RMM:  44     0.505129994161E+04    0.87610E+01    0.13152E+02  4796   0.558E+01    0.546E-01
RMM:  45     0.503181419531E+04   -0.19486E+02   -0.15323E+02  5247   0.583E+01    0.521E-01
RMM:  46     0.503210144249E+04    0.28725E+00    0.57192E+01  5274   0.499E+01    0.552E-01
RMM:  47     0.504070492293E+04    0.86035E+01    0.13474E+02  5192   0.510E+01    0.557E-01
RMM:  48     0.504586256090E+04    0.51576E+01    0.98569E+01  5268   0.549E+01    0.435E-01
RMM:  49     0.503359219936E+04   -0.12270E+02   -0.76217E+01  5214   0.565E+01    0.542E-01
RMM:  50     0.503609318351E+04    0.25010E+01    0.71819E+01  5215   0.514E+01    0.449E-01
  WARNING: DENTET: can't reach specified precision
  Number of Electrons is NELECT =   79.9969004116212     
RMM:  51     0.503040692947E+04   -0.56863E+01   -0.10571E+01  5226   0.515E+01    0.389E-01
RMM:  52     0.504288808419E+04    0.12481E+02    0.17463E+02  5325   0.504E+01    0.290E-01
RMM:  53     0.503653375260E+04   -0.63543E+01   -0.21046E+01  4777   0.548E+01    0.219E-01
RMM:  54     0.503347293699E+04   -0.30608E+01    0.26247E+01  4636   0.519E+01    0.373E-01
RMM:  55     0.503951594609E+04    0.60430E+01    0.10873E+02  4746   0.514E+01    0.535E-01
RMM:  56     0.504349005728E+04    0.39741E+01    0.84307E+01  4564   0.546E+01    0.796E-01
RMM:  57     0.503306798940E+04   -0.10422E+02   -0.60767E+01  4142   0.555E+01    0.644E-01
RMM:  58     0.504284092052E+04    0.97729E+01    0.14797E+02  4658   0.517E+01    0.409E-01
RMM:  59     0.504303016398E+04    0.18924E+00    0.44140E+01  4688   0.557E+01    0.412E-01
RMM:  60     0.503747248992E+04   -0.55577E+01   -0.62206E+00  4691   0.552E+01    0.690E-01
RMM:  61     0.503321197057E+04   -0.42605E+01    0.86716E+00  4695   0.526E+01    0.657E-01
RMM:  62     0.504340734152E+04    0.10195E+02    0.14943E+02  4945   0.517E+01    0.501E-01
RMM:  63     0.504489334007E+04    0.14860E+01    0.62249E+01  5311   0.559E+01    0.499E-01
RMM:  64     0.502757148606E+04   -0.17322E+02   -0.13012E+02  4461   0.554E+01    0.634E-01
RMM:  65     0.503992642994E+04    0.12355E+02    0.17611E+02  4751   0.490E+01    0.492E-01
RMM:  66     0.504221475071E+04    0.22883E+01    0.67786E+01  5080   0.543E+01    0.503E-01
RMM:  67     0.503458623837E+04   -0.76285E+01   -0.27535E+01  5225   0.548E+01    0.404E-01
RMM:  68     0.504311605863E+04    0.85298E+01    0.13241E+02  4966   0.521E+01    0.364E-01
RMM:  69     0.504508982805E+04    0.19738E+01    0.65580E+01  5000   0.557E+01    0.377E-01
RMM:  70     0.503639579330E+04   -0.86940E+01   -0.41622E+01  5272   0.562E+01    0.339E-01
  WARNING: DENTET: can't reach specified precision
  Number of Electrons is NELECT =   79.9957601589574     
RMM:  71     0.504027076079E+04    0.38750E+01    0.86602E+01  4622   0.529E+01    0.377E-01
RMM:  72     0.503334866408E+04   -0.69221E+01   -0.22503E+01  4977   0.541E+01    0.456E-01
RMM:  73     0.503685719857E+04    0.35085E+01    0.91122E+01  5243   0.512E+01    0.296E-01
RMM:  74     0.504105457978E+04    0.41974E+01    0.90774E+01  4874   0.527E+01    0.420E-01
RMM:  75     0.504930251599E+04    0.82479E+01    0.13539E+02  4535   0.547E+01    0.703E-01
RMM:  76     0.503908360524E+04   -0.10219E+02   -0.54787E+01  4868   0.575E+01    0.478E-01
RMM:  77     0.504170496044E+04    0.26214E+01    0.84627E+01  4858   0.535E+01    0.263E-01
RMM:  78     0.504087503047E+04   -0.82993E+00    0.41844E+01  5071   0.549E+01    0.319E-01
RMM:  79     0.503400050005E+04   -0.68745E+01   -0.17167E+01  4817   0.541E+01    0.373E-01
RMM:  80     0.505074709463E+04    0.16747E+02    0.22504E+02  4743   0.520E+01    0.456E-01
RMM:  81     0.503986344764E+04   -0.10884E+02   -0.66398E+01  4728   0.586E+01    0.268E-01
RMM:  82     0.503946603398E+04   -0.39741E+00    0.46633E+01  4443   0.537E+01    0.262E-01
RMM:  83     0.504159534504E+04    0.21293E+01    0.68522E+01  4593   0.540E+01    0.184E-01
RMM:  84     0.503983581748E+04   -0.17595E+01    0.33084E+01  4395   0.548E+01    0.283E-01
RMM:  85     0.502509239618E+04   -0.14743E+02   -0.97062E+01  4470   0.530E+01    0.620E-01
RMM:  86     0.503374814905E+04    0.86558E+01    0.14161E+02  4892   0.473E+01    0.407E-01
RMM:  87     0.504736573007E+04    0.13618E+02    0.18383E+02  5313   0.520E+01    0.690E-01
RMM:  88     0.505014448341E+04    0.27788E+01    0.71075E+01  5199   0.579E+01    0.877E-01
RMM:  89     0.504281306164E+04   -0.73314E+01   -0.28271E+01  4730   0.585E+01    0.627E-01
  WARNING: DENTET: can't reach specified precision
  Number of Electrons is NELECT =   79.9996025762578     
RMM:  90     0.503634531825E+04   -0.64677E+01   -0.14529E+01  4760   0.552E+01    0.466E-01
  WARNING: DENTET: can't reach specified precision
  Number of Electrons is NELECT =   80.0039147053202     
RMM:  91     0.503252374302E+04   -0.38216E+01    0.11694E+01  4916   0.523E+01    0.346E-01
RMM:  92     0.504223137734E+04    0.97076E+01    0.14802E+02  4222   0.514E+01    0.236E-01
RMM:  93     0.503358082314E+04   -0.86506E+01   -0.42782E+01  4382   0.548E+01    0.602E-01
RMM:  94     0.504480430336E+04    0.11223E+02    0.16581E+02  4475   0.514E+01    0.540E-01
RMM:  95     0.503657094113E+04   -0.82334E+01   -0.43186E+01  4778   0.561E+01    0.400E-01
RMM:  96     0.504239219869E+04    0.58213E+01    0.10674E+02  5296   0.532E+01    0.566E-01
RMM:  97     0.504241853280E+04    0.26334E-01    0.44029E+01  5119   0.554E+01    0.817E-01
RMM:  98     0.504125304301E+04   -0.11655E+01    0.36334E+01  5146   0.555E+01    0.356E-01
RMM:  99     0.504838498836E+04    0.71319E+01    0.12245E+02  5098   0.550E+01    0.499E-01
RMM: 100     0.503773702559E+04   -0.10648E+02   -0.58640E+01  4170   0.573E+01
   6 F= 0.50377370E+04 E0= 0.50377370E+04  d E =0.533504E+04  mag=    -8.0000
 curvature:  -0.07 expect dE=-0.145E+04 dE for cont linesearch -0.256E+02
 ZBRENT: interpolating
 opt :   0.9272  next Energy=  4914.524149 (dE= 0.521E+04)
 bond charge predicted
       N       E                     dE             d eps       ncg     rms          rms(c)
DAV:   1     0.492840205045E+04   -0.11998E+03   -0.10065E+03  5050   0.777E+01    0.292E+00
RMM:   2     0.492869508108E+04    0.29303E+00   -0.83590E+00  4795   0.786E+00    0.181E+00
RMM:   3     0.492795790035E+04   -0.73718E+00   -0.21605E+00  4646   0.446E+00    0.115E+00
RMM:   4     0.492800564618E+04    0.47746E-01   -0.32650E-01  4648   0.295E+00    0.745E-01
RMM:   5     0.492796142315E+04   -0.44223E-01   -0.36868E-01  4557   0.269E+00    0.475E-01
RMM:   6     0.492796483466E+04    0.34115E-02   -0.32937E-02  4056   0.234E+00    0.333E-01
RMM:   7     0.492796318983E+04   -0.16448E-02   -0.15722E-01  4161   0.231E+00    0.234E-01
  WARNING: DENTET: can't reach specified precision
  Number of Electrons is NELECT =   79.9988770571246     
RMM:   8     0.492798382348E+04    0.20634E-01    0.33566E-02  3317   0.211E+00    0.167E-01
RMM:   9     0.492796806583E+04   -0.15758E-01   -0.78686E-02  2938   0.213E+00    0.125E-01
  WARNING: DENTET: can't reach specified precision
  Number of Electrons is NELECT =   79.9962461778555     
RMM:  10     0.492800455991E+04    0.36494E-01    0.60735E-02  3018   0.204E+00    0.979E-02
  WARNING: DENTET: can't reach specified precision
  Number of Electrons is NELECT =   80.0017131354361     
RMM:  11     0.492795668724E+04   -0.47873E-01   -0.40857E-02  2520   0.207E+00    0.808E-02
RMM:  12     0.492797911531E+04    0.22428E-01    0.78073E-02  2199   0.201E+00    0.671E-02
RMM:  13     0.492797740579E+04   -0.17095E-02   -0.16879E-02  2057   0.207E+00    0.575E-02
RMM:  14     0.492798644428E+04    0.90385E-02    0.91550E-02  1911   0.203E+00    0.494E-02
RMM:  15     0.492798575391E+04   -0.69037E-03    0.17135E-04  2473   0.210E+00    0.436E-02
RMM:  16     0.492799585635E+04    0.10102E-01    0.10391E-01  1276   0.207E+00    0.381E-02
RMM:  17     0.492799688514E+04    0.10288E-02    0.14533E-02  1533   0.215E+00    0.345E-02
RMM:  18     0.492800802632E+04    0.11141E-01    0.11547E-01  1569   0.213E+00    0.302E-02
RMM:  19     0.492801018422E+04    0.21579E-02    0.26552E-02  1150   0.221E+00    0.279E-02
RMM:  20     0.492802252168E+04    0.12337E-01    0.12806E-01  1223   0.220E+00    0.245E-02
RMM:  21     0.492802590824E+04    0.33866E-02    0.39262E-02   985   0.228E+00    0.229E-02
RMM:  22     0.492803940023E+04    0.13492E-01    0.14000E-01  1236   0.228E+00    0.201E-02
RMM:  23     0.492804394880E+04    0.45486E-02    0.51156E-02   920   0.237E+00    0.192E-02
RMM:  24     0.492805882082E+04    0.14872E-01    0.15409E-01  1177   0.237E+00    0.166E-02
RMM:  25     0.492806461032E+04    0.57895E-02    0.63818E-02   855   0.247E+00    0.162E-02
RMM:  26     0.492808082957E+04    0.16219E-01    0.16785E-01   797   0.247E+00    0.139E-02
RMM:  27     0.492808790522E+04    0.70757E-02    0.76950E-02   664   0.257E+00    0.139E-02
RMM:  28     0.492810572910E+04    0.17824E-01    0.18416E-01   997   0.258E+00    0.117E-02
RMM:  29     0.492811414632E+04    0.84172E-02    0.90651E-02   831   0.269E+00    0.120E-02
RMM:  30     0.492813353832E+04    0.19392E-01    0.20013E-01   639   0.270E+00    0.986E-03
RMM:  31     0.492814328610E+04    0.97478E-02    0.10431E-01   734   0.281E+00    0.107E-02
RMM:  32     0.492816458773E+04    0.21302E-01    0.21952E-01   697   0.282E+00    0.840E-03
RMM:  33     0.492817565361E+04    0.11066E-01    0.11791E-01   668   0.293E+00    0.949E-03
RMM:  34     0.492819898021E+04    0.23327E-01    0.24010E-01   584   0.295E+00    0.724E-03
RMM:  35     0.492821115696E+04    0.12177E-01    0.12950E-01   541   0.307E+00    0.875E-03
RMM:  36     0.492823664935E+04    0.25492E-01    0.26212E-01   673   0.309E+00    0.632E-03
RMM:  37     0.492825164891E+04    0.15000E-01    0.15822E-01   692   0.320E+00    0.807E-03
RMM:  38     0.492828709637E+04    0.35447E-01    0.36228E-01   622   0.323E+00    0.565E-03
RMM:  39     0.492833952175E+04    0.52425E-01    0.53353E-01   562   0.335E+00    0.837E-03
RMM:  40     0.492865805757E+04    0.31854E+00    0.31954E+00   566   0.343E+00    0.169E-02
RMM:  41     0.492973880139E+04    0.10807E+01    0.10830E+01   610   0.372E+00    0.553E-02
RMM:  42     0.492995792062E+04    0.21912E+00    0.23559E+00   881   0.421E+00    0.541E-02
RMM:  43     0.493010133262E+04    0.14341E+00    0.22320E+00   812   0.439E+00    0.450E-02
RMM:  44     0.493066384242E+04    0.56251E+00    0.62066E+00   779   0.449E+00    0.564E-02
RMM:  45     0.493017547829E+04   -0.48836E+00   -0.42970E+00   760   0.479E+00    0.414E-02
RMM:  46     0.493086785428E+04    0.69238E+00    0.78381E+00   626   0.466E+00    0.463E-02
RMM:  47     0.493174137216E+04    0.87352E+00    0.92196E+00   705   0.509E+00    0.575E-02
RMM:  48     0.493143962081E+04   -0.30175E+00   -0.20925E+00  1178   0.538E+00    0.590E-02
RMM:  49     0.493238586865E+04    0.94625E+00    0.10977E+01   966   0.544E+00    0.743E-02
RMM:  50     0.493100495892E+04   -0.13809E+01   -0.12730E+01  1057   0.575E+00    0.955E-02
RMM:  51     0.493181174783E+04    0.80679E+00    0.98030E+00   783   0.531E+00    0.943E-02
RMM:  52     0.493164128555E+04   -0.17046E+00   -0.70122E-01   832   0.561E+00    0.908E-02
RMM:  53     0.493343647151E+04    0.17952E+01    0.19614E+01   871   0.571E+00    0.149E-01
RMM:  54     0.493275830479E+04   -0.67817E+00   -0.55067E+00  1349   0.642E+00    0.145E-01
RMM:  55     0.493492850456E+04    0.21702E+01    0.23898E+01  1589   0.650E+00    0.106E-01
RMM:  56     0.493537315314E+04    0.44465E+00    0.61601E+00  1655   0.733E+00    0.147E-01
RMM:  57     0.493730505725E+04    0.19319E+01    0.22356E+01  2013   0.773E+00    0.116E-01
RMM:  58     0.493539349460E+04   -0.19116E+01   -0.16823E+01  1876   0.835E+00    0.835E-02
RMM:  59     0.493727039280E+04    0.18769E+01    0.23016E+01  1807   0.780E+00    0.129E-01
RMM:  60     0.493702032475E+04   -0.25007E+00   -0.30097E-01  2324   0.851E+00    0.154E-01
RMM:  61     0.493571348466E+04   -0.13068E+01   -0.97512E+00  2454   0.849E+00    0.748E-02
RMM:  62     0.493819473572E+04    0.24813E+01    0.28635E+01  1991   0.820E+00    0.882E-02
RMM:  63     0.493560182337E+04   -0.25929E+01   -0.23709E+01  1820   0.915E+00    0.840E-02
RMM:  64     0.493873116175E+04    0.31293E+01    0.35618E+01  1891   0.831E+00    0.126E-01
RMM:  65     0.493522259521E+04   -0.35086E+01   -0.32993E+01  2378   0.938E+00    0.126E-01
RMM:  66     0.493975684686E+04    0.45343E+01    0.50225E+01  2311   0.828E+00    0.144E-01
RMM:  67     0.493969575714E+04   -0.61090E-01    0.14790E+00  2445   0.101E+01    0.189E-01
RMM:  68     0.494851858043E+04    0.88228E+01    0.93278E+01  2589   0.106E+01    0.347E-01
RMM:  69     0.494266860432E+04   -0.58500E+01   -0.54045E+01  2613   0.137E+01    0.182E-01
RMM:  70     0.494696575179E+04    0.42971E+01    0.52309E+01  2854   0.118E+01    0.194E-01
RMM:  71     0.494269189308E+04   -0.42739E+01   -0.37380E+01  3002   0.134E+01    0.571E-02
  WARNING: DENTET: can't reach specified precision
  Number of Electrons is NELECT =   79.9976460976695     
RMM:  72     0.494704338067E+04    0.43515E+01    0.52055E+01  2783   0.121E+01    0.107E-01
RMM:  73     0.494684148345E+04   -0.20190E+00    0.32661E+00  2524   0.139E+01    0.110E-01
RMM:  74     0.494922577838E+04    0.23843E+01    0.32374E+01  2554   0.142E+01    0.130E-01
RMM:  75     0.495561106808E+04    0.63853E+01    0.71805E+01  2744   0.154E+01    0.329E-01
RMM:  76     0.495186411511E+04   -0.37470E+01   -0.29358E+01  2880   0.177E+01    0.259E-01
RMM:  77     0.495680013632E+04    0.49360E+01    0.64063E+01  2712   0.164E+01    0.341E-01
RMM:  78     0.495013236052E+04   -0.66678E+01   -0.57105E+01  2851   0.181E+01    0.403E-01
RMM:  79     0.495682982613E+04    0.66975E+01    0.81336E+01  2902   0.160E+01    0.443E-01
RMM:  80     0.495353000439E+04   -0.32998E+01   -0.22835E+01  2873   0.184E+01    0.309E-01
RMM:  81     0.495717627456E+04    0.36463E+01    0.51520E+01  2885   0.175E+01    0.244E-01
RMM:  82     0.495574654828E+04   -0.14297E+01   -0.33573E+00  2767   0.189E+01    0.237E-01
RMM:  83     0.495792876843E+04    0.21822E+01    0.35095E+01  2736   0.184E+01    0.228E-01
RMM:  84     0.495210218924E+04   -0.58266E+01   -0.44944E+01  2697   0.190E+01    0.155E-01
RMM:  85     0.495790186500E+04    0.57997E+01    0.71378E+01  2666   0.171E+01    0.165E-01
RMM:  86     0.495132839645E+04   -0.65735E+01   -0.56923E+01  2774   0.192E+01    0.207E-01
RMM:  87     0.496324923043E+04    0.11921E+02    0.13230E+02  3053   0.172E+01    0.335E-01
RMM:  88     0.495960712756E+04   -0.36421E+01   -0.27462E+01  2965   0.216E+01    0.276E-01
  WARNING: DENTET: can't reach specified precision
  Number of Electrons is NELECT =   80.0007215264350     
RMM:  89     0.496588728908E+04    0.62802E+01    0.78815E+01  2913   0.205E+01    0.388E-01
RMM:  90     0.495865205497E+04   -0.72352E+01   -0.59887E+01  2920   0.227E+01    0.234E-01
RMM:  91     0.495695060532E+04   -0.17014E+01   -0.12647E+00  2792   0.199E+01    0.254E-01
RMM:  92     0.495957791073E+04    0.26273E+01    0.40245E+01  3014   0.194E+01    0.183E-01
RMM:  93     0.496172389151E+04    0.21460E+01    0.33084E+01  2806   0.206E+01    0.143E-01
  WARNING: DENTET: can't reach specified precision
  Number of Electrons is NELECT =   79.9967517724127     
RMM:  94     0.495968159885E+04   -0.20423E+01   -0.79728E+00  2867   0.213E+01    0.130E-01
RMM:  95     0.496279474940E+04    0.31132E+01    0.44767E+01  2808   0.208E+01    0.217E-01
RMM:  96     0.496369498720E+04    0.90024E+00    0.21112E+01  2884   0.222E+01    0.244E-01
RMM:  97     0.496606432346E+04    0.23693E+01    0.37565E+01  2951   0.228E+01    0.174E-01
RMM:  98     0.497098762584E+04    0.49233E+01    0.64691E+01  2868   0.240E+01    0.307E-01
RMM:  99     0.496832961627E+04   -0.26580E+01   -0.13155E+01  2808   0.260E+01    0.221E-01
RMM: 100     0.496508442844E+04   -0.32452E+01   -0.16055E+01  2831   0.247E+01
   7 F= 0.49650844E+04 E0= 0.49650844E+04  d E =0.526238E+04  mag=    -7.9997
 curvature:  -0.03 expect dE=-0.280E+03 dE for cont linesearch -0.152E+01
 trial: gam= 1.06341 g(F)=  0.228E-59 g(S)=  0.975E+04 ort =-0.722E+03 (trialstep = 0.501E+00)
 search vector abs. value=  0.194E+05
 bond charge predicted
       N       E                     dE             d eps       ncg     rms          rms(c)
