<?xml version="1.0" encoding="ISO-8859-1"?>
<modeling>
 <generator>
  <i name="program" type="string">vasp </i>
  <i name="version" type="string">5.3.5  </i>
  <i name="subversion" type="string">31Mar14 (build Apr 25 2014 17:03:44) complex                          parallel </i>
  <i name="platform" type="string">LinuxIFC </i>
  <i name="date" type="string">2014 08 25 </i>
  <i name="time" type="string">12:58:54 </i>
 </generator>
 <incar>
  <i type="string" name="PREC">accurate</i>
  <i type="string" name="ALGO"> Fast</i>
  <i type="int" name="ISPIN">     2</i>
  <i type="int" name="ICHARG">     1</i>
  <i type="int" name="NELM">   100</i>
  <i type="int" name="NELMIN">     6</i>
  <i type="int" name="IBRION">     2</i>
  <i name="EDIFF">      0.00020000</i>
  <i type="int" name="NSW">    99</i>
  <i type="int" name="ISIF">     3</i>
  <i name="ENCUT">    520.00000000</i>
  <v name="MAGMOM">      5.00000000     -5.00000000      0.60000000      0.60000000</v>
  <i type="string" name="LREAL"> Auto</i>
  <i type="int" name="ISMEAR">     0</i>
  <i name="SIGMA">      0.05000000</i>
  <i type="int" name="LMAXMIX">     4</i>
  <i type="logical" name="LWAVE"> F  </i>
  <i type="logical" name="LORBIT"> F  </i>
  <i type="int" name="NELM">   100</i>
  <i type="logical" name="LDAU"> T  </i>
  <v type="int" name="LDAUTYPE">     2</v>
  <v type="int" name="LDAUL">     2     0</v>
  <v name="LDAUU">      4.00000000      0.00000000</v>
  <v name="LDAUJ">      0.00000000      0.00000000</v>
 </incar>
 <kpoints>
  <generation param="Gamma">
   <v type="int" name="divisions">       1        1        1 </v>
   <v name="usershift">      0.00000000       0.00000000       0.00000000 </v>
   <v name="genvec1">      1.00000000       0.00000000       0.00000000 </v>
   <v name="genvec2">      0.00000000       1.00000000       0.00000000 </v>
   <v name="genvec3">      0.00000000       0.00000000       1.00000000 </v>
   <v name="shift">      0.00000000       0.00000000       0.00000000 </v>
  </generation>
  <varray name="kpointlist" >
   <v>       0.00000000       0.00000000       0.00000000 </v>
  </varray>
  <varray name="weights" >
   <v>       1.00000000 </v>
  </varray>
 </kpoints>
 <parameters>
  <separator name="general" >
   <i type="string" name="SYSTEM">unknown system</i>
   <i type="logical" name="LCOMPAT"> F  </i>
  </separator>
  <separator name="electronic" >
   <i type="string" name="PREC">accura</i>
   <i name="ENMAX">    520.00000000</i>
   <i name="ENAUG">    605.39200000</i>
   <i name="EDIFF">      0.00020000</i>
   <i type="int" name="IALGO">    68</i>
   <i type="int" name="IWAVPR">    11</i>
   <i type="int" name="NBANDS">    24</i>
   <i name="NELECT">     28.00000000</i>
   <i type="int" name="TURBO">     0</i>
   <i type="int" name="IRESTART">     0</i>
   <i type="int" name="NREBOOT">     0</i>
   <i type="int" name="NMIN">     0</i>
   <i name="EREF">      0.00000000</i>
   <separator name="electronic smearing" >
    <i type="int" name="ISMEAR">     0</i>
    <i name="SIGMA">      0.05000000</i>
    <i name="KSPACING">      0.50000000</i>
    <i type="logical" name="KGAMMA"> T  </i>
   </separator>
   <separator name="electronic projectors" >
    <i type="logical" name="LREAL"> T  </i>
    <v name="ROPT">     -0.00025000     -0.00025000</v>
    <i type="int" name="LMAXPAW">  -100</i>
    <i type="int" name="LMAXMIX">     4</i>
    <i type="logical" name="NLSPLINE"> F  </i>
   </separator>
   <separator name="electronic startup" >
    <i type="int" name="ISTART">     0</i>
    <i type="int" name="ICHARG">     1</i>
    <i type="int" name="INIWAV">     1</i>
   </separator>
   <separator name="electronic spin" >
    <i type="int" name="ISPIN">     2</i>
    <i type="logical" name="LNONCOLLINEAR"> F  </i>
    <v name="MAGMOM">      5.00000000     -5.00000000      0.60000000      0.60000000</v>
    <i name="NUPDOWN">     -1.00000000</i>
    <i type="logical" name="LSORBIT"> F  </i>
    <v name="SAXIS">      0.00000000      0.00000000      1.00000000</v>
    <i type="logical" name="LSPIRAL"> F  </i>
    <v name="QSPIRAL">      0.00000000      0.00000000      0.00000000</v>
    <i type="logical" name="LZEROZ"> F  </i>
   </separator>
   <separator name="electronic exchange-correlation" >
    <i type="logical" name="LASPH"> F  </i>
    <i type="logical" name="LMETAGGA"> F  </i>
   </separator>
   <separator name="electronic convergence" >
    <i type="int" name="NELM">   100</i>
    <i type="int" name="NELMDL">     0</i>
    <i type="int" name="NELMIN">     6</i>
    <i name="ENINI">    520.00000000</i>
    <separator name="electronic convergence detail" >
     <i type="logical" name="LDIAG"> T  </i>
     <i type="logical" name="LSUBROT"> F  </i>
     <i name="WEIMIN">      0.00100000</i>
     <i name="EBREAK">      0.00000208</i>
     <i name="DEPER">      0.30000000</i>
     <i type="int" name="NRMM">     4</i>
     <i name="TIME">      0.40000000</i>
    </separator>
   </separator>
   <separator name="electronic mixer" >
    <i name="AMIX">      0.40000000</i>
    <i name="BMIX">      1.00000000</i>
    <i name="AMIN">      0.10000000</i>
    <i name="AMIX_MAG">      1.60000000</i>
    <i name="BMIX_MAG">      1.00000000</i>
    <separator name="electronic mixer details" >
     <i type="int" name="IMIX">     4</i>
     <i type="int" name="MAXMIX">   -45</i>
     <i name="WC">    100.00000000</i>
     <i type="int" name="INIMIX">     1</i>
     <i type="int" name="MIXPRE">     1</i>
     <i type="int" name="MREMOVE">     5</i>
    </separator>
   </separator>
   <separator name="electronic dipolcorrection" >
    <i type="logical" name="LDIPOL"> F  </i>
    <i type="logical" name="LMONO"> F  </i>
    <i type="int" name="IDIPOL">     0</i>
    <i name="EPSILON">      1.00000000</i>
    <v name="DIPOL">   -100.00000000   -100.00000000   -100.00000000</v>
    <i name="EFIELD">      0.00000000</i>
   </separator>
  </separator>
  <separator name="grids" >
   <i type="int" name="NGX">    24</i>
   <i type="int" name="NGY">    24</i>
   <i type="int" name="NGZ">    40</i>
   <i type="int" name="NGXF">    48</i>
   <i type="int" name="NGYF">    48</i>
   <i type="int" name="NGZF">    80</i>
   <i type="logical" name="ADDGRID"> F  </i>
  </separator>
  <separator name="ionic" >
   <i type="int" name="NSW">    99</i>
   <i type="int" name="IBRION">     2</i>
   <i type="int" name="ISIF">     3</i>
   <i name="PSTRESS">      0.00000000</i>
   <i name="EDIFFG">      0.00200000</i>
   <i type="int" name="NFREE">     1</i>
   <i name="POTIM">      0.50000000</i>
   <i name="SMASS">     -3.00000000</i>
   <i name="SCALEE">      1.00000000</i>
  </separator>
  <separator name="ionic md" >
   <i name="TEBEG">      0.00010000</i>
   <i name="TEEND">      0.00010000</i>
   <i type="int" name="NBLOCK">     1</i>
   <i type="int" name="KBLOCK">    99</i>
   <i type="int" name="NPACO">   256</i>
   <i name="APACO">     16.00000000</i>
  </separator>
  <separator name="symmetry" >
   <i type="int" name="ISYM">     2</i>
   <i name="SYMPREC">      0.00001000</i>
  </separator>
  <separator name="dos" >
   <i type="logical" name="LORBIT"> F  </i>
   <v name="RWIGS">     -1.00000000     -1.00000000</v>
   <i type="int" name="NEDOS">   301</i>
   <i name="EMIN">     10.00000000</i>
   <i name="EMAX">    -10.00000000</i>
   <i name="EFERMI">      0.00000000</i>
  </separator>
  <separator name="writing" >
   <i type="int" name="NWRITE">     2</i>
   <i type="logical" name="LWAVE"> F  </i>
   <i type="logical" name="LCHARG"> T  </i>
   <i type="logical" name="LPARD"> F  </i>
   <i type="logical" name="LVTOT"> F  </i>
   <i type="logical" name="LVHAR"> F  </i>
   <i type="logical" name="LELF"> F  </i>
   <i type="logical" name="LOPTICS"> F  </i>
   <v name="STM">      0.00000000      0.00000000      0.00000000      0.00000000      0.00000000      0.00000000      0.00000000</v>
  </separator>
  <separator name="performance" >
   <i type="int" name="NPAR">    12</i>
   <i type="int" name="NSIM">     4</i>
   <i type="int" name="NBLK">    -1</i>
   <i type="logical" name="LPLANE"> T  </i>
   <i type="logical" name="LSCALAPACK"> F  </i>
   <i type="logical" name="LSCAAWARE"> F  </i>
   <i type="logical" name="LSCALU"> F  </i>
   <i type="logical" name="LASYNC"> F  </i>
   <i type="logical" name="LORBITALREAL"> F  </i>
  </separator>
  <separator name="miscellaneous" >
   <i type="int" name="IDIOT">     3</i>
   <i type="logical" name="LMUSIC"> F  </i>
   <v name="POMASS">     55.84700000     16.00000000</v>
   <v name="DARWINR">      0.00000000      0.00000000</v>
   <v name="DARWINV">      1.00000000      1.00000000</v>
   <i type="logical" name="LCORR"> T  </i>
  </separator>
  <i type="logical" name="GGA_COMPAT"> T  </i>
  <i type="logical" name="LBERRY"> F  </i>
  <i type="int" name="ICORELEVEL">     0</i>
  <i type="logical" name="LDAU"> T  </i>
  <v type="int" name="LDAUTYPE">     2</v>
  <v type="int" name="LDAUL">     2</v>
  <v name="LDAUU">      4.00000000</v>
  <v name="LDAUJ">      0.00000000</v>
  <i type="int" name="LDAUPRINT">     0</i>
  <i type="int" name="I_CONSTRAINED_M">     0</i>
  <separator name="electronic exchange-correlation" >
   <i type="string" name="GGA">--</i>
   <i type="int" name="VOSKOWN">     0</i>
   <i type="logical" name="LHFCALC"> F  </i>
   <i type="string" name="PRECFOCK"></i>
   <i type="logical" name="LSYMGRAD"> F  </i>
   <i type="logical" name="LHFONE"> F  </i>
   <i type="logical" name="LRHFCALC"> F  </i>
   <i type="logical" name="LTHOMAS"> F  </i>
   <i type="logical" name="LMODELHF"> F  </i>
   <i name="ENCUT4O">     -1.00000000</i>
   <i type="int" name="EXXOEP">     0</i>
   <i type="int" name="FOURORBIT">     0</i>
   <i name="AEXX">      0.00000000</i>
   <i name="HFALPHA">      0.00000000</i>
   <i name="MCALPHA">      0.00000000</i>
   <i name="ALDAX">      1.00000000</i>
   <i name="AGGAX">      1.00000000</i>
   <i name="ALDAC">      1.00000000</i>
   <i name="AGGAC">      1.00000000</i>
   <i type="int" name="NKREDX">     1</i>
   <i type="int" name="NKREDY">     1</i>
   <i type="int" name="NKREDZ">     1</i>
   <i type="logical" name="SHIFTRED"> F  </i>
   <i type="logical" name="ODDONLY"> F  </i>
   <i type="logical" name="EVENONLY"> F  </i>
   <i type="int" name="LMAXFOCK">     0</i>
   <i type="int" name="NMAXFOCKAE">     0</i>
   <i type="logical" name="LFOCKAEDFT"> F  </i>
   <i name="HFSCREEN">      0.00000000</i>
   <i name="HFSCREENC">      0.00000000</i>
   <i type="int" name="NBANDSGWLOW">     0</i>
  </separator>
  <separator name="vdW DFT" >
   <i type="logical" name="LUSE_VDW"> F  </i>
   <i name="Zab_VDW">     -0.84910000</i>
   <i name="PARAM1">      0.12340000</i>
   <i name="PARAM2">      1.00000000</i>
   <i name="PARAM3">      0.00000000</i>
  </separator>
  <separator name="model GW" >
   <i type="int" name="MODEL_GW">     0</i>
   <i name="MODEL_EPS0">      6.29094091</i>
   <i name="MODEL_ALPHA">      1.00000000</i>
  </separator>
  <separator name="linear response parameters" >
   <i type="logical" name="LEPSILON"> F  </i>
   <i type="logical" name="LRPA"> F  </i>
   <i type="logical" name="LNABLA"> F  </i>
   <i type="logical" name="LVEL"> F  </i>
   <i type="int" name="KINTER">     0</i>
   <i name="CSHIFT">      0.10000000</i>
   <i name="OMEGAMAX">     -1.00000000</i>
   <i name="DEG_THRESHOLD">      0.00200000</i>
  </separator>
  <separator name="orbital magnetization" >
   <i type="logical" name="NUCIND"> F  </i>
   <v name="MAGPOS">      0.00000000      0.00000000      0.00000000</v>
   <i type="logical" name="LNICSALL"> T  </i>
   <i type="logical" name="ORBITALMAG"> F  </i>
   <i type="logical" name="LMAGBLOCH"> F  </i>
   <i type="logical" name="LCHIMAG"> F  </i>
   <i type="logical" name="LGAUGE"> T  </i>
   <i type="int" name="MAGATOM">     0</i>
   <v name="MAGDIPOL">      0.00000000      0.00000000      0.00000000</v>
   <v name="AVECCONST">      0.00000000      0.00000000      0.00000000</v>
  </separator>
  <separator name="response functions" >
   <i type="logical" name="LADDER"> F  </i>
   <i type="logical" name="LFXC"> F  </i>
   <i type="logical" name="LHARTREE"> T  </i>
   <i type="int" name="IBSE">     0</i>
   <i type="logical" name="LTCTE"> F  </i>
   <i type="logical" name="LTETE"> F  </i>
   <i type="logical" name="LTRIPLET"> F  </i>
   <i type="logical" name="LFXCEPS"> F  </i>
   <i type="logical" name="LFXHEG"> F  </i>
   <i type="logical" name="L2ORDER"> F  </i>
   <i type="logical" name="LUSEW"> F  </i>
   <i name="ENCUTGW">     -2.00000000</i>
   <i name="ENCUTGWSOFT">     -2.00000000</i>
   <i name="ENCUTLF">     -1.00000000</i>
   <i type="int" name="LMAXMP2">    -1</i>
   <i name="SCISSOR">      0.00000000</i>
   <i type="int" name="NOMEGA">     0</i>
   <i type="int" name="NOMEGAR">     0</i>
   <i type="int" name="NBANDSGW">    -1</i>
   <i type="int" name="NBANDSO">    -1</i>
   <i type="int" name="NBANDSV">    -1</i>
   <i type="int" name="NELM">   100</i>
   <i type="int" name="DIM">     3</i>
   <i type="int" name="ANTIRES">     0</i>
   <i name="OMEGAMAX">    -30.00000000</i>
   <i name="OMEGAMIN">    -30.00000000</i>
   <i name="OMEGATL">   -200.00000000</i>
   <i type="int" name="OMEGAGRID">     0</i>
   <i name="CSHIFT">     -0.10000000</i>
   <i type="logical" name="SELFENERGY"> F  </i>
   <i type="logical" name="LSPECTRAL"> F  </i>
   <i type="logical" name="ODDONLYGW"> F  </i>
   <i type="logical" name="EVENONLYGW"> F  </i>
   <i type="int" name="NKREDLFX">     1</i>
   <i type="int" name="NKREDLFY">     1</i>
   <i type="int" name="NKREDLFZ">     1</i>
   <i type="int" name="MAXMEM">  1800</i>
   <i type="int" name="TELESCOPE">     0</i>
   <i type="int" name="TAUPAR">     1</i>
  </separator>
  <separator name="External order field" >
   <i name="OFIELD_KAPPA">      0.00000000</i>
   <v name="OFIELD_K">      0.00000000      0.00000000      0.00000000</v>
   <i name="OFIELD_Q6_NEAR">      0.00000000</i>
   <i name="OFIELD_Q6_FAR">      0.00000000</i>
   <i name="OFIELD_A">      0.00000000</i>
  </separator>
 </parameters>
 <atominfo>
  <atoms>       4 </atoms>
  <types>       2 </types>
  <array name="atoms" >
   <dimension dim="1">ion</dimension>
   <field type="string">element</field>
   <field type="int">atomtype</field>
   <set>
    <rc><c>Fe</c><c>   1</c></rc>
    <rc><c>Fe</c><c>   1</c></rc>
    <rc><c>O </c><c>   2</c></rc>
    <rc><c>O </c><c>   2</c></rc>
   </set>
  </array>
  <array name="atomtypes" >
   <dimension dim="1">type</dimension>
   <field type="int">atomspertype</field>
   <field type="string">element</field>
   <field>mass</field>
   <field>valence</field>
   <field type="string">pseudopotential</field>
   <set>
    <rc><c>   2</c><c>Fe</c><c>     55.84700000</c><c>      8.00000000</c><c> PAW_PBE Fe 06Sep2000                   </c></rc>
    <rc><c>   2</c><c>O </c><c>     16.00000000</c><c>      6.00000000</c><c> PAW_PBE O 08Apr2002                    </c></rc>
   </set>
  </array>
 </atominfo>
 <structure name="initialpos" >
  <crystal>
   <varray name="basis" >
    <v>      -2.65978300       0.00000000      -1.52943400 </v>
    <v>       0.92931800       2.56184200       1.46134000 </v>
    <v>       2.65978300       0.00000000      -4.62553400 </v>
   </varray>
   <i name="volume">     41.93960604 </i>
   <varray name="rec_basis" >
    <v>      -0.28254646       0.19517206      -0.16247038 </v>
    <v>       0.00000000       0.39034414       0.00000000 </v>
    <v>       0.09342406       0.05878731      -0.16247038 </v>
   </varray>
  </crystal>
  <varray name="positions" >
   <v>       0.00000000       0.00000000       0.00000000 </v>
   <v>       0.50000000       0.00000000       0.50000000 </v>
   <v>       0.22793100       0.45586200       0.74854800 </v>
   <v>       0.77206900       0.54413800       0.25145200 </v>
  </varray>
 </structure>
 <calculation>
  <scstep>
   <time name="dav">    0.19    0.22</time>
   <time name="total">    0.32    0.37</time>
   <energy>
    <i name="alphaZ">    146.23189702 </i>
    <i name="ewald">  -1849.99285219 </i>
    <i name="hartreedc">   -411.94114337 </i>
    <i name="XCdc">     67.70873740 </i>
    <i name="pawpsdc">   1443.64007120 </i>
    <i name="pawaedc">  -1440.17014874 </i>
    <i name="eentropy">     -0.00000184 </i>
    <i name="bandstr">    187.91045996 </i>
    <i name="atom">   2053.64813947 </i>
    <i name="e_fr_energy">    197.03515890 </i>
    <i name="e_wo_entrp">    197.03516074 </i>
    <i name="e_0_energy">    197.03515982 </i>
   </energy>
  </scstep>
  <scstep>
   <time name="dav">    0.21    0.21</time>
   <time name="total">    0.21    0.21</time>
   <energy>
    <i name="e_fr_energy">    -18.71267927 </i>
    <i name="e_wo_entrp">    -18.71267927 </i>
    <i name="e_0_energy">    -18.71267927 </i>
   </energy>
  </scstep>
  <scstep>
   <time name="dav">    0.22    0.22</time>
   <time name="total">    0.22    0.22</time>
   <energy>
    <i name="e_fr_energy">    -33.32074301 </i>
    <i name="e_wo_entrp">    -33.32074301 </i>
    <i name="e_0_energy">    -33.32074301 </i>
   </energy>
  </scstep>
  <scstep>
   <time name="dav">    0.24    0.24</time>
   <time name="total">    0.24    0.24</time>
   <energy>
    <i name="e_fr_energy">    -33.48624650 </i>
    <i name="e_wo_entrp">    -33.48624650 </i>
    <i name="e_0_energy">    -33.48624650 </i>
   </energy>
  </scstep>
  <scstep>
   <time name="dav">    0.20    0.20</time>
   <time name="total">    0.23    0.23</time>
   <energy>
    <i name="e_fr_energy">    -33.48898922 </i>
    <i name="e_wo_entrp">    -33.48898922 </i>
    <i name="e_0_energy">    -33.48898922 </i>
   </energy>
  </scstep>
  <scstep>
   <time name="diag">    0.02    0.02</time>
   <time name="diis">    0.11    0.11</time>
   <time name="orth">    0.00    0.00</time>
   <time name="total">    0.28    0.28</time>
   <energy>
    <i name="e_fr_energy">    -25.23818522 </i>
    <i name="e_wo_entrp">    -25.19848084 </i>
    <i name="e_0_energy">    -25.21833303 </i>
   </energy>
  </scstep>
  <scstep>
   <time name="diag">    0.02    0.02</time>
   <time name="diis">    0.11    0.11</time>
   <time name="orth">    0.00    0.00</time>
   <time name="total">    0.27    0.27</time>
   <energy>
    <i name="e_fr_energy">    -21.02194604 </i>
    <i name="e_wo_entrp">    -21.02194604 </i>
    <i name="e_0_energy">    -21.02194604 </i>
   </energy>
  </scstep>
  <scstep>
   <time name="diag">    0.02    0.02</time>
   <time name="diis">    0.11    0.11</time>
   <time name="orth">    0.00    0.00</time>
   <time name="total">    0.26    0.26</time>
   <energy>
    <i name="e_fr_energy">    -20.46780784 </i>
    <i name="e_wo_entrp">    -20.46780784 </i>
    <i name="e_0_energy">    -20.46780784 </i>
   </energy>
  </scstep>
  <scstep>
   <time name="diag">    0.02    0.02</time>
   <time name="diis">    0.11    0.11</time>
   <time name="orth">    0.00    0.00</time>
   <time name="total">    0.24    0.24</time>
   <energy>
    <i name="e_fr_energy">    -19.77802604 </i>
    <i name="e_wo_entrp">    -19.77802548 </i>
    <i name="e_0_energy">    -19.77802576 </i>
   </energy>
  </scstep>
  <scstep>
   <time name="diag">    0.02    0.02</time>
   <time name="diis">    0.11    0.11</time>
   <time name="orth">    0.00    0.00</time>
   <time name="total">    0.25    0.25</time>
   <energy>
    <i name="e_fr_energy">    -19.72470299 </i>
    <i name="e_wo_entrp">    -19.72470280 </i>
    <i name="e_0_energy">    -19.72470289 </i>
   </energy>
  </scstep>
  <scstep>
   <time name="diag">    0.02    0.02</time>
   <time name="diis">    0.11    0.11</time>
   <time name="orth">    0.00    0.00</time>
   <time name="total">    0.24    0.24</time>
   <energy>
    <i name="e_fr_energy">    -19.75557631 </i>
    <i name="e_wo_entrp">    -19.75557522 </i>
    <i name="e_0_energy">    -19.75557576 </i>
   </energy>
  </scstep>
  <scstep>
   <time name="diag">    0.02    0.02</time>
   <time name="diis">    0.14    0.14</time>
   <time name="orth">    0.00    0.00</time>
   <time name="total">    0.26    0.26</time>
   <energy>
    <i name="e_fr_energy">    -19.53482053 </i>
    <i name="e_wo_entrp">    -19.53474918 </i>
    <i name="e_0_energy">    -19.53478486 </i>
   </energy>
  </scstep>
  <scstep>
   <time name="diag">    0.02    0.02</time>
   <time name="diis">    0.13    0.13</time>
   <time name="orth">    0.00    0.00</time>
   <time name="total">    0.26    0.26</time>
   <energy>
    <i name="e_fr_energy">    -19.51386470 </i>
    <i name="e_wo_entrp">    -19.48597352 </i>
    <i name="e_0_energy">    -19.49991911 </i>
   </energy>
  </scstep>
  <scstep>
   <time name="diag">    0.02    0.02</time>
   <time name="diis">    0.11    0.11</time>
   <time name="orth">    0.00    0.00</time>
   <time name="total">    0.23    0.23</time>
   <energy>
    <i name="e_fr_energy">    -19.64737035 </i>
    <i name="e_wo_entrp">    -19.62173575 </i>
    <i name="e_0_energy">    -19.63455305 </i>
   </energy>
  </scstep>
  <scstep>
   <time name="diag">    0.02    0.02</time>
   <time name="diis">    0.13    0.14</time>
   <time name="orth">    0.00    0.00</time>
   <time name="total">    0.26    0.26</time>
   <energy>
    <i name="e_fr_energy">    -19.83094272 </i>
    <i name="e_wo_entrp">    -19.83087380 </i>
    <i name="e_0_energy">    -19.83090826 </i>
   </energy>
  </scstep>
  <scstep>
   <time name="diag">    0.02    0.02</time>
   <time name="diis">    0.09    0.09</time>
   <time name="orth">    0.00    0.00</time>
   <time name="total">    0.21    0.21</time>
   <energy>
    <i name="e_fr_energy">    -19.85465001 </i>
    <i name="e_wo_entrp">    -19.85464394 </i>
    <i name="e_0_energy">    -19.85464698 </i>
   </energy>
  </scstep>
  <scstep>
   <time name="diag">    0.02    0.02</time>
   <time name="diis">    0.09    0.09</time>
   <time name="orth">    0.00    0.00</time>
   <time name="total">    0.21    0.21</time>
   <energy>
    <i name="e_fr_energy">    -19.90311020 </i>
    <i name="e_wo_entrp">    -19.90304550 </i>
    <i name="e_0_energy">    -19.90307785 </i>
   </energy>
  </scstep>
  <scstep>
   <time name="diag">    0.02    0.02</time>
   <time name="diis">    0.09    0.09</time>
   <time name="orth">    0.00    0.00</time>
   <time name="total">    0.21    0.21</time>
   <energy>
    <i name="e_fr_energy">    -19.82778607 </i>
    <i name="e_wo_entrp">    -19.82725549 </i>
    <i name="e_0_energy">    -19.82752078 </i>
   </energy>
  </scstep>
  <scstep>
   <time name="diag">    0.02    0.02</time>
   <time name="diis">    0.09    0.09</time>
   <time name="orth">    0.00    0.00</time>
   <time name="total">    0.21    0.21</time>
   <energy>
    <i name="e_fr_energy">    -19.95039897 </i>
    <i name="e_wo_entrp">    -19.95034806 </i>
    <i name="e_0_energy">    -19.95037351 </i>
   </energy>
  </scstep>
  <scstep>
   <time name="diag">    0.02    0.02</time>
   <time name="diis">    0.09    0.09</time>
   <time name="orth">    0.00    0.00</time>
   <time name="total">    0.21    0.21</time>
   <energy>
    <i name="e_fr_energy">    -20.13249891 </i>
    <i name="e_wo_entrp">    -20.13246344 </i>
    <i name="e_0_energy">    -20.13248117 </i>
   </energy>
  </scstep>
  <scstep>
   <time name="diag">    0.02    0.02</time>
   <time name="diis">    0.09    0.09</time>
   <time name="orth">    0.00    0.00</time>
   <time name="total">    0.22    0.22</time>
   <energy>
    <i name="e_fr_energy">    -20.18092644 </i>
    <i name="e_wo_entrp">    -20.18092644 </i>
    <i name="e_0_energy">    -20.18092644 </i>
   </energy>
  </scstep>
  <scstep>
   <time name="diag">    0.02    0.02</time>
   <time name="diis">    0.09    0.09</time>
   <time name="orth">    0.00    0.00</time>
   <time name="total">    0.21    0.21</time>
   <energy>
    <i name="e_fr_energy">    -20.23080185 </i>
    <i name="e_wo_entrp">    -20.23080185 </i>
    <i name="e_0_energy">    -20.23080185 </i>
   </energy>
  </scstep>
  <scstep>
   <time name="diag">    0.02    0.02</time>
   <time name="diis">    0.09    0.09</time>
   <time name="orth">    0.00    0.00</time>
   <time name="total">    0.21    0.21</time>
   <energy>
    <i name="e_fr_energy">    -20.24928036 </i>
    <i name="e_wo_entrp">    -20.24928036 </i>
    <i name="e_0_energy">    -20.24928036 </i>
   </energy>
  </scstep>
  <scstep>
   <time name="diag">    0.02    0.02</time>
   <time name="diis">    0.09    0.09</time>
   <time name="orth">    0.00    0.00</time>
   <time name="total">    0.21    0.21</time>
   <energy>
    <i name="e_fr_energy">    -20.21645837 </i>
    <i name="e_wo_entrp">    -20.21645837 </i>
    <i name="e_0_energy">    -20.21645837 </i>
   </energy>
  </scstep>
  <scstep>
   <time name="diag">    0.02    0.02</time>
   <time name="diis">    0.09    0.09</time>
   <time name="orth">    0.00    0.00</time>
   <time name="total">    0.21    0.21</time>
   <energy>
    <i name="e_fr_energy">    -20.19998394 </i>
    <i name="e_wo_entrp">    -20.19998394 </i>
    <i name="e_0_energy">    -20.19998394 </i>
   </energy>
  </scstep>
  <scstep>
   <time name="diag">    0.02    0.02</time>
   <time name="diis">    0.07    0.07</time>
   <time name="orth">    0.00    0.00</time>
   <time name="total">    0.19    0.19</time>
   <energy>
    <i name="e_fr_energy">    -20.20019844 </i>
    <i name="e_wo_entrp">    -20.20019844 </i>
    <i name="e_0_energy">    -20.20019844 </i>
   </energy>
  </scstep>
  <scstep>
   <time name="diag">    0.02    0.02</time>
   <time name="diis">    0.08    0.08</time>
   <time name="orth">    0.00    0.00</time>
   <time name="total">    0.21    0.21</time>
   <energy>
    <i name="e_fr_energy">    -20.19428887 </i>
    <i name="e_wo_entrp">    -20.19428887 </i>
    <i name="e_0_energy">    -20.19428887 </i>
   </energy>
  </scstep>
  <scstep>
   <time name="diag">    0.02    0.02</time>
   <time name="diis">    0.09    0.09</time>
   <time name="orth">    0.00    0.00</time>
   <time name="total">    0.21    0.21</time>
   <energy>
    <i name="e_fr_energy">    -20.19810449 </i>
    <i name="e_wo_entrp">    -20.19810449 </i>
    <i name="e_0_energy">    -20.19810449 </i>
   </energy>
  </scstep>
  <scstep>
   <time name="diag">    0.02    0.02</time>
   <time name="diis">    0.09    0.09</time>
   <time name="orth">    0.00    0.00</time>
   <time name="total">    0.21    0.21</time>
   <energy>
    <i name="e_fr_energy">    -20.21329026 </i>
    <i name="e_wo_entrp">    -20.21329026 </i>
    <i name="e_0_energy">    -20.21329026 </i>
   </energy>
  </scstep>
  <scstep>
   <time name="diag">    0.02    0.02</time>
   <time name="diis">    0.09    0.09</time>
   <time name="orth">    0.00    0.00</time>
   <time name="total">    0.21    0.22</time>
   <energy>
    <i name="e_fr_energy">    -20.20818437 </i>
    <i name="e_wo_entrp">    -20.20818437 </i>
    <i name="e_0_energy">    -20.20818437 </i>
   </energy>
  </scstep>
  <scstep>
   <time name="diag">    0.02    0.02</time>
   <time name="diis">    0.10    0.10</time>
   <time name="orth">    0.00    0.00</time>
   <time name="total">    0.22    0.22</time>
   <energy>
    <i name="e_fr_energy">    -20.28717645 </i>
    <i name="e_wo_entrp">    -20.28717645 </i>
    <i name="e_0_energy">    -20.28717645 </i>
   </energy>
  </scstep>
  <scstep>
   <time name="diag">    0.02    0.02</time>
   <time name="diis">    0.09    0.09</time>
   <time name="orth">    0.00    0.00</time>
   <time name="total">    0.21    0.21</time>
   <energy>
    <i name="e_fr_energy">    -20.47178845 </i>
    <i name="e_wo_entrp">    -20.47178845 </i>
    <i name="e_0_energy">    -20.47178845 </i>
   </energy>
  </scstep>
  <scstep>
   <time name="diag">    0.02    0.02</time>
   <time name="diis">    0.09    0.09</time>
   <time name="orth">    0.00    0.00</time>
   <time name="total">    0.22    0.22</time>
   <energy>
    <i name="e_fr_energy">    -20.57944629 </i>
    <i name="e_wo_entrp">    -20.57944629 </i>
    <i name="e_0_energy">    -20.57944629 </i>
   </energy>
  </scstep>
  <scstep>
   <time name="diag">    0.02    0.02</time>
   <time name="diis">    0.09    0.09</time>
   <time name="orth">    0.00    0.00</time>
   <time name="total">    0.22    0.22</time>
   <energy>
    <i name="e_fr_energy">    -20.59225486 </i>
    <i name="e_wo_entrp">    -20.59225486 </i>
    <i name="e_0_energy">    -20.59225486 </i>
   </energy>
  </scstep>
  <scstep>
   <time name="diag">    0.02    0.02</time>
   <time name="diis">    0.09    0.09</time>
   <time name="orth">    0.00    0.00</time>
   <time name="total">    0.21    0.21</time>
   <energy>
    <i name="e_fr_energy">    -20.59035349 </i>
    <i name="e_wo_entrp">    -20.59035349 </i>
    <i name="e_0_energy">    -20.59035349 </i>
   </energy>
  </scstep>
  <scstep>
   <time name="diag">    0.02    0.02</time>
   <time name="diis">    0.09    0.09</time>
   <time name="orth">    0.00    0.00</time>
   <time name="total">    0.21    0.21</time>
   <energy>
    <i name="e_fr_energy">    -20.62199330 </i>
    <i name="e_wo_entrp">    -20.62199330 </i>
    <i name="e_0_energy">    -20.62199330 </i>
   </energy>
  </scstep>
  <scstep>
   <time name="diag">    0.02    0.02</time>
   <time name="diis">    0.10    0.10</time>
   <time name="orth">    0.00    0.00</time>
   <time name="total">    0.22    0.23</time>
   <energy>
    <i name="e_fr_energy">    -20.66861704 </i>
    <i name="e_wo_entrp">    -20.66861704 </i>
    <i name="e_0_energy">    -20.66861704 </i>
   </energy>
  </scstep>
  <scstep>
   <time name="diag">    0.02    0.02</time>
   <time name="diis">    0.09    0.09</time>
   <time name="orth">    0.00    0.00</time>
   <time name="total">    0.21    0.25</time>
   <energy>
    <i name="e_fr_energy">    -20.65963097 </i>
    <i name="e_wo_entrp">    -20.65963097 </i>
    <i name="e_0_energy">    -20.65963097 </i>
   </energy>
  </scstep>
  <scstep>
   <time name="diag">    0.02    0.02</time>
   <time name="diis">    0.09    0.09</time>
   <time name="orth">    0.00    0.00</time>
   <time name="total">    0.22    0.22</time>
   <energy>
    <i name="e_fr_energy">    -20.66318733 </i>
    <i name="e_wo_entrp">    -20.66318733 </i>
    <i name="e_0_energy">    -20.66318733 </i>
   </energy>
  </scstep>
  <scstep>
   <time name="diag">    0.02    0.02</time>
   <time name="diis">    0.08    0.08</time>
   <time name="orth">    0.00    0.00</time>
   <time name="total">    0.17    0.17</time>
   <energy>
    <i name="alphaZ">    146.23189702 </i>
    <i name="ewald">  -1849.99285219 </i>
    <i name="hartreedc">   -421.52936842 </i>
    <i name="XCdc">     68.20924431 </i>
    <i name="pawpsdc">   1536.36289889 </i>
    <i name="pawaedc">  -1535.61295540 </i>
    <i name="eentropy">     -0.00000000 </i>
    <i name="bandstr">    -17.98024082 </i>
    <i name="atom">   2053.64813947 </i>
    <i name="e_fr_energy">    -20.66323714 </i>
    <i name="e_wo_entrp">    -20.66323714 </i>
    <i name="e_0_energy">    -20.66323714 </i>
   </energy>
  </scstep>
  <structure>
   <crystal>
    <varray name="basis" >
     <v>      -2.65978300       0.00000000      -1.52943400 </v>
     <v>       0.92931800       2.56184200       1.46134000 </v>
     <v>       2.65978300       0.00000000      -4.62553400 </v>
    </varray>
    <i name="volume">     41.93960604 </i>
    <varray name="rec_basis" >
     <v>      -0.28254646       0.19517206      -0.16247038 </v>
     <v>       0.00000000       0.39034414       0.00000000 </v>
     <v>       0.09342406       0.05878731      -0.16247038 </v>
    </varray>
   </crystal>
   <varray name="positions" >
    <v>       0.00000000       0.00000000       0.00000000 </v>
    <v>       0.50000000       0.00000000       0.50000000 </v>
    <v>       0.22793100       0.45586200       0.74854800 </v>
    <v>       0.77206900       0.54413800       0.25145200 </v>
   </varray>
  </structure>
  <varray name="forces" >
   <v>      -0.00000000       0.00000000      -0.00000000 </v>
   <v>      -0.00000000       0.00000000      -0.00000000 </v>
   <v>       0.03352170      -1.61123408      -0.05829632 </v>
   <v>      -0.03352170       1.61123408       0.05829632 </v>
  </varray>
  <varray name="stress" >
   <v>     -25.15548400      32.46476110     -52.30519996 </v>
   <v>      32.46476111     137.04889253     -56.45831785 </v>
   <v>     -52.30519996     -56.45831784      35.72997452 </v>
  </varray>
  <energy>
   <i name="e_fr_energy">    -20.66323714 </i>
   <i name="e_wo_entrp">    -20.66323714 </i>
   <i name="e_0_energy">     -0.00000000 </i>
  </energy>
  <time name="totalsc">   10.77   10.86</time>
 </calculation>
 <calculation>
  <scstep>
   <time name="dav">    0.15    0.15</time>
   <time name="total">    0.25    0.25</time>
   <energy>
    <i name="alphaZ">    139.80680484 </i>
    <i name="ewald">  -1818.80141101 </i>
    <i name="hartreedc">   -417.49004521 </i>
    <i name="XCdc">     66.51949386 </i>
    <i name="pawpsdc">   1536.74670120 </i>
    <i name="pawaedc">  -1536.00120779 </i>
    <i name="eentropy">     -0.00000000 </i>
    <i name="bandstr">    -45.98252822 </i>
    <i name="atom">   2053.64813947 </i>
    <i name="e_fr_energy">    -21.55405286 </i>
    <i name="e_wo_entrp">    -21.55405286 </i>
    <i name="e_0_energy">    -21.55405286 </i>
   </energy>
  </scstep>
  <scstep>
   <time name="diag">    0.02    0.02</time>
   <time name="diis">    0.08    0.08</time>
   <time name="orth">    0.00    0.00</time>
   <time name="total">    0.20    0.21</time>
   <energy>
    <i name="e_fr_energy">    -21.22871925 </i>
    <i name="e_wo_entrp">    -21.22871925 </i>
    <i name="e_0_energy">    -21.22871925 </i>
   </energy>
  </scstep>
  <scstep>
   <time name="diag">    0.02    0.02</time>
   <time name="diis">    0.08    0.09</time>
   <time name="orth">    0.00    0.00</time>
   <time name="total">    0.21    0.21</time>
   <energy>
    <i name="e_fr_energy">    -21.21608476 </i>
    <i name="e_wo_entrp">    -21.21608476 </i>
    <i name="e_0_energy">    -21.21608476 </i>
   </energy>
  </scstep>
  <scstep>
   <time name="diag">    0.02    0.02</time>
   <time name="diis">    0.09    0.09</time>
   <time name="orth">    0.00    0.00</time>
   <time name="total">    0.21    0.21</time>
   <energy>
    <i name="e_fr_energy">    -21.16473604 </i>
    <i name="e_wo_entrp">    -21.16473604 </i>
    <i name="e_0_energy">    -21.16473604 </i>
   </energy>
  </scstep>
  <scstep>
   <time name="diag">    0.02    0.02</time>
   <time name="diis">    0.09    0.09</time>
   <time name="orth">    0.00    0.00</time>
   <time name="total">    0.21    0.22</time>
   <energy>
    <i name="e_fr_energy">    -21.16281256 </i>
    <i name="e_wo_entrp">    -21.16281256 </i>
    <i name="e_0_energy">    -21.16281256 </i>
   </energy>
  </scstep>
  <scstep>
   <time name="diag">    0.02    0.02</time>
   <time name="diis">    0.08    0.09</time>
   <time name="orth">    0.00    0.00</time>
   <time name="total">    0.21    0.21</time>
   <energy>
    <i name="e_fr_energy">    -21.16500891 </i>
    <i name="e_wo_entrp">    -21.16500891 </i>
    <i name="e_0_energy">    -21.16500891 </i>
   </energy>
  </scstep>
  <scstep>
   <time name="diag">    0.02    0.02</time>
   <time name="diis">    0.08    0.08</time>
   <time name="orth">    0.00    0.00</time>
   <time name="total">    0.20    0.20</time>
   <energy>
    <i name="e_fr_energy">    -21.16555271 </i>
    <i name="e_wo_entrp">    -21.16555271 </i>
    <i name="e_0_energy">    -21.16555271 </i>
   </energy>
  </scstep>
  <scstep>
   <time name="diag">    0.02    0.02</time>
   <time name="diis">    0.08    0.08</time>
   <time name="orth">    0.00    0.00</time>
   <time name="total">    0.20    0.20</time>
   <energy>
    <i name="e_fr_energy">    -21.16692613 </i>
    <i name="e_wo_entrp">    -21.16692613 </i>
    <i name="e_0_energy">    -21.16692613 </i>
   </energy>
  </scstep>
  <scstep>
   <time name="diag">    0.02    0.02</time>
   <time name="diis">    0.08    0.08</time>
   <time name="orth">    0.00    0.00</time>
   <time name="total">    0.20    0.20</time>
   <energy>
    <i name="e_fr_energy">    -21.16863255 </i>
    <i name="e_wo_entrp">    -21.16863255 </i>
    <i name="e_0_energy">    -21.16863255 </i>
   </energy>
  </scstep>
  <scstep>
   <time name="diag">    0.02    0.02</time>
   <time name="diis">    0.07    0.07</time>
   <time name="orth">    0.00    0.00</time>
   <time name="total">    0.19    0.19</time>
   <energy>
    <i name="e_fr_energy">    -21.16931199 </i>
    <i name="e_wo_entrp">    -21.16931199 </i>
    <i name="e_0_energy">    -21.16931199 </i>
   </energy>
  </scstep>
  <scstep>
   <time name="diag">    0.02    0.02</time>
   <time name="diis">    0.08    0.08</time>
   <time name="orth">    0.00    0.00</time>
   <time name="total">    0.20    0.20</time>
   <energy>
    <i name="e_fr_energy">    -21.17016301 </i>
    <i name="e_wo_entrp">    -21.17016301 </i>
    <i name="e_0_energy">    -21.17016301 </i>
   </energy>
  </scstep>
  <scstep>
   <time name="diag">    0.02    0.02</time>
   <time name="diis">    0.08    0.08</time>
   <time name="orth">    0.00    0.00</time>
   <time name="total">    0.20    0.20</time>
   <energy>
    <i name="e_fr_energy">    -21.17071117 </i>
    <i name="e_wo_entrp">    -21.17071117 </i>
    <i name="e_0_energy">    -21.17071117 </i>
   </energy>
  </scstep>
  <scstep>
   <time name="diag">    0.02    0.02</time>
   <time name="diis">    0.07    0.07</time>
   <time name="orth">    0.00    0.00</time>
   <time name="total">    0.19    0.19</time>
   <energy>
    <i name="e_fr_energy">    -21.17107312 </i>
    <i name="e_wo_entrp">    -21.17107312 </i>
    <i name="e_0_energy">    -21.17107312 </i>
   </energy>
  </scstep>
  <scstep>
   <time name="diag">    0.02    0.02</time>
   <time name="diis">    0.06    0.06</time>
   <time name="orth">    0.00    0.00</time>
   <time name="total">    0.16    0.16</time>
   <energy>
    <i name="alphaZ">    139.80680484 </i>
    <i name="ewald">  -1818.80141101 </i>
    <i name="hartreedc">   -436.39639549 </i>
    <i name="XCdc">     68.00400259 </i>
    <i name="pawpsdc">   1526.79777696 </i>
    <i name="pawaedc">  -1526.41293937 </i>
    <i name="eentropy">     -0.00000000 </i>
    <i name="bandstr">    -27.81714221 </i>
    <i name="atom">   2053.64813947 </i>
    <i name="e_fr_energy">    -21.17116421 </i>
    <i name="e_wo_entrp">    -21.17116421 </i>
    <i name="e_0_energy">    -21.17116421 </i>
   </energy>
  </scstep>
  <structure>
   <crystal>
    <varray name="basis" >
     <v>      -2.61340383       0.00000002      -1.50276497 </v>
     <v>       0.92406351       2.65616370       1.41681519 </v>
     <v>       2.71504172       0.10970809      -4.72163244 </v>
    </varray>
    <i name="volume">     43.86702177 </i>
    <varray name="rec_basis" >
     <v>      -0.28943986       0.18715199      -0.16208572 </v>
     <v>      -0.00375830       0.37430400       0.00653593 </v>
     <v>       0.09099295       0.05275170      -0.15824253 </v>
    </varray>
   </crystal>
   <varray name="positions" >
    <v>       0.00000000       0.00000000       0.00000000 </v>
    <v>       0.50000000       0.00000000       0.50000000 </v>
    <v>       0.21276023       0.42552047       0.74458646 </v>
    <v>       0.78723977       0.57447953       0.25541354 </v>
   </varray>
  </structure>
  <varray name="forces" >
   <v>       0.00000000      -0.00000000       0.00000000 </v>
   <v>       0.00000000       0.00000000       0.00000000 </v>
   <v>      -0.13043327      -1.83511117       0.22683195 </v>
   <v>       0.13043327       1.83511117      -0.22683195 </v>
  </varray>
  <varray name="stress" >
   <v>     -58.87158594      26.70367159     -41.64301819 </v>
   <v>      26.70367225      36.38308965     -46.43940696 </v>
   <v>     -41.64301819     -46.43940582     -10.39737608 </v>
  </varray>
  <energy>
   <i name="e_fr_energy">    -21.17116421 </i>
   <i name="e_wo_entrp">    -21.17116421 </i>
   <i name="e_0_energy">     -0.00000000 </i>
  </energy>
  <time name="totalsc">    3.60    3.60</time>
 </calculation>
 <calculation>
  <scstep>
   <time name="dav">    0.14    0.14</time>
   <time name="total">    0.24    0.24</time>
   <energy>
    <i name="alphaZ">    124.38465058 </i>
    <i name="ewald">  -1724.11841685 </i>
    <i name="hartreedc">   -439.24165282 </i>
    <i name="XCdc">     64.21636014 </i>
    <i name="pawpsdc">   1526.80930958 </i>
    <i name="pawaedc">  -1526.42390727 </i>
    <i name="eentropy">     -0.00000000 </i>
    <i name="bandstr">   -102.74474256 </i>
    <i name="atom">   2053.64813947 </i>
    <i name="e_fr_energy">    -23.47025972 </i>
    <i name="e_wo_entrp">    -23.47025972 </i>
    <i name="e_0_energy">    -23.47025972 </i>
   </energy>
  </scstep>
  <scstep>
   <time name="diag">    0.02    0.02</time>
   <time name="diis">    0.08    0.08</time>
   <time name="orth">    0.00    0.00</time>
   <time name="total">    0.21    0.21</time>
   <energy>
    <i name="e_fr_energy">    -22.92198199 </i>
    <i name="e_wo_entrp">    -22.92167982 </i>
    <i name="e_0_energy">    -22.92183091 </i>
   </energy>
  </scstep>
  <scstep>
   <time name="diag">    0.02    0.02</time>
   <time name="diis">    0.08    0.08</time>
   <time name="orth">    0.00    0.00</time>
   <time name="total">    0.20    0.20</time>
   <energy>
    <i name="e_fr_energy">    -22.28302580 </i>
    <i name="e_wo_entrp">    -22.28302580 </i>
    <i name="e_0_energy">    -22.28302580 </i>
   </energy>
  </scstep>
  <scstep>
   <time name="diag">    0.02    0.02</time>
   <time name="diis">    0.08    0.08</time>
   <time name="orth">    0.00    0.00</time>
   <time name="total">    0.20    0.20</time>
   <energy>
    <i name="e_fr_energy">    -22.19768405 </i>
    <i name="e_wo_entrp">    -22.19768405 </i>
    <i name="e_0_energy">    -22.19768405 </i>
   </energy>
  </scstep>
  <scstep>
   <time name="diag">    0.02    0.02</time>
   <time name="diis">    0.09    0.09</time>
   <time name="orth">    0.00    0.00</time>
   <time name="total">    0.21    0.22</time>
   <energy>
    <i name="e_fr_energy">    -22.10337403 </i>
    <i name="e_wo_entrp">    -22.10337403 </i>
    <i name="e_0_energy">    -22.10337403 </i>
   </energy>
  </scstep>
  <scstep>
   <time name="diag">    0.02    0.02</time>
   <time name="diis">    0.08    0.08</time>
   <time name="orth">    0.00    0.00</time>
   <time name="total">    0.20    0.20</time>
   <energy>
    <i name="e_fr_energy">    -22.10816277 </i>
    <i name="e_wo_entrp">    -22.10816277 </i>
    <i name="e_0_energy">    -22.10816277 </i>
   </energy>
  </scstep>
  <scstep>
   <time name="diag">    0.02    0.02</time>
   <time name="diis">    0.08    0.08</time>
   <time name="orth">    0.00    0.00</time>
   <time name="total">    0.20    0.20</time>
   <energy>
    <i name="e_fr_energy">    -22.12270591 </i>
    <i name="e_wo_entrp">    -22.12270591 </i>
    <i name="e_0_energy">    -22.12270591 </i>
   </energy>
  </scstep>
  <scstep>
   <time name="diag">    0.02    0.02</time>
   <time name="diis">    0.09    0.09</time>
   <time name="orth">    0.00    0.00</time>
   <time name="total">    0.21    0.21</time>
   <energy>
    <i name="e_fr_energy">    -22.13750064 </i>
    <i name="e_wo_entrp">    -22.13750064 </i>
    <i name="e_0_energy">    -22.13750064 </i>
   </energy>
  </scstep>
  <scstep>
   <time name="diag">    0.02    0.02</time>
   <time name="diis">    0.08    0.08</time>
   <time name="orth">    0.00    0.00</time>
   <time name="total">    0.20    0.20</time>
   <energy>
    <i name="e_fr_energy">    -22.16083498 </i>
    <i name="e_wo_entrp">    -22.16083498 </i>
    <i name="e_0_energy">    -22.16083498 </i>
   </energy>
  </scstep>
  <scstep>
   <time name="diag">    0.02    0.02</time>
   <time name="diis">    0.08    0.08</time>
   <time name="orth">    0.00    0.00</time>
   <time name="total">    0.20    0.20</time>
   <energy>
    <i name="e_fr_energy">    -22.17607092 </i>
    <i name="e_wo_entrp">    -22.17607092 </i>
    <i name="e_0_energy">    -22.17607092 </i>
   </energy>
  </scstep>
  <scstep>
   <time name="diag">    0.02    0.02</time>
   <time name="diis">    0.08    0.08</time>
   <time name="orth">    0.00    0.00</time>
   <time name="total">    0.20    0.20</time>
   <energy>
    <i name="e_fr_energy">    -22.19622920 </i>
    <i name="e_wo_entrp">    -22.19622920 </i>
    <i name="e_0_energy">    -22.19622920 </i>
   </energy>
  </scstep>
  <scstep>
   <time name="diag">    0.02    0.02</time>
   <time name="diis">    0.07    0.07</time>
   <time name="orth">    0.00    0.00</time>
   <time name="total">    0.19    0.19</time>
   <energy>
    <i name="e_fr_energy">    -22.20686309 </i>
    <i name="e_wo_entrp">    -22.20686309 </i>
    <i name="e_0_energy">    -22.20686309 </i>
   </energy>
  </scstep>
  <scstep>
   <time name="diag">    0.02    0.02</time>
   <time name="diis">    0.07    0.07</time>
   <time name="orth">    0.00    0.00</time>
   <time name="total">    0.20    0.20</time>
   <energy>
    <i name="e_fr_energy">    -22.22260836 </i>
    <i name="e_wo_entrp">    -22.22260836 </i>
    <i name="e_0_energy">    -22.22260836 </i>
   </energy>
  </scstep>
  <scstep>
   <time name="diag">    0.02    0.02</time>
   <time name="diis">    0.07    0.07</time>
   <time name="orth">    0.00    0.00</time>
   <time name="total">    0.19    0.19</time>
   <energy>
    <i name="e_fr_energy">    -22.20363732 </i>
    <i name="e_wo_entrp">    -22.20363732 </i>
    <i name="e_0_energy">    -22.20363732 </i>
   </energy>
  </scstep>
  <scstep>
   <time name="diag">    0.02    0.02</time>
   <time name="diis">    0.08    0.08</time>
   <time name="orth">    0.00    0.00</time>
   <time name="total">    0.20    0.20</time>
   <energy>
    <i name="e_fr_energy">    -22.21319314 </i>
    <i name="e_wo_entrp">    -22.21319314 </i>
    <i name="e_0_energy">    -22.21319314 </i>
   </energy>
  </scstep>
  <scstep>
   <time name="diag">    0.02    0.02</time>
   <time name="diis">    0.08    0.08</time>
   <time name="orth">    0.00    0.00</time>
   <time name="total">    0.20    0.20</time>
   <energy>
    <i name="e_fr_energy">    -22.12235108 </i>
    <i name="e_wo_entrp">    -22.12235108 </i>
    <i name="e_0_energy">    -22.12235108 </i>
   </energy>
  </scstep>
  <scstep>
   <time name="diag">    0.02    0.02</time>
   <time name="diis">    0.09    0.09</time>
   <time name="orth">    0.00    0.00</time>
   <time name="total">    0.21    0.21</time>
   <energy>
    <i name="e_fr_energy">    -22.20385726 </i>
    <i name="e_wo_entrp">    -22.20385726 </i>
    <i name="e_0_energy">    -22.20385726 </i>
   </energy>
  </scstep>
  <scstep>
   <time name="diag">    0.02    0.02</time>
   <time name="diis">    0.08    0.08</time>
   <time name="orth">    0.00    0.00</time>
   <time name="total">    0.20    0.20</time>
   <energy>
    <i name="e_fr_energy">    -22.27482902 </i>
    <i name="e_wo_entrp">    -22.27482902 </i>
    <i name="e_0_energy">    -22.27482902 </i>
   </energy>
  </scstep>
  <scstep>
   <time name="diag">    0.02    0.02</time>
   <time name="diis">    0.08    0.08</time>
   <time name="orth">    0.00    0.00</time>
   <time name="total">    0.20    0.20</time>
   <energy>
    <i name="e_fr_energy">    -22.28855744 </i>
    <i name="e_wo_entrp">    -22.28855744 </i>
    <i name="e_0_energy">    -22.28855744 </i>
   </energy>
  </scstep>
  <scstep>
   <time name="diag">    0.02    0.02</time>
   <time name="diis">    0.07    0.07</time>
   <time name="orth">    0.00    0.00</time>
   <time name="total">    0.19    0.19</time>
   <energy>
    <i name="e_fr_energy">    -22.29027051 </i>
    <i name="e_wo_entrp">    -22.29027051 </i>
    <i name="e_0_energy">    -22.29027051 </i>
   </energy>
  </scstep>
  <scstep>
   <time name="diag">    0.02    0.02</time>
   <time name="diis">    0.06    0.06</time>
   <time name="orth">    0.00    0.00</time>
   <time name="total">    0.15    0.16</time>
   <energy>
    <i name="alphaZ">    124.38465058 </i>
    <i name="ewald">  -1724.11841685 </i>
    <i name="hartreedc">   -482.42047965 </i>
    <i name="XCdc">     67.48373637 </i>
    <i name="pawpsdc">   1512.28023092 </i>
    <i name="pawaedc">  -1512.78408980 </i>
    <i name="eentropy">     -0.00000000 </i>
    <i name="bandstr">    -60.76392686 </i>
    <i name="atom">   2053.64813947 </i>
    <i name="e_fr_energy">    -22.29015583 </i>
    <i name="e_wo_entrp">    -22.29015583 </i>
    <i name="e_0_energy">    -22.29015583 </i>
   </energy>
  </scstep>
  <structure>
   <crystal>
    <varray name="basis" >
     <v>      -2.47426632       0.00000006      -1.42275788 </v>
     <v>       0.90830004       2.93912881       1.28324077 </v>
     <v>       2.88081788       0.43883234      -5.00992776 </v>
    </varray>
    <i name="volume">     49.30598851 </i>
    <varray name="rec_basis" >
     <v>      -0.31006275       0.16726773      -0.16364145 </v>
     <v>      -0.01266280       0.33453547       0.02202143 </v>
     <v>       0.08481057       0.03818580      -0.14749096 </v>
    </varray>
   </crystal>
   <varray name="positions" >
    <v>       0.00000000      -0.00000000       0.00000000 </v>
    <v>       0.50000000      -0.00000000       0.50000000 </v>
    <v>       0.16908145       0.33816291       0.73406182 </v>
    <v>       0.83091855       0.66183709       0.26593818 </v>
   </varray>
  </structure>
  <varray name="forces" >
   <v>      -0.00000000       0.00000000      -0.00000000 </v>
   <v>      -0.00000000      -0.00000000      -0.00000000 </v>
   <v>      -0.34755851      -2.56179241       0.60442674 </v>
   <v>       0.34755851       2.56179241      -0.60442674 </v>
  </varray>
  <varray name="stress" >
   <v>     -40.27720742       8.43793230      43.46774633 </v>
   <v>       8.43793307     -52.87326439     -14.67410559 </v>
   <v>      43.46774633     -14.67410424     -90.87551952 </v>
  </varray>
  <energy>
   <i name="e_fr_energy">    -22.29015583 </i>
   <i name="e_wo_entrp">    -22.29015583 </i>
   <i name="e_0_energy">     -0.00000000 </i>
  </energy>
  <time name="totalsc">    4.92    4.92</time>
 </calculation>
 <calculation>
  <scstep>
   <time name="dav">    0.21    0.21</time>
   <time name="total">    0.31    0.31</time>
   <energy>
    <i name="alphaZ">    104.92369857 </i>
    <i name="ewald">  -1502.78690961 </i>
    <i name="hartreedc">   -566.64401234 </i>
    <i name="XCdc">     66.88264081 </i>
    <i name="pawpsdc">   1512.46445932 </i>
    <i name="pawaedc">  -1512.99103266 </i>
    <i name="eentropy">     -0.00000000 </i>
    <i name="bandstr">   -179.92309377 </i>
    <i name="atom">   2053.64813947 </i>
    <i name="e_fr_energy">    -24.42611019 </i>
    <i name="e_wo_entrp">    -24.42611019 </i>
    <i name="e_0_energy">    -24.42611019 </i>
   </energy>
  </scstep>
  <scstep>
   <time name="diag">    0.02    0.02</time>
   <time name="diis">    0.09    0.09</time>
   <time name="orth">    0.00    0.00</time>
   <time name="total">    0.20    0.21</time>
   <energy>
    <i name="e_fr_energy">    -88.65496890 </i>
    <i name="e_wo_entrp">    -88.65486641 </i>
    <i name="e_0_energy">    -88.65491766 </i>
   </energy>
  </scstep>
  <scstep>
   <time name="diag">    0.02    0.02</time>
   <time name="diis">    0.08    0.09</time>
   <time name="orth">    0.00    0.00</time>
   <time name="total">    0.20    0.20</time>
   <energy>
    <i name="e_fr_energy">    -55.50107690 </i>
    <i name="e_wo_entrp">    -55.50107690 </i>
    <i name="e_0_energy">    -55.50107690 </i>
   </energy>
  </scstep>
  <scstep>
   <time name="diag">    0.02    0.02</time>
   <time name="diis">    0.07    0.07</time>
   <time name="orth">    0.00    0.00</time>
   <time name="total">    0.19    0.19</time>
   <energy>
    <i name="e_fr_energy">    -22.50600983 </i>
    <i name="e_wo_entrp">    -22.50599665 </i>
    <i name="e_0_energy">    -22.50600324 </i>
   </energy>
  </scstep>
  <scstep>
   <time name="diag">    0.02    0.02</time>
   <time name="diis">    0.07    0.07</time>
   <time name="orth">    0.00    0.00</time>
   <time name="total">    0.19    0.19</time>
   <energy>
    <i name="e_fr_energy">    -20.26383513 </i>
    <i name="e_wo_entrp">    -20.23936661 </i>
    <i name="e_0_energy">    -20.25160087 </i>
   </energy>
  </scstep>
  <scstep>
   <time name="diag">    0.02    0.02</time>
   <time name="diis">    0.07    0.07</time>
   <time name="orth">    0.00    0.00</time>
   <time name="total">    0.19    0.19</time>
   <energy>
    <i name="e_fr_energy">    -22.16798116 </i>
    <i name="e_wo_entrp">    -22.16798116 </i>
    <i name="e_0_energy">    -22.16798116 </i>
   </energy>
  </scstep>
  <scstep>
   <time name="diag">    0.02    0.02</time>
   <time name="diis">    0.08    0.08</time>
   <time name="orth">    0.00    0.00</time>
   <time name="total">    0.20    0.20</time>
   <energy>
    <i name="e_fr_energy">    -22.92817447 </i>
    <i name="e_wo_entrp">    -22.92817447 </i>
    <i name="e_0_energy">    -22.92817447 </i>
   </energy>
  </scstep>
  <scstep>
   <time name="diag">    0.02    0.02</time>
   <time name="diis">    0.07    0.07</time>
   <time name="orth">    0.00    0.00</time>
   <time name="total">    0.19    0.19</time>
   <energy>
    <i name="e_fr_energy">    -21.71558551 </i>
    <i name="e_wo_entrp">    -21.69918107 </i>
    <i name="e_0_energy">    -21.70738329 </i>
   </energy>
  </scstep>
  <scstep>
   <time name="diag">    0.02    0.02</time>
   <time name="diis">    0.07    0.07</time>
   <time name="orth">    0.00    0.00</time>
   <time name="total">    0.19    0.19</time>
   <energy>
    <i name="e_fr_energy">    -22.80210578 </i>
    <i name="e_wo_entrp">    -22.80210555 </i>
    <i name="e_0_energy">    -22.80210566 </i>
   </energy>
  </scstep>
  <scstep>
   <time name="diag">    0.02    0.02</time>
   <time name="diis">    0.08    0.08</time>
   <time name="orth">    0.00    0.00</time>
   <time name="total">    0.20    0.20</time>
   <energy>
    <i name="e_fr_energy">    -22.79848451 </i>
    <i name="e_wo_entrp">    -22.79848451 </i>
    <i name="e_0_energy">    -22.79848451 </i>
   </energy>
  </scstep>
  <scstep>
   <time name="diag">    0.02    0.02</time>
   <time name="diis">    0.07    0.07</time>
   <time name="orth">    0.00    0.00</time>
   <time name="total">    0.19    0.19</time>
   <energy>
    <i name="e_fr_energy">    -22.83900293 </i>
    <i name="e_wo_entrp">    -22.83900293 </i>
    <i name="e_0_energy">    -22.83900293 </i>
   </energy>
  </scstep>
  <scstep>
   <time name="diag">    0.02    0.02</time>
   <time name="diis">    0.08    0.08</time>
   <time name="orth">    0.00    0.00</time>
   <time name="total">    0.20    0.20</time>
   <energy>
    <i name="e_fr_energy">    -22.86397910 </i>
    <i name="e_wo_entrp">    -22.86397910 </i>
    <i name="e_0_energy">    -22.86397910 </i>
   </energy>
  </scstep>
  <scstep>
   <time name="diag">    0.02    0.02</time>
   <time name="diis">    0.09    0.09</time>
   <time name="orth">    0.00    0.00</time>
   <time name="total">    0.21    0.21</time>
   <energy>
    <i name="e_fr_energy">    -22.82842089 </i>
    <i name="e_wo_entrp">    -22.82842089 </i>
    <i name="e_0_energy">    -22.82842089 </i>
   </energy>
  </scstep>
  <scstep>
   <time name="diag">    0.02    0.02</time>
   <time name="diis">    0.08    0.08</time>
   <time name="orth">    0.00    0.00</time>
   <time name="total">    0.20    0.20</time>
   <energy>
    <i name="e_fr_energy">    -22.80637860 </i>
    <i name="e_wo_entrp">    -22.80637860 </i>
    <i name="e_0_energy">    -22.80637860 </i>
   </energy>
  </scstep>
  <scstep>
   <time name="diag">    0.02    0.02</time>
   <time name="diis">    0.07    0.07</time>
   <time name="orth">    0.00    0.00</time>
   <time name="total">    0.19    0.19</time>
   <energy>
    <i name="e_fr_energy">    -22.78747565 </i>
    <i name="e_wo_entrp">    -22.78727112 </i>
    <i name="e_0_energy">    -22.78737338 </i>
   </energy>
  </scstep>
  <scstep>
   <time name="diag">    0.02    0.02</time>
   <time name="diis">    0.08    0.08</time>
   <time name="orth">    0.00    0.00</time>
   <time name="total">    0.20    0.20</time>
   <energy>
    <i name="e_fr_energy">    -22.79178434 </i>
    <i name="e_wo_entrp">    -22.79149942 </i>
    <i name="e_0_energy">    -22.79164188 </i>
   </energy>
  </scstep>
  <scstep>
   <time name="diag">    0.02    0.02</time>
   <time name="diis">    0.07    0.07</time>
   <time name="orth">    0.00    0.00</time>
   <time name="total">    0.19    0.19</time>
   <energy>
    <i name="e_fr_energy">    -22.79162775 </i>
    <i name="e_wo_entrp">    -22.78995484 </i>
    <i name="e_0_energy">    -22.79079129 </i>
   </energy>
  </scstep>
  <scstep>
   <time name="diag">    0.02    0.02</time>
   <time name="diis">    0.06    0.06</time>
   <time name="orth">    0.00    0.00</time>
   <time name="total">    0.18    0.18</time>
   <energy>
    <i name="e_fr_energy">    -22.79212507 </i>
    <i name="e_wo_entrp">    -22.78945628 </i>
    <i name="e_0_energy">    -22.79079068 </i>
   </energy>
  </scstep>
  <scstep>
   <time name="diag">    0.02    0.02</time>
   <time name="diis">    0.05    0.05</time>
   <time name="orth">    0.00    0.00</time>
   <time name="total">    0.17    0.18</time>
   <energy>
    <i name="e_fr_energy">    -22.79246990 </i>
    <i name="e_wo_entrp">    -22.78864049 </i>
    <i name="e_0_energy">    -22.79055520 </i>
   </energy>
  </scstep>
  <scstep>
   <time name="diag">    0.02    0.02</time>
   <time name="diis">    0.06    0.06</time>
   <time name="orth">    0.00    0.00</time>
   <time name="total">    0.16    0.16</time>
   <energy>
    <i name="alphaZ">    104.92369857 </i>
    <i name="ewald">  -1502.78690961 </i>
    <i name="hartreedc">   -625.21425928 </i>
    <i name="XCdc">     63.65617056 </i>
    <i name="pawpsdc">   1553.66932140 </i>
    <i name="pawaedc">  -1552.17877029 </i>
    <i name="eentropy">     -0.00419993 </i>
    <i name="bandstr">   -118.50568814 </i>
    <i name="atom">   2053.64813947 </i>
    <i name="e_fr_energy">    -22.79249725 </i>
    <i name="e_wo_entrp">    -22.78829732 </i>
    <i name="e_0_energy">    -22.79039729 </i>
   </energy>
  </scstep>
  <structure>
   <crystal>
    <varray name="basis" >
     <v>      -2.19599131       0.00000016      -1.26274370 </v>
     <v>       0.87677310       3.50505902       1.01609192 </v>
     <v>       3.21237019       1.09708085      -5.58651840 </v>
    </varray>
    <i name="volume">     58.45112434 </i>
    <varray name="rec_basis" >
     <v>      -0.35407038       0.13964098      -0.17617550 </v>
     <v>      -0.02370067       0.27928199       0.04121701 </v>
     <v>       0.07572124       0.01923298      -0.13168402 </v>
    </varray>
   </crystal>
   <varray name="positions" >
    <v>       0.00000000      -0.00000000       0.00000000 </v>
    <v>       0.50000000      -0.00000000       0.50000000 </v>
    <v>       0.09082369       0.18164738       0.71956440 </v>
    <v>       0.90917631       0.81835262       0.28043560 </v>
   </varray>
  </structure>
  <varray name="forces" >
   <v>       0.00000000      -0.00000000       0.00000000 </v>
   <v>       0.00000000      -0.00000000       0.00000000 </v>
   <v>      -0.25755394      -1.80409065       0.44790295 </v>
   <v>       0.25755394       1.80409065      -0.44790295 </v>
  </varray>
  <varray name="stress" >
   <v>    -440.56660301    -126.60659948    -104.47674196 </v>
   <v>    -126.60659926    -403.60634406     220.17710261 </v>
   <v>    -104.47674196     220.17710300    -318.95152613 </v>
  </varray>
  <energy>
   <i name="e_fr_energy">    -22.79249725 </i>
   <i name="e_wo_entrp">    -22.79039729 </i>
   <i name="e_0_energy">     -0.00419993 </i>
  </energy>
  <time name="totalsc">    4.61    4.61</time>
 </calculation>
 <calculation>
  <scstep>
   <time name="dav">    0.14    0.14</time>
   <time name="total">    0.24    0.24</time>
   <energy>
    <i name="alphaZ">    117.02310230 </i>
    <i name="ewald">  -1649.61726883 </i>
    <i name="hartreedc">   -565.78665945 </i>
    <i name="XCdc">     67.01020882 </i>
    <i name="pawpsdc">   1553.63520160 </i>
    <i name="pawaedc">  -1552.14447641 </i>
    <i name="eentropy">     -0.00000000 </i>
    <i name="bandstr">    -46.73459384 </i>
    <i name="atom">   2053.64813947 </i>
    <i name="e_fr_energy">    -22.96634634 </i>
    <i name="e_wo_entrp">    -22.96634634 </i>
    <i name="e_0_energy">    -22.96634634 </i>
   </energy>
  </scstep>
  <scstep>
   <time name="diag">    0.02    0.02</time>
   <time name="diis">    0.08    0.08</time>
   <time name="orth">    0.00    0.00</time>
   <time name="total">    0.20    0.20</time>
   <energy>
    <i name="e_fr_energy">    -22.79325891 </i>
    <i name="e_wo_entrp">    -22.78908305 </i>
    <i name="e_0_energy">    -22.79117098 </i>
   </energy>
  </scstep>
  <scstep>
   <time name="diag">    0.02    0.02</time>
   <time name="diis">    0.08    0.08</time>
   <time name="orth">    0.00    0.00</time>
   <time name="total">    0.20    0.20</time>
   <energy>
    <i name="e_fr_energy">    -23.74771737 </i>
    <i name="e_wo_entrp">    -23.74771737 </i>
    <i name="e_0_energy">    -23.74771737 </i>
   </energy>
  </scstep>
  <scstep>
   <time name="diag">    0.02    0.02</time>
   <time name="diis">    0.09    0.09</time>
   <time name="orth">    0.00    0.00</time>
   <time name="total">    0.21    0.21</time>
   <energy>
    <i name="e_fr_energy">    -22.74670416 </i>
    <i name="e_wo_entrp">    -22.74670416 </i>
    <i name="e_0_energy">    -22.74670416 </i>
   </energy>
  </scstep>
  <scstep>
   <time name="diag">    0.02    0.02</time>
   <time name="diis">    0.08    0.08</time>
   <time name="orth">    0.00    0.00</time>
   <time name="total">    0.20    0.20</time>
   <energy>
    <i name="e_fr_energy">    -22.71476564 </i>
    <i name="e_wo_entrp">    -22.71476564 </i>
    <i name="e_0_energy">    -22.71476564 </i>
   </energy>
  </scstep>
  <scstep>
   <time name="diag">    0.02    0.02</time>
   <time name="diis">    0.08    0.08</time>
   <time name="orth">    0.00    0.00</time>
   <time name="total">    0.20    0.20</time>
   <energy>
    <i name="e_fr_energy">    -22.74276220 </i>
    <i name="e_wo_entrp">    -22.74276220 </i>
    <i name="e_0_energy">    -22.74276220 </i>
   </energy>
  </scstep>
  <scstep>
   <time name="diag">    0.02    0.02</time>
   <time name="diis">    0.09    0.09</time>
   <time name="orth">    0.00    0.00</time>
   <time name="total">    0.21    0.21</time>
   <energy>
    <i name="e_fr_energy">    -22.75295123 </i>
    <i name="e_wo_entrp">    -22.75295123 </i>
    <i name="e_0_energy">    -22.75295123 </i>
   </energy>
  </scstep>
  <scstep>
   <time name="diag">    0.02    0.02</time>
   <time name="diis">    0.08    0.08</time>
   <time name="orth">    0.00    0.00</time>
   <time name="total">    0.20    0.20</time>
   <energy>
    <i name="e_fr_energy">    -22.75733837 </i>
    <i name="e_wo_entrp">    -22.75733837 </i>
    <i name="e_0_energy">    -22.75733837 </i>
   </energy>
  </scstep>
  <scstep>
   <time name="diag">    0.02    0.02</time>
   <time name="diis">    0.07    0.07</time>
   <time name="orth">    0.00    0.00</time>
   <time name="total">    0.19    0.19</time>
   <energy>
    <i name="e_fr_energy">    -22.75831153 </i>
    <i name="e_wo_entrp">    -22.75831153 </i>
    <i name="e_0_energy">    -22.75831153 </i>
   </energy>
  </scstep>
  <scstep>
   <time name="diag">    0.02    0.02</time>
   <time name="diis">    0.07    0.07</time>
   <time name="orth">    0.00    0.00</time>
   <time name="total">    0.19    0.19</time>
   <energy>
    <i name="e_fr_energy">    -22.75896426 </i>
    <i name="e_wo_entrp">    -22.75896426 </i>
    <i name="e_0_energy">    -22.75896426 </i>
   </energy>
  </scstep>
  <scstep>
   <time name="diag">    0.02    0.02</time>
   <time name="diis">    0.05    0.05</time>
   <time name="orth">    0.00    0.00</time>
   <time name="total">    0.15    0.15</time>
   <energy>
    <i name="alphaZ">    117.02310230 </i>
    <i name="ewald">  -1649.61726883 </i>
    <i name="hartreedc">   -533.51610664 </i>
    <i name="XCdc">     64.34691760 </i>
    <i name="pawpsdc">   1533.71571866 </i>
    <i name="pawaedc">  -1533.13577899 </i>
    <i name="eentropy">     -0.00000000 </i>
    <i name="bandstr">    -75.22377323 </i>
    <i name="atom">   2053.64813947 </i>
    <i name="e_fr_energy">    -22.75904966 </i>
    <i name="e_wo_entrp">    -22.75904966 </i>
    <i name="e_0_energy">    -22.75904966 </i>
   </energy>
  </scstep>
  <structure>
   <crystal>
    <varray name="basis" >
     <v>      -2.38781133       0.00000009      -1.37304438 </v>
     <v>       0.89850519       3.11495305       1.20024247 </v>
     <v>       2.98382516       0.64333820      -5.18906400 </v>
    </varray>
    <i name="volume">     52.40767021 </i>
    <varray name="rec_basis" >
     <v>      -0.32315599       0.15729977      -0.16631979 </v>
     <v>      -0.01685500       0.31459956       0.02931194 </v>
     <v>       0.08160960       0.03114554      -0.14192427 </v>
    </varray>
   </crystal>
   <varray name="positions" >
    <v>       0.00000000       0.00000000       0.00000000 </v>
    <v>       0.50000000       0.00000000       0.50000000 </v>
    <v>       0.13603515       0.27207031       0.72370934 </v>
    <v>       0.86396485       0.72792969       0.27629066 </v>
   </varray>
  </structure>
  <varray name="forces" >
   <v>       0.00000000      -0.00000000       0.00000000 </v>
   <v>       0.00000000       0.00000000       0.00000000 </v>
   <v>      -0.58569742      -3.52202833       1.01856568 </v>
   <v>       0.58569742       3.52202833      -1.01856568 </v>
  </varray>
  <varray name="stress" >
   <v>    -314.04314186     -90.42711557     -37.15745800 </v>
   <v>     -90.42711594    -159.18494646     157.25860463 </v>
   <v>     -37.15745800     157.25860399    -270.79046051 </v>
  </varray>
  <energy>
   <i name="e_fr_energy">    -22.75904966 </i>
   <i name="e_wo_entrp">    -22.75904966 </i>
   <i name="e_0_energy">     -0.00000000 </i>
  </energy>
  <time name="totalsc">    2.85    2.85</time>
 </calculation>
 <calculation>
  <scstep>
   <time name="dav">    0.15    0.15</time>
   <time name="total">    0.25    0.25</time>
   <energy>
    <i name="alphaZ">    116.73508918 </i>
    <i name="ewald">  -1643.18060136 </i>
    <i name="hartreedc">   -537.06848525 </i>
    <i name="XCdc">     64.28599200 </i>
    <i name="pawpsdc">   1533.77098345 </i>
    <i name="pawaedc">  -1533.17444164 </i>
    <i name="eentropy">     -0.00000000 </i>
    <i name="bandstr">    -77.90120267 </i>
    <i name="atom">   2053.64813947 </i>
    <i name="e_fr_energy">    -22.88452682 </i>
    <i name="e_wo_entrp">    -22.88452682 </i>
    <i name="e_0_energy">    -22.88452682 </i>
   </energy>
  </scstep>
  <scstep>
   <time name="diag">    0.02    0.02</time>
   <time name="diis">    0.08    0.08</time>
   <time name="orth">    0.00    0.00</time>
   <time name="total">    0.20    0.20</time>
   <energy>
    <i name="e_fr_energy">    -22.88681686 </i>
    <i name="e_wo_entrp">    -22.88681686 </i>
    <i name="e_0_energy">    -22.88681686 </i>
   </energy>
  </scstep>
  <scstep>
   <time name="diag">    0.02    0.02</time>
   <time name="diis">    0.08    0.08</time>
   <time name="orth">    0.00    0.00</time>
   <time name="total">    0.20    0.20</time>
   <energy>
    <i name="e_fr_energy">    -22.88633993 </i>
    <i name="e_wo_entrp">    -22.88633993 </i>
    <i name="e_0_energy">    -22.88633993 </i>
   </energy>
  </scstep>
  <scstep>
   <time name="diag">    0.02    0.02</time>
   <time name="diis">    0.08    0.08</time>
   <time name="orth">    0.00    0.00</time>
   <time name="total">    0.20    0.20</time>
   <energy>
    <i name="e_fr_energy">    -22.88318676 </i>
    <i name="e_wo_entrp">    -22.88318676 </i>
    <i name="e_0_energy">    -22.88318676 </i>
   </energy>
  </scstep>
  <scstep>
   <time name="diag">    0.02    0.02</time>
   <time name="diis">    0.07    0.07</time>
   <time name="orth">    0.00    0.00</time>
   <time name="total">    0.19    0.19</time>
   <energy>
    <i name="e_fr_energy">    -22.88309753 </i>
    <i name="e_wo_entrp">    -22.88309753 </i>
    <i name="e_0_energy">    -22.88309753 </i>
   </energy>
  </scstep>
  <scstep>
   <time name="diag">    0.02    0.02</time>
   <time name="diis">    0.05    0.05</time>
   <time name="orth">    0.00    0.00</time>
   <time name="total">    0.15    0.15</time>
   <energy>
    <i name="alphaZ">    116.73508918 </i>
    <i name="ewald">  -1643.18060136 </i>
    <i name="hartreedc">   -538.38995903 </i>
    <i name="XCdc">     64.34779176 </i>
    <i name="pawpsdc">   1536.17790098 </i>
    <i name="pawaedc">  -1535.62572387 </i>
    <i name="eentropy">     -0.00000000 </i>
    <i name="bandstr">    -76.59581966 </i>
    <i name="atom">   2053.64813947 </i>
    <i name="e_fr_energy">    -22.88318252 </i>
    <i name="e_wo_entrp">    -22.88318252 </i>
    <i name="e_0_energy">    -22.88318252 </i>
   </energy>
  </scstep>
  <structure>
   <crystal>
    <varray name="basis" >
     <v>      -2.37250602       0.00000010      -1.36424349 </v>
     <v>       0.89406018       3.13554946       1.19026373 </v>
     <v>       2.99013511       0.66236540      -5.20003739 </v>
    </varray>
    <i name="volume">     52.53697234 </i>
    <varray name="rec_basis" >
     <v>      -0.32535876       0.15623656      -0.16718744 </v>
     <v>      -0.01719983       0.31247313       0.02991162 </v>
     <v>       0.08142177       0.03053454      -0.14159762 </v>
    </varray>
   </crystal>
   <varray name="positions" >
    <v>       0.00000000       0.00000000       0.00000000 </v>
    <v>       0.50000000       0.00000000       0.50000000 </v>
    <v>       0.13304319       0.26608638       0.72300944 </v>
    <v>       0.86695681       0.73391362       0.27699056 </v>
   </varray>
  </structure>
  <varray name="forces" >
   <v>       0.00000000      -0.00000000       0.00000000 </v>
   <v>       0.00000000      -0.00000000      -0.00000000 </v>
   <v>      -0.60273741      -3.50151656       1.04819931 </v>
   <v>       0.60273741       3.50151656      -1.04819931 </v>
  </varray>
  <varray name="stress" >
   <v>    -315.19861089     -94.34657760     -33.47009951 </v>
   <v>     -94.34657732    -169.40516453     164.07480087 </v>
   <v>     -33.47009951     164.07480136    -276.23817127 </v>
  </varray>
  <energy>
   <i name="e_fr_energy">    -22.88318252 </i>
   <i name="e_wo_entrp">    -22.88318252 </i>
   <i name="e_0_energy">     -0.00000000 </i>
  </energy>
  <time name="totalsc">    1.85    1.86</time>
 </calculation>
 <calculation>
  <scstep>
   <time name="dav">    0.14    0.14</time>
   <time name="total">    0.24    0.24</time>
   <energy>
    <i name="alphaZ">    115.94863829 </i>
    <i name="ewald">  -1622.82158722 </i>
    <i name="hartreedc">   -549.97066896 </i>
    <i name="XCdc">     64.19528764 </i>
    <i name="pawpsdc">   1536.14899684 </i>
    <i name="pawaedc">  -1535.59833467 </i>
    <i name="eentropy">     -0.00000000 </i>
    <i name="bandstr">    -84.79121678 </i>
    <i name="atom">   2053.64813947 </i>
    <i name="e_fr_energy">    -23.24074540 </i>
    <i name="e_wo_entrp">    -23.24074540 </i>
    <i name="e_0_energy">    -23.24074540 </i>
   </energy>
  </scstep>
  <scstep>
   <time name="diag">    0.02    0.02</time>
   <time name="diis">    0.08    0.08</time>
   <time name="orth">    0.00    0.00</time>
   <time name="total">    0.19    0.20</time>
   <energy>
    <i name="e_fr_energy">    -23.26815478 </i>
    <i name="e_wo_entrp">    -23.26815478 </i>
    <i name="e_0_energy">    -23.26815478 </i>
   </energy>
  </scstep>
  <scstep>
   <time name="diag">    0.02    0.02</time>
   <time name="diis">    0.08    0.08</time>
   <time name="orth">    0.00    0.00</time>
   <time name="total">    0.20    0.20</time>
   <energy>
    <i name="e_fr_energy">    -23.26281319 </i>
    <i name="e_wo_entrp">    -23.26281319 </i>
    <i name="e_0_energy">    -23.26281319 </i>
   </energy>
  </scstep>
  <scstep>
   <time name="diag">    0.02    0.02</time>
   <time name="diis">    0.08    0.08</time>
   <time name="orth">    0.00    0.00</time>
   <time name="total">    0.20    0.20</time>
   <energy>
    <i name="e_fr_energy">    -23.23440217 </i>
    <i name="e_wo_entrp">    -23.23440217 </i>
    <i name="e_0_energy">    -23.23440217 </i>
   </energy>
  </scstep>
  <scstep>
   <time name="diag">    0.02    0.02</time>
   <time name="diis">    0.08    0.09</time>
   <time name="orth">    0.00    0.00</time>
   <time name="total">    0.20    0.20</time>
   <energy>
    <i name="e_fr_energy">    -23.23387918 </i>
    <i name="e_wo_entrp">    -23.23387918 </i>
    <i name="e_0_energy">    -23.23387918 </i>
   </energy>
  </scstep>
  <scstep>
   <time name="diag">    0.02    0.02</time>
   <time name="diis">    0.06    0.07</time>
   <time name="orth">    0.00    0.00</time>
   <time name="total">    0.18    0.18</time>
   <energy>
    <i name="e_fr_energy">    -23.23443591 </i>
    <i name="e_wo_entrp">    -23.23443591 </i>
    <i name="e_0_energy">    -23.23443591 </i>
   </energy>
  </scstep>
  <scstep>
   <time name="diag">    0.02    0.02</time>
   <time name="diis">    0.06    0.06</time>
   <time name="orth">    0.00    0.00</time>
   <time name="total">    0.15    0.15</time>
   <energy>
    <i name="alphaZ">    115.94863829 </i>
    <i name="ewald">  -1622.82158722 </i>
    <i name="hartreedc">   -553.88823578 </i>
    <i name="XCdc">     64.35388218 </i>
    <i name="pawpsdc">   1543.93947490 </i>
    <i name="pawaedc">  -1543.52879728 </i>
    <i name="eentropy">     -0.00000000 </i>
    <i name="bandstr">    -80.88611968 </i>
    <i name="atom">   2053.64813947 </i>
    <i name="e_fr_energy">    -23.23460513 </i>
    <i name="e_wo_entrp">    -23.23460513 </i>
    <i name="e_0_energy">    -23.23460513 </i>
   </energy>
  </scstep>
  <structure>
   <crystal>
    <varray name="basis" >
     <v>      -2.32659008       0.00000010      -1.33784081 </v>
     <v>       0.88072513       3.19733870       1.16032752 </v>
     <v>       3.00906494       0.71944700      -5.23295755 </v>
    </varray>
    <i name="volume">     52.89331762 </i>
    <varray name="rec_basis" >
     <v>      -0.33210872       0.15314407      -0.16991494 </v>
     <v>      -0.01819710       0.30628816       0.03164594 </v>
     <v>       0.08087090       0.02876236      -0.14063963 </v>
    </varray>
   </crystal>
   <varray name="positions" >
    <v>       0.00000000      -0.00000000       0.00000000 </v>
    <v>       0.50000000      -0.00000000       0.50000000 </v>
    <v>       0.12412885       0.24825770       0.72094546 </v>
    <v>       0.87587115       0.75174230       0.27905454 </v>
   </varray>
  </structure>
  <varray name="forces" >
   <v>       0.00000000       0.00000000       0.00000000 </v>
   <v>       0.00000000       0.00000000       0.00000000 </v>
   <v>      -0.66895069      -3.45901401       1.16334845 </v>
   <v>       0.66895069       3.45901401      -1.16334845 </v>
  </varray>
  <varray name="stress" >
   <v>    -313.25893053    -105.55744014     -20.83794088 </v>
   <v>    -105.55744030    -199.84422969     183.57121435 </v>
   <v>     -20.83794088     183.57121408    -289.00285616 </v>
  </varray>
  <energy>
   <i name="e_fr_energy">    -23.23460513 </i>
   <i name="e_wo_entrp">    -23.23460513 </i>
   <i name="e_0_energy">     -0.00000000 </i>
  </energy>
  <time name="totalsc">    2.03    2.04</time>
 </calculation>
 <calculation>
  <scstep>
   <time name="dav">    0.13    0.13</time>
   <time name="total">    0.23    0.23</time>
   <energy>
    <i name="alphaZ">    114.71385098 </i>
    <i name="ewald">  -1577.33293490 </i>
    <i name="hartreedc">   -581.92649472 </i>
    <i name="XCdc">     64.18432896 </i>
    <i name="pawpsdc">   1543.87266448 </i>
    <i name="pawaedc">  -1543.47361923 </i>
    <i name="eentropy">     -0.00000000 </i>
    <i name="bandstr">    -97.49782813 </i>
    <i name="atom">   2053.64813947 </i>
    <i name="e_fr_energy">    -23.81189310 </i>
    <i name="e_wo_entrp">    -23.81189310 </i>
    <i name="e_0_energy">    -23.81189310 </i>
   </energy>
  </scstep>
  <scstep>
   <time name="diag">    0.02    0.02</time>
   <time name="diis">    0.08    0.08</time>
   <time name="orth">    0.00    0.00</time>
   <time name="total">    0.20    0.20</time>
   <energy>
    <i name="e_fr_energy">    -24.01098248 </i>
    <i name="e_wo_entrp">    -24.01098248 </i>
    <i name="e_0_energy">    -24.01098248 </i>
   </energy>
  </scstep>
  <scstep>
   <time name="diag">    0.02    0.02</time>
   <time name="diis">    0.08    0.08</time>
   <time name="orth">    0.00    0.00</time>
   <time name="total">    0.19    0.20</time>
   <energy>
    <i name="e_fr_energy">    -23.97444466 </i>
    <i name="e_wo_entrp">    -23.97444466 </i>
    <i name="e_0_energy">    -23.97444466 </i>
   </energy>
  </scstep>
  <scstep>
   <time name="diag">    0.02    0.02</time>
   <time name="diis">    0.08    0.08</time>
   <time name="orth">    0.00    0.00</time>
   <time name="total">    0.20    0.20</time>
   <energy>
    <i name="e_fr_energy">    -23.86715647 </i>
    <i name="e_wo_entrp">    -23.86715647 </i>
    <i name="e_0_energy">    -23.86715647 </i>
   </energy>
  </scstep>
  <scstep>
   <time name="diag">    0.02    0.02</time>
   <time name="diis">    0.08    0.08</time>
   <time name="orth">    0.00    0.00</time>
   <time name="total">    0.19    0.19</time>
   <energy>
    <i name="e_fr_energy">    -23.86382153 </i>
    <i name="e_wo_entrp">    -23.86382153 </i>
    <i name="e_0_energy">    -23.86382153 </i>
   </energy>
  </scstep>
  <scstep>
   <time name="diag">    0.02    0.02</time>
   <time name="diis">    0.08    0.08</time>
   <time name="orth">    0.00    0.00</time>
   <time name="total">    0.20    0.20</time>
   <energy>
    <i name="e_fr_energy">    -23.86542599 </i>
    <i name="e_wo_entrp">    -23.86542599 </i>
    <i name="e_0_energy">    -23.86542599 </i>
   </energy>
  </scstep>
  <scstep>
   <time name="diag">    0.02    0.02</time>
   <time name="diis">    0.08    0.08</time>
   <time name="orth">    0.00    0.00</time>
   <time name="total">    0.19    0.20</time>
   <energy>
    <i name="e_fr_energy">    -23.86642410 </i>
    <i name="e_wo_entrp">    -23.86642410 </i>
    <i name="e_0_energy">    -23.86642410 </i>
   </energy>
  </scstep>
  <scstep>
   <time name="diag">    0.02    0.02</time>
   <time name="diis">    0.08    0.08</time>
   <time name="orth">    0.00    0.00</time>
   <time name="total">    0.19    0.19</time>
   <energy>
    <i name="e_fr_energy">    -23.86714179 </i>
    <i name="e_wo_entrp">    -23.86714179 </i>
    <i name="e_0_energy">    -23.86714179 </i>
   </energy>
  </scstep>
  <scstep>
   <time name="diag">    0.02    0.02</time>
   <time name="diis">    0.08    0.08</time>
   <time name="orth">    0.00    0.00</time>
   <time name="total">    0.19    0.19</time>
   <energy>
    <i name="e_fr_energy">    -23.86762333 </i>
    <i name="e_wo_entrp">    -23.86762333 </i>
    <i name="e_0_energy">    -23.86762333 </i>
   </energy>
  </scstep>
  <scstep>
   <time name="diag">    0.02    0.02</time>
   <time name="diis">    0.05    0.06</time>
   <time name="orth">    0.00    0.00</time>
   <time name="total">    0.15    0.15</time>
   <energy>
    <i name="alphaZ">    114.71385098 </i>
    <i name="ewald">  -1577.33293490 </i>
    <i name="hartreedc">   -589.14421732 </i>
    <i name="XCdc">     64.37176033 </i>
    <i name="pawpsdc">   1562.31630805 </i>
[...]
        <r>  0.3597  0.0001  0.0009  0.0003  0.0000  0.0000  0.0000  0.0000  0.0000 </r>
       </set>
       <set comment="band 2">
        <r>  0.0000  0.0003  0.0222  0.0074  0.0000  0.0000  0.0000  0.0000  0.0000 </r>
        <r>  0.0000  0.0027  0.0940  0.0311  0.0000  0.0000  0.0000  0.0000  0.0000 </r>
        <r>  0.3890  0.0000  0.0000  0.0000  0.0000  0.0000  0.0000  0.0000  0.0000 </r>
        <r>  0.3890  0.0000  0.0000  0.0000  0.0000  0.0000  0.0000  0.0000  0.0000 </r>
       </set>
       <set comment="band 3">
        <r>  0.0650  0.0000  0.0000  0.0000  0.0004  0.0012  0.0346  0.0432  0.0064 </r>
        <r>  0.1269  0.0000  0.0000  0.0000  0.0000  0.0001  0.0018  0.1734  0.1687 </r>
        <r>  0.0018  0.0032  0.1425  0.0471  0.0000  0.0000  0.0000  0.0000  0.0000 </r>
        <r>  0.0018  0.0032  0.1425  0.0471  0.0000  0.0000  0.0000  0.0000  0.0000 </r>
       </set>
       <set comment="band 4">
        <r>  0.0000  0.0000  0.0000  0.0000  0.0003  0.0001  0.0203  0.0091  0.0068 </r>
        <r>  0.0000  0.0000  0.0000  0.0000  0.0084  0.0028  0.3322  0.1500  0.1107 </r>
        <r>  0.0000  0.0000  0.0501  0.1515  0.0000  0.0000  0.0000  0.0000  0.0000 </r>
        <r>  0.0000  0.0000  0.0501  0.1515  0.0000  0.0000  0.0000  0.0000  0.0000 </r>
       </set>
       <set comment="band 5">
        <r>  0.0006  0.0000  0.0000  0.0000  0.0456  0.1378  0.0003  0.0004  0.0028 </r>
        <r>  0.0004  0.0000  0.0000  0.0000  0.0771  0.2333  0.0047  0.0027  0.0035 </r>
        <r>  0.0000  0.1681  0.0026  0.0009  0.0000  0.0000  0.0000  0.0000  0.0000 </r>
        <r>  0.0000  0.1681  0.0026  0.0009  0.0000  0.0000  0.0000  0.0000  0.0000 </r>
       </set>
       <set comment="band 6">
        <r>  0.0726  0.0000  0.0000  0.0000  0.0005  0.0016  0.0674  0.5575  0.1761 </r>
        <r>  0.0004  0.0000  0.0000  0.0000  0.0001  0.0002  0.0237  0.0659  0.0010 </r>
        <r>  0.0001  0.0015  0.0026  0.0008  0.0000  0.0000  0.0000  0.0000  0.0000 </r>
        <r>  0.0001  0.0015  0.0026  0.0008  0.0000  0.0000  0.0000  0.0000  0.0000 </r>
       </set>
       <set comment="band 7">
        <r>  0.0279  0.0000  0.0000  0.0000  0.0007  0.0021  0.0000  0.0087  0.0133 </r>
        <r>  0.0318  0.0000  0.0000  0.0000  0.0119  0.0361  0.3126  0.1904  0.2121 </r>
        <r>  0.0005  0.0005  0.0027  0.0009  0.0000  0.0000  0.0000  0.0000  0.0000 </r>
        <r>  0.0005  0.0005  0.0027  0.0009  0.0000  0.0000  0.0000  0.0000  0.0000 </r>
       </set>
       <set comment="band 8">
        <r>  0.0000  0.0017  0.0900  0.0298  0.0000  0.0000  0.0000  0.0000  0.0000 </r>
        <r>  0.0000  0.0043  0.0828  0.0274  0.0000  0.0000  0.0000  0.0000  0.0000 </r>
        <r>  0.0025  0.0019  0.2573  0.0851  0.0000  0.0000  0.0000  0.0000  0.0000 </r>
        <r>  0.0025  0.0019  0.2573  0.0851  0.0000  0.0000  0.0000  0.0000  0.0000 </r>
       </set>
       <set comment="band 9">
        <r>  0.0183  0.0000  0.0000  0.0000  0.0074  0.0225  0.1122  0.0016  0.2855 </r>
        <r>  0.0356  0.0000  0.0000  0.0000  0.0039  0.0117  0.0004  0.1749  0.2042 </r>
        <r>  0.0001  0.0009  0.0146  0.0048  0.0000  0.0000  0.0000  0.0000  0.0000 </r>
        <r>  0.0001  0.0009  0.0146  0.0048  0.0000  0.0000  0.0000  0.0000  0.0000 </r>
       </set>
       <set comment="band 10">
        <r>  0.0000  0.0000  0.0000  0.0000  0.0001  0.0000  0.0000  0.0000  0.0000 </r>
        <r>  0.0000  0.0000  0.0000  0.0000  0.7213  0.2385  0.0103  0.0047  0.0034 </r>
        <r>  0.0000  0.0000  0.0000  0.0000  0.0000  0.0000  0.0000  0.0000  0.0000 </r>
        <r>  0.0000  0.0000  0.0000  0.0000  0.0000  0.0000  0.0000  0.0000  0.0000 </r>
       </set>
       <set comment="band 11">
        <r>  0.0000  0.0082  0.0002  0.0001  0.0000  0.0000  0.0000  0.0000  0.0000 </r>
        <r>  0.0000  0.0675  0.0026  0.0009  0.0000  0.0000  0.0000  0.0000  0.0000 </r>
        <r>  0.0000  0.3382  0.0014  0.0005  0.0000  0.0000  0.0000  0.0000  0.0000 </r>
        <r>  0.0000  0.3382  0.0014  0.0005  0.0000  0.0000  0.0000  0.0000  0.0000 </r>
       </set>
       <set comment="band 12">
        <r>  0.0051  0.0000  0.0000  0.0000  0.1678  0.5075  0.0004  0.0097  0.0084 </r>
        <r>  0.0046  0.0000  0.0000  0.0000  0.0418  0.1263  0.0124  0.0452  0.0030 </r>
        <r>  0.0000  0.0113  0.0010  0.0003  0.0000  0.0000  0.0000  0.0000  0.0000 </r>
        <r>  0.0000  0.0113  0.0010  0.0003  0.0000  0.0000  0.0000  0.0000  0.0000 </r>
       </set>
       <set comment="band 13">
        <r>  0.0000  0.0000  0.0000  0.0000  0.0276  0.0091  0.5026  0.2270  0.1675 </r>
        <r>  0.0000  0.0000  0.0000  0.0000  0.0005  0.0002  0.0265  0.0119  0.0088 </r>
        <r>  0.0000  0.0000  0.0003  0.0010  0.0000  0.0000  0.0000  0.0000  0.0000 </r>
        <r>  0.0000  0.0000  0.0003  0.0010  0.0000  0.0000  0.0000  0.0000  0.0000 </r>
       </set>
       <set comment="band 14">
        <r>  0.1482  0.0000  0.0000  0.0000  0.0020  0.0059  0.1156  0.0037  0.2696 </r>
        <r>  0.0252  0.0000  0.0000  0.0000  0.0006  0.0019  0.0000  0.0723  0.0925 </r>
        <r>  0.0005  0.0000  0.0088  0.0029  0.0000  0.0000  0.0000  0.0000  0.0000 </r>
        <r>  0.0005  0.0000  0.0088  0.0029  0.0000  0.0000  0.0000  0.0000  0.0000 </r>
       </set>
       <set comment="band 15">
        <r>  0.0000  0.0000  0.0000  0.0000  0.7077  0.2340  0.0204  0.0092  0.0068 </r>
        <r>  0.0000  0.0000  0.0000  0.0000  0.0001  0.0000  0.0003  0.0001  0.0001 </r>
        <r>  0.0000  0.0000  0.0000  0.0000  0.0000  0.0000  0.0000  0.0000  0.0000 </r>
        <r>  0.0000  0.0000  0.0000  0.0000  0.0000  0.0000  0.0000  0.0000  0.0000 </r>
       </set>
       <set comment="band 16">
        <r>  0.0000  0.0000  0.0008  0.0023  0.0000  0.0000  0.0000  0.0000  0.0000 </r>
        <r>  0.0000  0.0000  0.0208  0.0629  0.0000  0.0000  0.0000  0.0000  0.0000 </r>
        <r>  0.0000  0.0000  0.1039  0.3143  0.0000  0.0000  0.0000  0.0000  0.0000 </r>
        <r>  0.0000  0.0000  0.1039  0.3143  0.0000  0.0000  0.0000  0.0000  0.0000 </r>
       </set>
       <set comment="band 17">
        <r>  0.0007  0.0000  0.0000  0.0000  0.0155  0.0468  0.0002  0.0002  0.0001 </r>
        <r>  0.0000  0.0000  0.0000  0.0000  0.1125  0.3402  0.0124  0.0058  0.0108 </r>
        <r>  0.0000  0.1842  0.0024  0.0008  0.0000  0.0000  0.0000  0.0000  0.0000 </r>
        <r>  0.0000  0.1842  0.0024  0.0008  0.0000  0.0000  0.0000  0.0000  0.0000 </r>
       </set>
       <set comment="band 18">
        <r>  0.1198  0.0000  0.0000  0.0000  0.0023  0.0069  0.1120  0.1366  0.0224 </r>
        <r>  0.0560  0.0000  0.0000  0.0000  0.0016  0.0048  0.0391  0.0350  0.0155 </r>
        <r>  0.0568  0.0004  0.0309  0.0102  0.0000  0.0000  0.0000  0.0000  0.0000 </r>
        <r>  0.0568  0.0004  0.0309  0.0102  0.0000  0.0000  0.0000  0.0000  0.0000 </r>
       </set>
       <set comment="band 19">
        <r>  0.0000  0.0000  0.0000  0.0000  0.0001  0.0000  0.0128  0.0058  0.0043 </r>
        <r>  0.0000  0.0000  0.0000  0.0000  0.0073  0.0024  0.2735  0.1235  0.0912 </r>
        <r>  0.0000  0.0000  0.0563  0.1703  0.0000  0.0000  0.0000  0.0000  0.0000 </r>
        <r>  0.0000  0.0000  0.0563  0.1703  0.0000  0.0000  0.0000  0.0000  0.0000 </r>
       </set>
       <set comment="band 20">
        <r>  0.0000  0.0324  0.0267  0.0088  0.0000  0.0000  0.0000  0.0000  0.0000 </r>
        <r>  0.0000  0.0067  0.0122  0.0040  0.0000  0.0000  0.0000  0.0000  0.0000 </r>
        <r>  0.0491  0.0005  0.0163  0.0054  0.0000  0.0000  0.0000  0.0000  0.0000 </r>
        <r>  0.0491  0.0005  0.0163  0.0054  0.0000  0.0000  0.0000  0.0000  0.0000 </r>
       </set>
       <set comment="band 21">
        <r>  0.0354  0.0000  0.0000  0.0000  0.0010  0.0032  0.0231  0.0346  0.0022 </r>
        <r>  0.0151  0.0000  0.0000  0.0000  0.0045  0.0136  0.0635  0.0047  0.2665 </r>
        <r>  0.0198  0.0044  0.0739  0.0245  0.0000  0.0000  0.0000  0.0000  0.0000 </r>
        <r>  0.0198  0.0044  0.0739  0.0245  0.0000  0.0000  0.0000  0.0000  0.0000 </r>
       </set>
       <set comment="band 22">
        <r>  0.0000  0.3742  0.0344  0.0114  0.0000  0.0000  0.0000  0.0000  0.0000 </r>
        <r>  0.0000  0.0887  0.0056  0.0019  0.0000  0.0000  0.0000  0.0000  0.0000 </r>
        <r>  0.0035  0.0022  0.0054  0.0018  0.0000  0.0000  0.0000  0.0000  0.0000 </r>
        <r>  0.0035  0.0022  0.0054  0.0018  0.0000  0.0000  0.0000  0.0000  0.0000 </r>
       </set>
       <set comment="band 23">
        <r>  0.0000  0.0841  0.0940  0.0311  0.0000  0.0000  0.0000  0.0000  0.0000 </r>
        <r>  0.0000  0.0233  0.0077  0.0026  0.0000  0.0000  0.0000  0.0000  0.0000 </r>
        <r>  0.0023  0.0016  0.0367  0.0121  0.0000  0.0000  0.0000  0.0000  0.0000 </r>
        <r>  0.0023  0.0016  0.0367  0.0121  0.0000  0.0000  0.0000  0.0000  0.0000 </r>
       </set>
       <set comment="band 24">
        <r>  0.1285  0.0000  0.0000  0.0000  0.0005  0.0015  0.0131  0.0214  0.1358 </r>
        <r>  0.0686  0.0000  0.0000  0.0000  0.0023  0.0069  0.0255  0.0555  0.0000 </r>
        <r>  0.0001  0.0014  0.0082  0.0027  0.0000  0.0000  0.0000  0.0000  0.0000 </r>
        <r>  0.0001  0.0014  0.0082  0.0027  0.0000  0.0000  0.0000  0.0000  0.0000 </r>
       </set>
      </set>
     </set>
     <set comment="spin2">
      <set comment="kpoint 1">
       <set comment="band 1">
        <r>  0.0161  0.0000  0.0000  0.0000  0.0001  0.0004  0.0061  0.0084  0.0008 </r>
        <r>  0.1582  0.0000  0.0000  0.0000  0.0009  0.0027  0.0147  0.0000  0.0453 </r>
        <r>  0.3647  0.0001  0.0008  0.0003  0.0000  0.0000  0.0000  0.0000  0.0000 </r>
        <r>  0.3647  0.0001  0.0008  0.0003  0.0000  0.0000  0.0000  0.0000  0.0000 </r>
       </set>
       <set comment="band 2">
        <r>  0.0000  0.0003  0.0207  0.0068  0.0000  0.0000  0.0000  0.0000  0.0000 </r>
        <r>  0.0000  0.0026  0.0918  0.0304  0.0000  0.0000  0.0000  0.0000  0.0000 </r>
        <r>  0.3914  0.0000  0.0000  0.0000  0.0000  0.0000  0.0000  0.0000  0.0000 </r>
        <r>  0.3914  0.0000  0.0000  0.0000  0.0000  0.0000  0.0000  0.0000  0.0000 </r>
       </set>
       <set comment="band 3">
        <r>  0.0678  0.0000  0.0000  0.0000  0.0003  0.0010  0.0218  0.0277  0.0038 </r>
        <r>  0.1349  0.0000  0.0000  0.0000  0.0000  0.0001  0.0019  0.1694  0.1631 </r>
        <r>  0.0020  0.0036  0.1539  0.0509  0.0000  0.0000  0.0000  0.0000  0.0000 </r>
        <r>  0.0020  0.0036  0.1539  0.0509  0.0000  0.0000  0.0000  0.0000  0.0000 </r>
       </set>
       <set comment="band 4">
        <r>  0.0000  0.0000  0.0000  0.0000  0.0000  0.0000  0.0029  0.0013  0.0010 </r>
        <r>  0.0000  0.0000  0.0000  0.0000  0.0079  0.0026  0.2989  0.1350  0.0996 </r>
        <r>  0.0000  0.0000  0.0618  0.1870  0.0000  0.0000  0.0000  0.0000  0.0000 </r>
        <r>  0.0000  0.0000  0.0618  0.1870  0.0000  0.0000  0.0000  0.0000  0.0000 </r>
       </set>
       <set comment="band 5">
        <r>  0.0003  0.0000  0.0000  0.0000  0.0059  0.0180  0.0004  0.0003  0.0002 </r>
        <r>  0.0007  0.0000  0.0000  0.0000  0.0574  0.1736  0.0022  0.0018  0.0011 </r>
        <r>  0.0000  0.2673  0.0044  0.0014  0.0000  0.0000  0.0000  0.0000  0.0000 </r>
        <r>  0.0000  0.2673  0.0044  0.0014  0.0000  0.0000  0.0000  0.0000  0.0000 </r>
       </set>
       <set comment="band 6">
        <r>  0.0000  0.0017  0.0809  0.0268  0.0000  0.0000  0.0000  0.0000  0.0000 </r>
        <r>  0.0000  0.0056  0.0810  0.0268  0.0000  0.0000  0.0000  0.0000  0.0000 </r>
        <r>  0.0023  0.0004  0.2644  0.0874  0.0000  0.0000  0.0000  0.0000  0.0000 </r>
        <r>  0.0023  0.0004  0.2644  0.0874  0.0000  0.0000  0.0000  0.0000  0.0000 </r>
       </set>
       <set comment="band 7">
        <r>  0.0000  0.0066  0.0007  0.0002  0.0000  0.0000  0.0000  0.0000  0.0000 </r>
        <r>  0.0000  0.0598  0.0037  0.0012  0.0000  0.0000  0.0000  0.0000  0.0000 </r>
        <r>  0.0000  0.3462  0.0003  0.0001  0.0000  0.0000  0.0000  0.0000  0.0000 </r>
        <r>  0.0000  0.3462  0.0003  0.0001  0.0000  0.0000  0.0000  0.0000  0.0000 </r>
       </set>
       <set comment="band 8">
        <r>  0.0234  0.0000  0.0000  0.0000  0.0001  0.0002  0.0003  0.0016  0.0003 </r>
        <r>  0.0391  0.0000  0.0000  0.0000  0.0097  0.0294  0.3068  0.1723  0.2267 </r>
        <r>  0.0011  0.0021  0.0022  0.0007  0.0000  0.0000  0.0000  0.0000  0.0000 </r>
        <r>  0.0011  0.0021  0.0022  0.0007  0.0000  0.0000  0.0000  0.0000  0.0000 </r>
       </set>
       <set comment="band 9">
        <r>  0.1234  0.0000  0.0000  0.0000  0.0000  0.0001  0.0393  0.5223  0.2479 </r>
        <r>  0.0006  0.0000  0.0000  0.0000  0.0001  0.0002  0.0102  0.0175  0.0005 </r>
        <r>  0.0013  0.0007  0.0036  0.0012  0.0000  0.0000  0.0000  0.0000  0.0000 </r>
        <r>  0.0013  0.0007  0.0036  0.0012  0.0000  0.0000  0.0000  0.0000  0.0000 </r>
       </set>
       <set comment="band 10">
        <r>  0.0675  0.0000  0.0000  0.0000  0.0004  0.0011  0.0160  0.0045  0.0199 </r>
        <r>  0.0595  0.0000  0.0000  0.0000  0.0001  0.0004  0.0129  0.3677  0.2592 </r>
        <r>  0.0000  0.0000  0.0291  0.0096  0.0000  0.0000  0.0000  0.0000  0.0000 </r>
        <r>  0.0000  0.0000  0.0291  0.0096  0.0000  0.0000  0.0000  0.0000  0.0000 </r>
       </set>
       <set comment="band 11">
        <r>  0.0000  0.0000  0.0007  0.0020  0.0000  0.0000  0.0000  0.0000  0.0000 </r>
        <r>  0.0000  0.0000  0.0201  0.0607  0.0000  0.0000  0.0000  0.0000  0.0000 </r>
        <r>  0.0000  0.0000  0.1044  0.3157  0.0000  0.0000  0.0000  0.0000  0.0000 </r>
        <r>  0.0000  0.0000  0.1044  0.3157  0.0000  0.0000  0.0000  0.0000  0.0000 </r>
       </set>
       <set comment="band 12">
        <r>  0.0845  0.0000  0.0000  0.0000  0.0095  0.0288  0.1474  0.0003  0.4273 </r>
        <r>  0.0001  0.0000  0.0000  0.0000  0.0006  0.0017  0.0088  0.0018  0.0127 </r>
        <r>  0.0025  0.0020  0.0011  0.0004  0.0000  0.0000  0.0000  0.0000  0.0000 </r>
        <r>  0.0025  0.0020  0.0011  0.0004  0.0000  0.0000  0.0000  0.0000  0.0000 </r>
       </set>
       <set comment="band 13">
        <r>  0.0015  0.0000  0.0000  0.0000  0.0295  0.0893  0.0043  0.0005  0.0077 </r>
        <r>  0.0000  0.0000  0.0000  0.0000  0.1581  0.4782  0.0176  0.0085  0.0151 </r>
        <r>  0.0002  0.0605  0.0004  0.0001  0.0000  0.0000  0.0000  0.0000  0.0000 </r>
        <r>  0.0002  0.0605  0.0004  0.0001  0.0000  0.0000  0.0000  0.0000  0.0000 </r>
       </set>
       <set comment="band 14">
        <r>  0.0000  0.0000  0.0000  0.0000  0.0001  0.0000  0.0000  0.0000  0.0000 </r>
        <r>  0.0000  0.0000  0.0000  0.0000  0.7109  0.2350  0.0106  0.0048  0.0035 </r>
        <r>  0.0000  0.0000  0.0000  0.0000  0.0000  0.0000  0.0000  0.0000  0.0000 </r>
        <r>  0.0000  0.0000  0.0000  0.0000  0.0000  0.0000  0.0000  0.0000  0.0000 </r>
       </set>
       <set comment="band 15">
        <r>  0.0320  0.0000  0.0000  0.0000  0.1228  0.3713  0.0339  0.0546  0.0025 </r>
        <r>  0.0193  0.0000  0.0000  0.0000  0.0060  0.0180  0.0330  0.0159  0.0282 </r>
        <r>  0.0264  0.0227  0.0102  0.0034  0.0000  0.0000  0.0000  0.0000  0.0000 </r>
        <r>  0.0264  0.0227  0.0102  0.0034  0.0000  0.0000  0.0000  0.0000  0.0000 </r>
       </set>
       <set comment="band 16">
        <r>  0.0000  0.0000  0.0000  0.0000  0.0028  0.0009  0.1903  0.0859  0.0634 </r>
        <r>  0.0000  0.0000  0.0000  0.0000  0.0058  0.0019  0.2188  0.0988  0.0730 </r>
        <r>  0.0000  0.0000  0.0249  0.0754  0.0000  0.0000  0.0000  0.0000  0.0000 </r>
        <r>  0.0000  0.0000  0.0249  0.0754  0.0000  0.0000  0.0000  0.0000  0.0000 </r>
       </set>
       <set comment="band 17">
        <r>  0.0347  0.0000  0.0000  0.0000  0.0634  0.1916  0.1564  0.1311  0.0699 </r>
        <r>  0.0286  0.0000  0.0000  0.0000  0.0138  0.0419  0.0157  0.0107  0.0092 </r>
        <r>  0.0290  0.0196  0.0060  0.0020  0.0000  0.0000  0.0000  0.0000  0.0000 </r>
        <r>  0.0290  0.0196  0.0060  0.0020  0.0000  0.0000  0.0000  0.0000  0.0000 </r>
       </set>
       <set comment="band 18">
        <r>  0.0000  0.0000  0.0000  0.0000  0.7185  0.2376  0.0005  0.0002  0.0002 </r>
        <r>  0.0000  0.0000  0.0000  0.0000  0.0003  0.0001  0.0027  0.0012  0.0009 </r>
        <r>  0.0000  0.0000  0.0005  0.0016  0.0000  0.0000  0.0000  0.0000  0.0000 </r>
        <r>  0.0000  0.0000  0.0005  0.0016  0.0000  0.0000  0.0000  0.0000  0.0000 </r>
       </set>
       <set comment="band 19">
        <r>  0.0000  0.0000  0.0000  0.0000  0.0045  0.0015  0.3549  0.1603  0.1183 </r>
        <r>  0.0000  0.0000  0.0000  0.0000  0.0029  0.0010  0.1042  0.0471  0.0347 </r>
        <r>  0.0000  0.0000  0.0202  0.0611  0.0000  0.0000  0.0000  0.0000  0.0000 </r>
        <r>  0.0000  0.0000  0.0202  0.0611  0.0000  0.0000  0.0000  0.0000  0.0000 </r>
       </set>
       <set comment="band 20">
        <r>  0.0000  0.0240  0.0241  0.0080  0.0000  0.0000  0.0000  0.0000  0.0000 </r>
        <r>  0.0000  0.0054  0.0121  0.0040  0.0000  0.0000  0.0000  0.0000  0.0000 </r>
        <r>  0.0482  0.0006  0.0140  0.0046  0.0000  0.0000  0.0000  0.0000  0.0000 </r>
        <r>  0.0482  0.0006  0.0140  0.0046  0.0000  0.0000  0.0000  0.0000  0.0000 </r>
       </set>
       <set comment="band 21">
        <r>  0.0398  0.0000  0.0000  0.0000  0.0020  0.0061  0.0380  0.0509  0.0057 </r>
        <r>  0.0104  0.0000  0.0000  0.0000  0.0045  0.0137  0.0574  0.0060  0.2547 </r>
        <r>  0.0143  0.0038  0.0756  0.0250  0.0000  0.0000  0.0000  0.0000  0.0000 </r>
        <r>  0.0143  0.0038  0.0756  0.0250  0.0000  0.0000  0.0000  0.0000  0.0000 </r>
       </set>
       <set comment="band 22">
        <r>  0.0000  0.3000  0.0496  0.0164  0.0000  0.0000  0.0000  0.0000  0.0000 </r>
        <r>  0.0000  0.1000  0.0031  0.0010  0.0000  0.0000  0.0000  0.0000  0.0000 </r>
        <r>  0.0019  0.0016  0.0095  0.0031  0.0000  0.0000  0.0000  0.0000  0.0000 </r>
        <r>  0.0019  0.0016  0.0095  0.0031  0.0000  0.0000  0.0000  0.0000  0.0000 </r>
       </set>
       <set comment="band 23">
        <r>  0.0000  0.1478  0.0695  0.0230  0.0000  0.0000  0.0000  0.0000  0.0000 </r>
        <r>  0.0000  0.0080  0.0106  0.0035  0.0000  0.0000  0.0000  0.0000  0.0000 </r>
        <r>  0.0030  0.0015  0.0293  0.0097  0.0000  0.0000  0.0000  0.0000  0.0000 </r>
        <r>  0.0030  0.0015  0.0293  0.0097  0.0000  0.0000  0.0000  0.0000  0.0000 </r>
       </set>
       <set comment="band 24">
        <r>  0.1335  0.0000  0.0000  0.0000  0.0003  0.0008  0.0075  0.0244  0.1094 </r>
        <r>  0.0699  0.0000  0.0000  0.0000  0.0022  0.0066  0.0270  0.0581  0.0000 </r>
        <r>  0.0000  0.0019  0.0087  0.0029  0.0000  0.0000  0.0000  0.0000  0.0000 </r>
        <r>  0.0000  0.0019  0.0087  0.0029  0.0000  0.0000  0.0000  0.0000  0.0000 </r>
       </set>
      </set>
     </set>
    </set>
   </array>
  </projected>
 </calculation>
 <structure name="finalpos" >
  <crystal>
   <varray name="basis" >
    <v>      -2.00559199       0.00000010      -1.15325983 </v>
    <v>       0.69662020       2.99996462       1.10908915 </v>
    <v>       3.09594491       0.67547474      -5.38404708 </v>
   </varray>
   <i name="volume">     44.06523122 </i>
   <varray name="rec_basis" >
    <v>      -0.38354757       0.16303817      -0.20009372 </v>
    <v>      -0.01767828       0.32607637       0.03074367 </v>
    <v>       0.07851403       0.03224756      -0.13654087 </v>
   </varray>
  </crystal>
  <varray name="positions" >
   <v>       0.00000000       0.00000000       0.00000000 </v>
   <v>       0.50000000       0.00000000       0.50000000 </v>
   <v>       0.00673906       0.01347813       0.69853846 </v>
   <v>       0.99326094       0.98652187       0.30146154 </v>
  </varray>
 </structure>
</modeling>
