   2    2    1    2
  1.7022162e+01   2.8874196e-10   2.8874196e-10   2.8874196e-10   5.0000000e-16
            1.000000e-04
  CAR
 DOS and projected DOS file by LOBSTER. Energy is shifted such that the Fermi level lies at 0 eV. 
     12.52588901      -7.52423630   401       7.51335768       1.00000000
-15.03759   0.00000   0.00000   1.99939   1.99939
-14.98747   0.00000   0.00000   1.99939   1.99939
-14.93734   0.00000   0.00000   1.99939   1.99939
-14.88722   0.00000   0.00000   1.99939   1.99939
-14.83709   0.00000   0.00000   1.99939   1.99939
-14.78697   0.00000   0.00000   1.99939   1.99939
-14.73684   0.00000   0.00000   1.99939   1.99939
-14.68672   0.00000   0.00000   1.99939   1.99939
-14.63659   0.00000   0.00000   1.99939   1.99939
-14.58647   0.00000   0.00000   1.99939   1.99939
-14.53634   0.00000   0.00000   1.99939   1.99939
-14.48622   0.00000   0.00000   1.99939   1.99939
-14.43609   0.00000   0.00000   1.99939   1.99939
-14.38596   0.00000   0.00000   1.99939   1.99939
-14.33584   0.00000   0.00000   1.99939   1.99939
-14.28571   0.00000   0.00000   1.99939   1.99939
-14.23559   0.00000   0.00000   1.99939   1.99939
-14.18546   0.00000   0.00000   1.99939   1.99939
-14.13534   0.00000   0.00000   1.99939   1.99939
-14.08521   0.00000   0.00000   1.99939   1.99939
-14.03509   0.00000   0.00000   1.99939   1.99939
-13.98496   0.00000   0.00000   1.99939   1.99939
-13.93484   0.00000   0.00000   1.99939   1.99939
-13.88471   0.00000   0.00000   1.99939   1.99939
-13.83459   0.00000   0.00000   1.99939   1.99939
-13.78446   0.00000   0.00000   1.99939   1.99939
-13.73434   0.00000   0.00000   1.99939   1.99939
-13.68421   0.00000   0.00000   1.99939   1.99939
-13.63409   0.00000   0.00000   1.99939   1.99939
-13.58396   0.00000   0.00000   1.99939   1.99939
-13.53383   0.00000   0.00000   1.99939   1.99939
-13.48371   0.00000   0.00000   1.99939   1.99939
-13.43358   0.00000   0.00000   1.99939   1.99939
-13.38346   0.00000   0.00000   1.99939   1.99939
-13.33333   0.00000   0.00000   1.99939   1.99939
-13.28321   0.00000   0.00000   1.99939   1.99939
-13.23308   0.00000   0.00000   1.99939   1.99939
-13.18296   0.00000   0.00000   1.99939   1.99939
-13.13283   0.00000   0.00000   1.99939   1.99939
-13.08271   0.00000   0.00000   1.99939   1.99939
-13.03258   0.00000   0.00000   1.99939   1.99939
-12.98246   0.00000   0.00000   1.99939   1.99939
-12.93233   0.00000   0.00000   1.99939   1.99939
-12.88221   0.00000   0.00000   1.99939   1.99939
-12.83208   0.00000   0.00000   1.99939   1.99939
-12.78195   0.00000   0.00000   1.99939   1.99939
-12.73183   0.00000   0.00000   1.99939   1.99939
-12.68170   0.00000   0.00000   1.99939   1.99939
-12.63158   0.00000   0.00000   1.99939   1.99939
-12.58145   0.00000   0.00000   1.99939   1.99939
-12.53133   0.00000   0.00000   1.99939   1.99939
-12.48120   0.00000   0.00000   1.99939   1.99939
-12.43108   0.00000   0.00000   1.99939   1.99939
-12.38095   0.00000   0.00000   1.99939   1.99939
-12.33083   0.00000   0.00000   1.99939   1.99939
-12.28070   0.00000   0.00000   1.99939   1.99939
-12.23058   0.00000   0.00000   1.99939   1.99939
-12.18045   0.00000   0.00000   1.99939   1.99939
-12.13033   0.00000   0.00000   1.99939   1.99939
-12.08020   0.00000   0.00000   1.99939   1.99939
-12.03008   0.00000   0.00000   1.99939   1.99939
-11.97995   0.00000   0.00000   1.99939   1.99939
-11.92982   0.00000   0.00000   1.99939   1.99939
-11.87970   0.00000   0.00000   1.99939   1.99939
-11.82957   0.00000   0.00000   1.99939   1.99939
-11.77945   0.00000   0.00000   1.99939   1.99939
-11.72932   0.00000   0.00000   1.99939   1.99939
-11.67920   0.00000   0.00000   1.99939   1.99939
-11.62907   0.00000   0.00000   1.99939   1.99939
-11.57895   0.00854   0.00855   1.99982   1.99982
-11.52882   0.06960   0.06968   2.00331   2.00331
-11.47870   0.12229   0.12224   2.00944   2.00944
-11.42857   0.16049   0.16046   2.01748   2.01748
-11.37845   0.19710   0.19710   2.02736   2.02736
-11.32832   0.23811   0.23812   2.03929   2.03930
-11.27820   0.27158   0.27160   2.05291   2.05291
-11.22807   0.31220   0.31220   2.06856   2.06856
-11.17794   0.36129   0.36128   2.08667   2.08667
-11.12782   0.53217   0.53218   2.11334   2.11334
-11.07769   0.86242   0.86243   2.15657   2.15657
-11.02757   1.16937   1.16937   2.21519   2.21519
-10.97744   1.70101   1.70100   2.30045   2.30045
-10.92732   1.70003   1.70005   2.38566   2.38567
-10.87719   1.51957   1.51958   2.46183   2.46184
-10.82707   1.37716   1.37720   2.53086   2.53087
-10.77694   1.25238   1.25229   2.59364   2.59364
-10.72682   0.94072   0.94070   2.64079   2.64079
-10.67669   0.80972   0.80972   2.68138   2.68138
-10.62657   0.70984   0.70985   2.71696   2.71696
-10.57644   0.67930   0.67930   2.75101   2.75101
-10.52632   0.64453   0.64452   2.78332   2.78332
-10.47619   0.63587   0.63586   2.81519   2.81519
-10.42607   0.71690   0.71690   2.85113   2.85113
-10.37594   0.72822   0.72822   2.88763   2.88763
-10.32581   0.75467   0.75467   2.92546   2.92546
-10.27569   0.77847   0.77848   2.96448   2.96448
-10.22556   0.78892   0.78892   3.00402   3.00402
-10.17544   0.80901   0.80901   3.04458   3.04458
-10.12531   0.82983   0.82983   3.08617   3.08617
-10.07519   0.84959   0.84959   3.12876   3.12876
-10.02506   0.86802   0.86803   3.17227   3.17227
 -9.97494   0.89033   0.89034   3.21689   3.21690
 -9.92481   0.91103   0.91104   3.26256   3.26256
 -9.87469   0.92438   0.92438   3.30890   3.30890
 -9.82456   0.93855   0.93854   3.35594   3.35594
 -9.77444   0.94559   0.94558   3.40334   3.40334
 -9.72431   0.95994   0.95993   3.45146   3.45146
 -9.67419   0.98486   0.98486   3.50082   3.50082
 -9.62406   1.18018   1.18019   3.55998   3.55998
 -9.57393   1.35121   1.35122   3.62771   3.62771
 -9.52381   1.57930   1.57930   3.70687   3.70687
 -9.47368   1.88557   1.88556   3.80139   3.80139
 -9.42356   1.92115   1.92113   3.89768   3.89768
 -9.37343   1.92512   1.92511   3.99418   3.99418
 -9.32331   1.94103   1.94104   4.09148   4.09148
 -9.27318   1.94120   1.94119   4.18878   4.18878
 -9.22306   1.95517   1.95516   4.28678   4.28678
 -9.17293   1.97667   1.97668   4.38586   4.38586
 -9.12281   1.99589   1.99590   4.48591   4.48591
 -9.07268   2.03494   2.03496   4.58791   4.58791
 -9.02256   2.04633   2.04633   4.69048   4.69049
 -8.97243   1.97706   1.97703   4.78958   4.78958
 -8.92231   1.45566   1.45569   4.86255   4.86255
 -8.87218   1.17210   1.17210   4.92130   4.92130
 -8.82206   0.95863   0.95860   4.96935   4.96935
 -8.77193   0.58089   0.58089   4.99847   4.99847
 -8.72180   0.00000   0.00000   4.99847   4.99847
 -8.67168   0.00000   0.00000   4.99847   4.99847
 -8.62155   0.00000   0.00000   4.99847   4.99847
 -8.57143   0.00000   0.00000   4.99847   4.99847
 -8.52130   0.00000   0.00000   4.99847   4.99847
 -8.47118   0.00000   0.00000   4.99847   4.99847
 -8.42105   0.00000   0.00000   4.99847   4.99847
 -8.37093   0.00000   0.00000   4.99847   4.99847
 -8.32080   0.00000   0.00000   4.99847   4.99847
 -8.27068   0.00000   0.00000   4.99847   4.99847
 -8.22055   0.00000   0.00000   4.99847   4.99847
 -8.17043   0.00000   0.00000   4.99847   4.99847
 -8.12030   0.00000   0.00000   4.99847   4.99847
 -8.07018   0.00000   0.00000   4.99847   4.99847
 -8.02005   0.00000   0.00000   4.99847   4.99847
 -7.96992   0.00000   0.00000   4.99847   4.99847
 -7.91980   0.00000   0.00000   4.99847   4.99847
 -7.86967   0.00000   0.00000   4.99847   4.99847
 -7.81955   0.00000   0.00000   4.99847   4.99847
 -7.76942   0.00000   0.00000   4.99847   4.99847
 -7.71930   0.00000   0.00000   4.99847   4.99847
 -7.66917   0.00000   0.00000   4.99847   4.99847
 -7.61905   0.00000   0.00000   4.99847   4.99847
 -7.56892   0.00000   0.00000   4.99847   4.99847
 -7.51880   0.00000   0.00000   4.99847   4.99847
 -7.46867   0.00000   0.00000   4.99847   4.99847
 -7.41855   0.00000   0.00000   4.99847   4.99847
 -7.36842   0.00000   0.00000   4.99847   4.99847
 -7.31830   0.00000   0.00000   4.99847   4.99847
 -7.26817   0.00000   0.00000   4.99847   4.99847
 -7.21805   0.00000   0.00000   4.99847   4.99847
 -7.16792   0.00000   0.00000   4.99847   4.99847
 -7.11779   0.00000   0.00000   4.99847   4.99847
 -7.06767   0.00000   0.00000   4.99847   4.99847
 -7.01754   0.00000   0.00000   4.99847   4.99847
 -6.96742   0.00000   0.00000   4.99847   4.99847
 -6.91729   0.00000   0.00000   4.99847   4.99847
 -6.86717   0.00000   0.00000   4.99847   4.99847
 -6.81704   0.00000   0.00000   4.99847   4.99847
 -6.76692   0.00000   0.00000   4.99847   4.99847
 -6.71679   0.00000   0.00000   4.99847   4.99847
 -6.66667   0.00000   0.00000   4.99847   4.99847
 -6.61654   0.00000   0.00000   4.99847   4.99847
 -6.56642   0.00000   0.00000   4.99847   4.99847
 -6.51629   0.00000   0.00000   4.99847   4.99847
 -6.46617   0.00000   0.00000   4.99847   4.99847
 -6.41604   0.00000   0.00000   4.99847   4.99847
 -6.36591   0.00000   0.00000   4.99847   4.99847
 -6.31579   0.00000   0.00000   4.99847   4.99847
 -6.26566   0.00000   0.00000   4.99847   4.99847
 -6.21554   0.00000   0.00000   4.99847   4.99847
 -6.16541   0.00000   0.00000   4.99847   4.99847
 -6.11529   0.00000   0.00000   4.99847   4.99847
 -6.06516   0.00000   0.00000   4.99847   4.99847
 -6.01504   0.00000   0.00000   4.99847   4.99847
 -5.96491   0.00000   0.00000   4.99847   4.99847
 -5.91479   0.00000   0.00000   4.99847   4.99847
 -5.86466   0.00000   0.00000   4.99847   4.99847
 -5.81454   0.00000   0.00000   4.99847   4.99847
 -5.76441   0.00000   0.00000   4.99847   4.99847
 -5.71429   0.00000   0.00000   4.99847   4.99847
 -5.66416   0.00000   0.00000   4.99847   4.99847
 -5.61404   0.00000   0.00000   4.99847   4.99847
 -5.56391   0.00000   0.00000   4.99847   4.99847
 -5.51378   0.00000   0.00000   4.99847   4.99847
 -5.46366   0.00000   0.00000   4.99847   4.99847
 -5.41353   0.00000   0.00000   4.99847   4.99847
 -5.36341   0.00000   0.00000   4.99847   4.99847
 -5.31328   0.00000   0.00000   4.99847   4.99847
 -5.26316   0.00000   0.00000   4.99847   4.99847
 -5.21303   0.00000   0.00000   4.99847   4.99847
 -5.16291   0.00000   0.00000   4.99847   4.99847
 -5.11278   0.00000   0.00000   4.99847   4.99847
 -5.06266   0.00000   0.00000   4.99847   4.99847
 -5.01253   0.00000   0.00000   4.99847   4.99847
 -4.96241   0.00000   0.00000   4.99847   4.99847
 -4.91228   0.00000   0.00000   4.99847   4.99847
 -4.86216   0.00000   0.00000   4.99847   4.99847
 -4.81203   0.00000   0.00000   4.99847   4.99847
 -4.76190   0.00000   0.00000   4.99847   4.99847
 -4.71178   0.00000   0.00000   4.99847   4.99847
 -4.66165   0.00000   0.00000   4.99847   4.99847
 -4.61153   0.00000   0.00000   4.99847   4.99847
 -4.56140   0.00000   0.00000   4.99847   4.99847
 -4.51128   0.00000   0.00000   4.99847   4.99847
 -4.46115   0.00000   0.00000   4.99847   4.99847
 -4.41103   0.00000   0.00000   4.99847   4.99847
 -4.36090   0.00000   0.00000   4.99847   4.99847
 -4.31078   0.00000   0.00000   4.99847   4.99847
 -4.26065   0.00000   0.00000   4.99847   4.99847
 -4.21053   0.00000   0.00000   4.99847   4.99847
 -4.16040   0.00000   0.00000   4.99847   4.99847
 -4.11028   0.00000   0.00000   4.99847   4.99847
 -4.06015   0.00000   0.00000   4.99847   4.99847
 -4.01003   0.00000   0.00000   4.99847   4.99847
 -3.95990   0.00000   0.00000   4.99847   4.99847
 -3.90977   0.00000   0.00000   4.99847   4.99847
 -3.85965   0.00000   0.00000   4.99847   4.99847
 -3.80952   0.00000   0.00000   4.99847   4.99847
 -3.75940   0.00000   0.00000   4.99847   4.99847
 -3.70927   0.00000   0.00000   4.99847   4.99847
 -3.65915   0.00000   0.00000   4.99847   4.99847
 -3.60902   0.00000   0.00000   4.99847   4.99847
 -3.55890   0.00000   0.00000   4.99847   4.99847
 -3.50877   0.00000   0.00000   4.99847   4.99847
 -3.45865   0.00000   0.00000   4.99847   4.99847
 -3.40852   0.00000   0.00000   4.99847   4.99847
 -3.35840   0.00000   0.00000   4.99847   4.99847
 -3.30827   0.00000   0.00000   4.99847   4.99847
 -3.25815   0.00000   0.00000   4.99847   4.99847
 -3.20802   0.00000   0.00000   4.99847   4.99847
 -3.15789   0.00000   0.00000   4.99847   4.99847
 -3.10777   0.00000   0.00000   4.99847   4.99847
 -3.05764   0.00000   0.00000   4.99847   4.99847
 -3.00752   0.00000   0.00000   4.99847   4.99847
 -2.95739   0.00000   0.00000   4.99847   4.99847
 -2.90727   0.00000   0.00000   4.99847   4.99847
 -2.85714   0.00000   0.00000   4.99847   4.99847
 -2.80702   0.00000   0.00000   4.99847   4.99847
 -2.75689   0.00000   0.00000   4.99847   4.99847
 -2.70677   0.00000   0.00000   4.99847   4.99847
 -2.65664   0.00000   0.00000   4.99847   4.99847
 -2.60652   0.00000   0.00000   4.99847   4.99847
 -2.55639   0.00000   0.00000   4.99847   4.99847
 -2.50627   0.00000   0.00000   4.99847   4.99847
 -2.45614   0.00000   0.00000   4.99847   4.99847
 -2.40602   0.00000   0.00000   4.99847   4.99847
 -2.35589   0.00000   0.00000   4.99847   4.99847
 -2.30576   0.00000   0.00000   4.99847   4.99847
 -2.25564   0.00000   0.00000   4.99847   4.99847
 -2.20551   0.00000   0.00000   4.99847   4.99847
 -2.15539   0.00000   0.00000   4.99847   4.99847
 -2.10526   0.00000   0.00000   4.99847   4.99847
 -2.05514   0.00000   0.00000   4.99847   4.99847
 -2.00501   0.00000   0.00000   4.99847   4.99847
 -1.95489   0.00000   0.00000   4.99847   4.99847
 -1.90476   0.00000   0.00000   4.99847   4.99847
 -1.85464   0.00000   0.00000   4.99847   4.99847
 -1.80451   0.00000   0.00000   4.99847   4.99847
 -1.75439   0.00000   0.00000   4.99847   4.99847
 -1.70426   0.00000   0.00000   4.99847   4.99847
 -1.65414   0.00000   0.00000   4.99847   4.99847
 -1.60401   0.00000   0.00000   4.99847   4.99847
 -1.55388   0.00000   0.00000   4.99847   4.99847
 -1.50376   0.00000   0.00000   4.99847   4.99847
 -1.45363   0.00000   0.00000   4.99847   4.99847
 -1.40351   0.00000   0.00000   4.99847   4.99847
 -1.35338   0.00000   0.00000   4.99847   4.99847
 -1.30326   0.00000   0.00000   4.99847   4.99847
 -1.25313   0.00000   0.00000   4.99847   4.99847
 -1.20301   0.00000   0.00000   4.99847   4.99847
 -1.15288   0.00000   0.00000   4.99847   4.99847
 -1.10276   0.00000   0.00000   4.99847   4.99847
 -1.05263   0.00000   0.00000   4.99847   4.99847
 -1.00251   0.00000   0.00000   4.99847   4.99847
 -0.95238   0.00000   0.00000   4.99847   4.99847
 -0.90226   0.00000   0.00000   4.99847   4.99847
 -0.85213   0.00000   0.00000   4.99847   4.99847
 -0.80201   0.00000   0.00000   4.99847   4.99847
 -0.75188   0.00000   0.00000   4.99847   4.99847
 -0.70175   0.00000   0.00000   4.99847   4.99847
 -0.65163   0.00000   0.00000   4.99847   4.99847
 -0.60150   0.00000   0.00000   4.99847   4.99847
 -0.55138   0.00000   0.00000   4.99847   4.99847
 -0.50125   0.00000   0.00000   4.99847   4.99847
 -0.45113   0.00000   0.00000   4.99847   4.99847
 -0.40100   0.00000   0.00000   4.99847   4.99847
 -0.35088   0.00000   0.00000   4.99847   4.99847
 -0.30075   0.00000   0.00000   4.99847   4.99847
 -0.25063   0.00000   0.00000   4.99847   4.99847
 -0.20050   0.00000   0.00000   4.99847   4.99847
 -0.15038   0.00000   0.00000   4.99847   4.99847
 -0.10025   0.00000   0.00000   4.99847   4.99847
 -0.05013   0.00000   0.00000   4.99847   4.99847
  0.00000   0.00000   0.00000   4.99847   4.99847
  0.05013   0.00375   0.00375   4.99866   4.99866
  0.10025   0.00890   0.00890   4.99910   4.99910
  0.15038   0.01358   0.01358   4.99979   4.99979
  0.20050   0.01661   0.01661   5.00062   5.00062
  0.25063   0.01942   0.01942   5.00159   5.00159
  0.30075   0.02326   0.02326   5.00276   5.00276
  0.35088   0.02708   0.02708   5.00412   5.00412
  0.40100   0.02944   0.02944   5.00559   5.00559
  0.45113   0.03195   0.03195   5.00719   5.00719
  0.50125   0.03503   0.03503   5.00895   5.00895
  0.55138   0.03815   0.03815   5.01086   5.01086
  0.60150   0.04138   0.04138   5.01293   5.01293
  0.65163   0.04498   0.04498   5.01519   5.01519
  0.70175   0.04799   0.04799   5.01760   5.01760
  0.75188   0.05081   0.05081   5.02014   5.02014
  0.80201   0.05359   0.05359   5.02283   5.02283
  0.85213   0.05659   0.05659   5.02566   5.02566
  0.90226   0.06050   0.06050   5.02870   5.02870
  0.95238   0.06443   0.06443   5.03193   5.03193
  1.00251   0.06863   0.06863   5.03537   5.03537
  1.05263   0.07220   0.07220   5.03899   5.03899
  1.10276   0.07567   0.07567   5.04278   5.04278
  1.15288   0.07991   0.07991   5.04678   5.04678
  1.20301   0.08430   0.08430   5.05101   5.05101
  1.25313   0.08858   0.08858   5.05545   5.05545
  1.30326   0.09280   0.09280   5.06010   5.06010
  1.35338   0.09766   0.09766   5.06500   5.06500
  1.40351   0.10450   0.10451   5.07023   5.07024
  1.45363   0.11144   0.11145   5.07582   5.07582
  1.50376   0.11794   0.11795   5.08173   5.08173
  1.55388   0.12369   0.12370   5.08793   5.08793
  1.60401   0.13196   0.13197   5.09455   5.09455
  1.65414   0.14326   0.14326   5.10173   5.10173
  1.70426   0.15424   0.15423   5.10946   5.10946
  1.75439   0.17041   0.17041   5.11800   5.11800
  1.80451   0.19181   0.19183   5.12762   5.12762
  1.85464   0.25230   0.25232   5.14026   5.14027
  1.90476   0.26037   0.26037   5.15331   5.15332
  1.95489   0.26452   0.26453   5.16657   5.16658
  2.00501   0.26177   0.26177   5.17969   5.17970
  2.05514   0.25913   0.25913   5.19268   5.19269
  2.10526   0.25774   0.25774   5.20560   5.20561
  2.15539   0.25691   0.25691   5.21848   5.21848
  2.20551   0.25470   0.25470   5.23125   5.23125
  2.25564   0.25462   0.25462   5.24401   5.24401
  2.30576   0.25520   0.25520   5.25680   5.25681
  2.35589   0.25545   0.25545   5.26961   5.26961
  2.40602   0.25529   0.25529   5.28240   5.28241
  2.45614   0.25452   0.25453   5.29516   5.29517
  2.50627   0.25413   0.25414   5.30790   5.30790
  2.55639   0.25363   0.25363   5.32061   5.32062
  2.60652   0.25180   0.25181   5.33323   5.33324
  2.65664   0.25070   0.25071   5.34580   5.34581
  2.70677   0.25020   0.25020   5.35834   5.35835
  2.75689   0.24972   0.24972   5.37086   5.37087
  2.80702   0.24940   0.24940   5.38336   5.38337
  2.85714   0.24954   0.24954   5.39587   5.39588
  2.90727   0.25005   0.25005   5.40840   5.40841
  2.95739   0.25053   0.25053   5.42096   5.42097
  3.00752   0.25077   0.25077   5.43353   5.43354
  3.05764   0.25083   0.25083   5.44610   5.44611
  3.10777   0.24967   0.24967   5.45862   5.45862
  3.15789   0.24771   0.24771   5.47104   5.47104
  3.20802   0.24553   0.24553   5.48334   5.48335
  3.25815   0.24485   0.24485   5.49562   5.49562
  3.30827   0.24393   0.24393   5.50784   5.50785
  3.35840   0.24251   0.24251   5.52000   5.52001
  3.40852   0.24077   0.24077   5.53207   5.53207
  3.45865   0.23870   0.23870   5.54403   5.54404
  3.50877   0.23676   0.23676   5.55590   5.55591
  3.55890   0.23500   0.23500   5.56768   5.56769
  3.60902   0.23343   0.23343   5.57938   5.57939
  3.65915   0.23192   0.23191   5.59100   5.59101
  3.70927   0.23024   0.23024   5.60255   5.60255
  3.75940   0.22943   0.22942   5.61405   5.61405
  3.80952   0.22788   0.22787   5.62547   5.62547
  3.85965   0.22454   0.22454   5.63672   5.63673
  3.90977   0.22250   0.22249   5.64788   5.64788
  3.95990   0.22044   0.22043   5.65893   5.65893
  4.01003   0.21865   0.21864   5.66989   5.66989
  4.06015   0.21685   0.21685   5.68075   5.68076
  4.11028   0.21501   0.21501   5.69153   5.69154
  4.16040   0.21311   0.21311   5.70221   5.70222
  4.21053   0.21115   0.21115   5.71280   5.71280
  4.26065   0.20909   0.20909   5.72328   5.72328
  4.31078   0.20700   0.20700   5.73366   5.73366
  4.36090   0.20766   0.20766   5.74406   5.74407
  4.41103   0.20404   0.20404   5.75429   5.75430
  4.46115   0.20197   0.20197   5.76442   5.76442
  4.51128   0.19986   0.19986   5.77443   5.77444
  4.56140   0.19771   0.19771   5.78434   5.78435
  4.61153   0.19543   0.19543   5.79414   5.79415
  4.66165   0.19308   0.19308   5.80382   5.80382
  4.71178   0.19081   0.19080   5.81338   5.81339
  4.76190   0.18831   0.18831   5.82282   5.82283
  4.81203   0.18592   0.18592   5.83214   5.83215
  4.86216   0.18424   0.18424   5.84138   5.84138
  4.91228   0.18687   0.18687   5.85074   5.85075
  4.96241   0.18561   0.18561   5.86005   5.86005
  5.01253   0.18326   0.18325   5.86923   5.86924
      5.01253133     -15.03759398   401       7.51335768       1.00000000; Z=  3; 1s 2s 
-15.03759   0.00000   0.00000   0.00000   0.00000
-14.98747   0.00000   0.00000   0.00000   0.00000
-14.93734   0.00000   0.00000   0.00000   0.00000
-14.88722   0.00000   0.00000   0.00000   0.00000
-14.83709   0.00000   0.00000   0.00000   0.00000
-14.78697   0.00000   0.00000   0.00000   0.00000
-14.73684   0.00000   0.00000   0.00000   0.00000
-14.68672   0.00000   0.00000   0.00000   0.00000
-14.63659   0.00000   0.00000   0.00000   0.00000
-14.58647   0.00000   0.00000   0.00000   0.00000
-14.53634   0.00000   0.00000   0.00000   0.00000
-14.48622   0.00000   0.00000   0.00000   0.00000
-14.43609   0.00000   0.00000   0.00000   0.00000
-14.38596   0.00000   0.00000   0.00000   0.00000
-14.33584   0.00000   0.00000   0.00000   0.00000
-14.28571   0.00000   0.00000   0.00000   0.00000
-14.23559   0.00000   0.00000   0.00000   0.00000
-14.18546   0.00000   0.00000   0.00000   0.00000
-14.13534   0.00000   0.00000   0.00000   0.00000
-14.08521   0.00000   0.00000   0.00000   0.00000
-14.03509   0.00000   0.00000   0.00000   0.00000
-13.98496   0.00000   0.00000   0.00000   0.00000
-13.93484   0.00000   0.00000   0.00000   0.00000
-13.88471   0.00000   0.00000   0.00000   0.00000
-13.83459   0.00000   0.00000   0.00000   0.00000
-13.78446   0.00000   0.00000   0.00000   0.00000
-13.73434   0.00000   0.00000   0.00000   0.00000
-13.68421   0.00000   0.00000   0.00000   0.00000
-13.63409   0.00000   0.00000   0.00000   0.00000
-13.58396   0.00000   0.00000   0.00000   0.00000
-13.53383   0.00000   0.00000   0.00000   0.00000
-13.48371   0.00000   0.00000   0.00000   0.00000
-13.43358   0.00000   0.00000   0.00000   0.00000
-13.38346   0.00000   0.00000   0.00000   0.00000
-13.33333   0.00000   0.00000   0.00000   0.00000
-13.28321   0.00000   0.00000   0.00000   0.00000
-13.23308   0.00000   0.00000   0.00000   0.00000
-13.18296   0.00000   0.00000   0.00000   0.00000
-13.13283   0.00000   0.00000   0.00000   0.00000
-13.08271   0.00000   0.00000   0.00000   0.00000
-13.03258   0.00000   0.00000   0.00000   0.00000
-12.98246   0.00000   0.00000   0.00000   0.00000
-12.93233   0.00000   0.00000   0.00000   0.00000
-12.88221   0.00000   0.00000   0.00000   0.00000
-12.83208   0.00000   0.00000   0.00000   0.00000
-12.78195   0.00000   0.00000   0.00000   0.00000
-12.73183   0.00000   0.00000   0.00000   0.00000
-12.68170   0.00000   0.00000   0.00000   0.00000
-12.63158   0.00000   0.00000   0.00000   0.00000
-12.58145   0.00000   0.00000   0.00000   0.00000
-12.53133   0.00000   0.00000   0.00000   0.00000
-12.48120   0.00000   0.00000   0.00000   0.00000
-12.43108   0.00000   0.00000   0.00000   0.00000
-12.38095   0.00000   0.00000   0.00000   0.00000
-12.33083   0.00000   0.00000   0.00000   0.00000
-12.28070   0.00000   0.00000   0.00000   0.00000
-12.23058   0.00000   0.00000   0.00000   0.00000
-12.18045   0.00000   0.00000   0.00000   0.00000
-12.13033   0.00000   0.00000   0.00000   0.00000
-12.08020   0.00000   0.00000   0.00000   0.00000
-12.03008   0.00000   0.00000   0.00000   0.00000
-11.97995   0.00000   0.00000   0.00000   0.00000
-11.92982   0.00000   0.00000   0.00000   0.00000
-11.87970   0.00000   0.00000   0.00000   0.00000
-11.82957   0.00000   0.00000   0.00000   0.00000
-11.77945   0.00000   0.00000   0.00000   0.00000
-11.72932   0.00000   0.00000   0.00000   0.00000
-11.67920   0.00000   0.00000   0.00000   0.00000
-11.62907   0.00000   0.00000   0.00000   0.00000
-11.57895  -0.00003  -0.00003   0.00053   0.00053
-11.52882  -0.00022  -0.00022   0.00470   0.00471
-11.47870  -0.00035  -0.00035   0.00900   0.00900
-11.42857  -0.00042  -0.00042   0.01259   0.01259
-11.37845  -0.00049  -0.00049   0.01624   0.01624
-11.32832  -0.00056  -0.00056   0.02043   0.02043
-11.27820  -0.00061  -0.00061   0.02408   0.02408
-11.22807  -0.00065  -0.00065   0.02843   0.02843
-11.17794  -0.00069  -0.00069   0.03347   0.03347
-11.12782  -0.00059  -0.00059   0.05541   0.05541
-11.07769  -0.00039  -0.00039   0.09617   0.09617
-11.02757  -0.00038  -0.00038   0.13249   0.13249
-10.97744  -0.00048  -0.00048   0.19899   0.19899
-10.92732  -0.00053  -0.00053   0.18949   0.18949
-10.87719  -0.00044  -0.00044   0.15640   0.15640
-10.82707  -0.00037  -0.00037   0.13314   0.13314
-10.77694  -0.00042  -0.00042   0.11051   0.11050
-10.72682   0.00032   0.00032   0.08077   0.08077
-10.67669   0.00040   0.00040   0.06818   0.06818
-10.62657   0.00044   0.00044   0.05819   0.05819
-10.57644   0.00018   0.00018   0.04874   0.04874
-10.52632  -0.00001  -0.00001   0.04297   0.04297
-10.47619  -0.00012  -0.00012   0.04043   0.04043
-10.42607  -0.00032  -0.00032   0.04698   0.04698
-10.37594  -0.00040  -0.00040   0.04485   0.04486
-10.32581  -0.00047  -0.00047   0.04343   0.04343
-10.27569  -0.00049  -0.00049   0.03988   0.03988
-10.22556  -0.00041  -0.00041   0.03351   0.03351
-10.17544  -0.00029  -0.00029   0.02772   0.02772
-10.12531  -0.00018  -0.00018   0.02296   0.02296
-10.07519  -0.00009  -0.00009   0.01905   0.01905
-10.02506  -0.00005  -0.00005   0.01625   0.01625
 -9.97494  -0.00003  -0.00003   0.01445   0.01445
 -9.92481  -0.00003  -0.00003   0.01320   0.01320
 -9.87469  -0.00002  -0.00002   0.01209   0.01209
 -9.82456  -0.00002  -0.00002   0.01114   0.01114
 -9.77444  -0.00002  -0.00002   0.01021   0.01021
 -9.72431  -0.00001  -0.00001   0.00940   0.00940
 -9.67419  -0.00001  -0.00001   0.00883   0.00883
 -9.62406  -0.00003  -0.00003   0.00975   0.00975
 -9.57393  -0.00006  -0.00006   0.01243   0.01243
 -9.52381  -0.00024  -0.00024   0.02083   0.02083
 -9.47368  -0.00057  -0.00057   0.03457   0.03457
 -9.42356  -0.00024  -0.00024   0.02368   0.02368
 -9.37343  -0.00007  -0.00007   0.01565   0.01565
 -9.32331  -0.00001  -0.00001   0.01107   0.01107
 -9.27318   0.00001   0.00001   0.00767   0.00767
 -9.22306   0.00002   0.00002   0.00573   0.00573
 -9.17293   0.00001   0.00001   0.00429   0.00429
 -9.12281   0.00001   0.00001   0.00333   0.00333
 -9.07268   0.00001   0.00001   0.00266   0.00266
 -9.02256   0.00000   0.00000   0.00213   0.00213
 -8.97243   0.00000   0.00000   0.00172   0.00172
 -8.92231   0.00000   0.00000   0.00132   0.00132
 -8.87218   0.00000   0.00000   0.00091   0.00091
 -8.82206   0.00000   0.00000   0.00052   0.00052
 -8.77193   0.00000   0.00000   0.00016   0.00016
 -8.72180   0.00000   0.00000   0.00000   0.00000
 -8.67168   0.00000   0.00000   0.00000   0.00000
 -8.62155   0.00000   0.00000   0.00000   0.00000
 -8.57143   0.00000   0.00000   0.00000   0.00000
 -8.52130   0.00000   0.00000   0.00000   0.00000
 -8.47118   0.00000   0.00000   0.00000   0.00000
 -8.42105   0.00000   0.00000   0.00000   0.00000
 -8.37093   0.00000   0.00000   0.00000   0.00000
 -8.32080   0.00000   0.00000   0.00000   0.00000
 -8.27068   0.00000   0.00000   0.00000   0.00000
 -8.22055   0.00000   0.00000   0.00000   0.00000
 -8.17043   0.00000   0.00000   0.00000   0.00000
 -8.12030   0.00000   0.00000   0.00000   0.00000
 -8.07018   0.00000   0.00000   0.00000   0.00000
 -8.02005   0.00000   0.00000   0.00000   0.00000
 -7.96992   0.00000   0.00000   0.00000   0.00000
 -7.91980   0.00000   0.00000   0.00000   0.00000
 -7.86967   0.00000   0.00000   0.00000   0.00000
 -7.81955   0.00000   0.00000   0.00000   0.00000
 -7.76942   0.00000   0.00000   0.00000   0.00000
 -7.71930   0.00000   0.00000   0.00000   0.00000
 -7.66917   0.00000   0.00000   0.00000   0.00000
 -7.61905   0.00000   0.00000   0.00000   0.00000
 -7.56892   0.00000   0.00000   0.00000   0.00000
 -7.51880   0.00000   0.00000   0.00000   0.00000
 -7.46867   0.00000   0.00000   0.00000   0.00000
 -7.41855   0.00000   0.00000   0.00000   0.00000
 -7.36842   0.00000   0.00000   0.00000   0.00000
 -7.31830   0.00000   0.00000   0.00000   0.00000
 -7.26817   0.00000   0.00000   0.00000   0.00000
 -7.21805   0.00000   0.00000   0.00000   0.00000
 -7.16792   0.00000   0.00000   0.00000   0.00000
 -7.11779   0.00000   0.00000   0.00000   0.00000
 -7.06767   0.00000   0.00000   0.00000   0.00000
 -7.01754   0.00000   0.00000   0.00000   0.00000
 -6.96742   0.00000   0.00000   0.00000   0.00000
 -6.91729   0.00000   0.00000   0.00000   0.00000
 -6.86717   0.00000   0.00000   0.00000   0.00000
 -6.81704   0.00000   0.00000   0.00000   0.00000
 -6.76692   0.00000   0.00000   0.00000   0.00000
 -6.71679   0.00000   0.00000   0.00000   0.00000
 -6.66667   0.00000   0.00000   0.00000   0.00000
 -6.61654   0.00000   0.00000   0.00000   0.00000
 -6.56642   0.00000   0.00000   0.00000   0.00000
 -6.51629   0.00000   0.00000   0.00000   0.00000
 -6.46617   0.00000   0.00000   0.00000   0.00000
 -6.41604   0.00000   0.00000   0.00000   0.00000
 -6.36591   0.00000   0.00000   0.00000   0.00000
 -6.31579   0.00000   0.00000   0.00000   0.00000
 -6.26566   0.00000   0.00000   0.00000   0.00000
 -6.21554   0.00000   0.00000   0.00000   0.00000
 -6.16541   0.00000   0.00000   0.00000   0.00000
 -6.11529   0.00000   0.00000   0.00000   0.00000
 -6.06516   0.00000   0.00000   0.00000   0.00000
 -6.01504   0.00000   0.00000   0.00000   0.00000
 -5.96491   0.00000   0.00000   0.00000   0.00000
 -5.91479   0.00000   0.00000   0.00000   0.00000
 -5.86466   0.00000   0.00000   0.00000   0.00000
 -5.81454   0.00000   0.00000   0.00000   0.00000
 -5.76441   0.00000   0.00000   0.00000   0.00000
 -5.71429   0.00000   0.00000   0.00000   0.00000
 -5.66416   0.00000   0.00000   0.00000   0.00000
 -5.61404   0.00000   0.00000   0.00000   0.00000
 -5.56391   0.00000   0.00000   0.00000   0.00000
 -5.51378   0.00000   0.00000   0.00000   0.00000