 running on   48 nodes
 distr:  one band on   24 nodes,    2 groups
 vasp.5.2.11 01Dec10 complex 
 POSCAR found type information on POSCAR  Eu In Rh
 POSCAR found :  3 types and      44 ions
 scaLAPACK will be used
 LDA part: xc-table for Pade appr. of Perdew
 POSCAR, INCAR and KPOINTS ok, starting setup
 FFT: planning ...(           12 )
 WAVECAR not read
 WARNING: chargedensity file is incomplete
 entering main loop
       N       E                     dE             d eps       ncg     rms          rms(c)
DAV:   1     0.953596294963E+04    0.95360E+04   -0.24956E+05  4512   0.238E+03 
DAV:   2     0.194433545966E+04   -0.75916E+04   -0.73521E+04  4512   0.783E+02 
DAV:   3     0.942995439588E+02   -0.18500E+04   -0.16699E+04  5440   0.354E+02 
DAV:   4    -0.199581221999E+03   -0.29388E+03   -0.26875E+03  7264   0.152E+02 
DAV:   5    -0.218950965965E+03   -0.19370E+02   -0.18738E+02  7496   0.398E+01    0.981E+01
RMM:   6    -0.208078136522E+04   -0.18618E+04   -0.44971E+03  7407   0.811E+01    0.186E+02
RMM:   7    -0.599575209893E+03    0.14812E+04   -0.48084E+02  5806   0.693E+01    0.125E+02
RMM:   8    -0.313368115374E+03    0.28621E+03   -0.14938E+02  5016   0.228E+01    0.111E+02
RMM:   9    -0.246392841263E+03    0.66975E+02   -0.12962E+02  6748   0.139E+01    0.924E+01
RMM:  10    -0.232198091797E+03    0.14195E+02   -0.52167E+01  5491   0.148E+01    0.103E+02
RMM:  11    -0.178063286208E+03    0.54135E+02   -0.12867E+01  6124   0.687E+00    0.357E+01
RMM:  12    -0.179934416886E+03   -0.18711E+01   -0.39291E+00  6622   0.262E+00    0.450E+01
RMM:  13    -0.175811041403E+03    0.41234E+01   -0.63139E-01  6061   0.139E+00    0.196E+01
RMM:  14    -0.178622847786E+03   -0.28118E+01   -0.57506E-01  6162   0.120E+00    0.344E+01
RMM:  15    -0.179505603504E+03   -0.88276E+00   -0.37960E-01  5964   0.102E+00    0.358E+01
RMM:  16    -0.177389488803E+03    0.21161E+01   -0.79514E-01  5525   0.112E+00    0.109E+01
RMM:  17    -0.180640475758E+03   -0.32510E+01   -0.13259E+00  4633   0.165E+00    0.144E+01
RMM:  18    -0.181951745047E+03   -0.13113E+01   -0.64818E-01  4254   0.985E-01    0.118E+01
RMM:  19    -0.183618331564E+03   -0.16666E+01   -0.95172E-01  4212   0.111E+00    0.176E+01
RMM:  20    -0.183567203348E+03    0.51128E-01   -0.56680E-01  3977   0.747E-01    0.151E+01
RMM:  21    -0.185325196589E+03   -0.17580E+01   -0.94553E-01  4021   0.100E+00    0.179E+01
RMM:  22    -0.185177896155E+03    0.14730E+00   -0.70956E-01  4070   0.809E-01    0.103E+01
RMM:  23    -0.186204711002E+03   -0.10268E+01   -0.20375E+00  4237   0.128E+00    0.122E+01
RMM:  24    -0.186437700973E+03   -0.23299E+00   -0.10128E+01  4452   0.139E+00    0.104E+01
RMM:  25    -0.186717006644E+03   -0.27931E+00   -0.28138E+00  4185   0.156E+00    0.132E+01
RMM:  26    -0.186219832903E+03    0.49717E+00   -0.82864E+00  4149   0.119E+00    0.109E+01
RMM:  27    -0.186170109187E+03    0.49724E-01   -0.43811E+00  4110   0.136E+00    0.126E+01
RMM:  28    -0.186131961302E+03    0.38148E-01   -0.99759E-01  3860   0.792E-01    0.853E+00
RMM:  29    -0.185895311705E+03    0.23665E+00   -0.15514E+01  3653   0.167E+00    0.968E+00
RMM:  30    -0.185618988328E+03    0.27632E+00   -0.78261E+00  3518   0.112E+00    0.843E+00
RMM:  31    -0.185182391751E+03    0.43660E+00   -0.23848E+01  3665   0.186E+00    0.103E+01
RMM:  32    -0.184441030781E+03    0.74136E+00   -0.34273E+01  3760   0.197E+00    0.120E+01
RMM:  33    -0.185609273389E+03   -0.11682E+01   -0.31435E+01  3673   0.191E+00    0.108E+01
RMM:  34    -0.185206184468E+03    0.40309E+00   -0.42362E+01  3633   0.239E+00    0.117E+01
RMM:  35    -0.185495453630E+03   -0.28927E+00   -0.59621E+01  3614   0.298E+00    0.108E+01
RMM:  36    -0.185193344047E+03    0.30211E+00   -0.44798E+01  3553   0.244E+00    0.115E+01
RMM:  37    -0.185039903263E+03    0.15344E+00   -0.42757E+01  3559   0.256E+00    0.109E+01
RMM:  38    -0.185029975697E+03    0.99276E-02   -0.26088E+01  3552   0.187E+00    0.117E+01
RMM:  39    -0.184674601739E+03    0.35537E+00   -0.50343E+01  3704   0.271E+00    0.107E+01
RMM:  40    -0.184729086890E+03   -0.54485E-01   -0.30240E+01  3728   0.189E+00    0.117E+01
RMM:  41    -0.184685920017E+03    0.43167E-01   -0.34584E+01  3642   0.227E+00    0.105E+01
RMM:  42    -0.184589655285E+03    0.96265E-01   -0.33152E+01  3618   0.217E+00    0.116E+01
RMM:  43    -0.184994954949E+03   -0.40530E+00   -0.18180E+01  3625   0.172E+00    0.105E+01
RMM:  44    -0.185084558755E+03   -0.89604E-01   -0.36150E+01  3620   0.210E+00    0.120E+01
RMM:  45    -0.184825203167E+03    0.25936E+00   -0.52843E+01  3638   0.283E+00    0.109E+01
RMM:  46    -0.185068328756E+03   -0.24313E+00   -0.33837E+01  3629   0.218E+00    0.120E+01
RMM:  47    -0.184841430406E+03    0.22690E+00   -0.48257E+01  3675   0.264E+00    0.108E+01
RMM:  48    -0.184294513374E+03    0.54692E+00   -0.47391E+01  3638   0.262E+00    0.118E+01
RMM:  49    -0.185486245342E+03   -0.11917E+01   -0.32134E+01  3609   0.219E+00    0.106E+01
RMM:  50    -0.184656138988E+03    0.83011E+00   -0.36487E+01  3587   0.224E+00    0.122E+01
RMM:  51    -0.186096820133E+03   -0.14407E+01   -0.40350E+01  3663   0.246E+00    0.134E+01
RMM:  52    -0.185157033834E+03    0.93979E+00   -0.89320E+01  3559   0.410E+00    0.139E+01
RMM:  53    -0.184250853345E+03    0.90618E+00   -0.57207E+01  3529   0.299E+00    0.114E+01
RMM:  54    -0.183588772712E+03    0.66208E+00   -0.62920E+01  3506   0.298E+00    0.123E+01
RMM:  55    -0.183923759522E+03   -0.33499E+00   -0.30659E+01  3555   0.190E+00    0.109E+01
RMM:  56    -0.184056211146E+03   -0.13245E+00   -0.46211E+01  4142   0.269E+00    0.118E+01
RMM:  57    -0.184818685694E+03   -0.76247E+00   -0.50236E+01  4153   0.277E+00    0.108E+01
RMM:  58    -0.184907873069E+03   -0.89187E-01   -0.53960E+01  4105   0.292E+00    0.125E+01
RMM:  59    -0.184472696545E+03    0.43518E+00   -0.55949E+01  3856   0.312E+00    0.103E+01
RMM:  60    -0.183706423718E+03    0.76627E+00   -0.35414E+01  3629   0.213E+00    0.115E+01
RMM:  61    -0.184480384498E+03   -0.77396E+00   -0.29155E+01  3978   0.185E+00    0.102E+01
RMM:  62    -0.184307529962E+03    0.17285E+00   -0.43339E+01  3797   0.228E+00    0.116E+01
RMM:  63    -0.185151105663E+03   -0.84358E+00   -0.48574E+01  3641   0.255E+00    0.104E+01
RMM:  64    -0.184837182306E+03    0.31392E+00   -0.70893E+01  3586   0.336E+00    0.127E+01
RMM:  65    -0.183967057000E+03    0.87013E+00   -0.63287E+01  3569   0.320E+00    0.102E+01
RMM:  66    -0.184158835240E+03   -0.19178E+00   -0.41018E+01  3909   0.215E+00    0.116E+01
RMM:  67    -0.184291261959E+03   -0.13243E+00   -0.40610E+01  3749   0.231E+00    0.104E+01
RMM:  68    -0.184752045656E+03   -0.46078E+00   -0.43504E+01  3576   0.217E+00    0.116E+01
RMM:  69    -0.184573725481E+03    0.17832E+00   -0.56049E+01  3589   0.280E+00    0.102E+01
RMM:  70    -0.184661968930E+03   -0.88243E-01   -0.52721E+01  3568   0.274E+00    0.120E+01
RMM:  71    -0.184688262669E+03   -0.26294E-01   -0.54651E+01  5144   0.310E+00    0.104E+01
RMM:  72    -0.184369779125E+03    0.31848E+00   -0.49558E+01  4293   0.291E+00    0.130E+01
RMM:  73    -0.185133875084E+03   -0.76410E+00   -0.52670E+01  4204   0.288E+00    0.102E+01
RMM:  74    -0.184429602434E+03    0.70427E+00   -0.68513E+01  4046   0.334E+00    0.127E+01
RMM:  75    -0.184890995167E+03   -0.46139E+00   -0.42696E+01  3948   0.241E+00    0.101E+01
RMM:  76    -0.184992080247E+03   -0.10109E+00   -0.66854E+01  5460   0.366E+00    0.138E+01
RMM:  77    -0.184319269228E+03    0.67281E+00   -0.60768E+01  4457   0.359E+00    0.146E+01
RMM:  78    -0.184036966157E+03    0.28230E+00   -0.81134E+01  4440   0.396E+00    0.118E+01
RMM:  79    -0.184860839857E+03   -0.82387E+00   -0.45376E+01  4168   0.282E+00    0.120E+01
RMM:  80    -0.184859117703E+03    0.17222E-02   -0.73395E+01  4282   0.337E+00    0.104E+01
RMM:  81    -0.185481777857E+03   -0.62266E+00   -0.49685E+01  4190   0.269E+00    0.120E+01
RMM:  82    -0.185995604352E+03   -0.51383E+00   -0.64316E+01  4116   0.313E+00    0.108E+01
RMM:  83    -0.184804258163E+03    0.11913E+01   -0.51072E+01  4164   0.309E+00    0.110E+01
RMM:  84    -0.185749417844E+03   -0.94516E+00   -0.54106E+01  4038   0.274E+00    0.856E+00
RMM:  85    -0.186604965482E+03   -0.85555E+00   -0.42192E+01  3823   0.247E+00    0.131E+01
RMM:  86    -0.187161124327E+03   -0.55616E+00   -0.89891E+01  4035   0.396E+00    0.894E+00
RMM:  87    -0.185417660946E+03    0.17435E+01   -0.65783E+01  3887   0.342E+00    0.124E+01
RMM:  88    -0.186596571936E+03   -0.11789E+01   -0.74311E+01  3887   0.334E+00    0.692E+00
RMM:  89    -0.185902709007E+03    0.69386E+00   -0.45663E+01  3765   0.273E+00    0.123E+01
RMM:  90    -0.188083918415E+03   -0.21812E+01   -0.61133E+01  3740   0.313E+00    0.100E+01
RMM:  91    -0.185119644373E+03    0.29643E+01   -0.79520E+01  3924   0.393E+00    0.116E+01
RMM:  92    -0.188260037047E+03   -0.31404E+01   -0.64152E+01  4008   0.309E+00    0.107E+01
RMM:  93    -0.184687954856E+03    0.35721E+01   -0.10144E+02  3891   0.445E+00    0.112E+01
RMM:  94    -0.187013792822E+03   -0.23258E+01   -0.61432E+01  3914   0.296E+00    0.834E+00
RMM:  95    -0.185988723907E+03    0.10251E+01   -0.58328E+01  3712   0.313E+00    0.124E+01
RMM:  96    -0.187957153229E+03   -0.19684E+01   -0.73094E+01  4170   0.360E+00    0.112E+01
RMM:  97    -0.185724170816E+03    0.22330E+01   -0.99672E+01  4074   0.458E+00    0.137E+01
RMM:  98    -0.187430851659E+03   -0.17067E+01   -0.94833E+01  4063   0.421E+00    0.117E+01
RMM:  99    -0.184803415000E+03    0.26274E+01   -0.76977E+01  3841   0.404E+00    0.120E+01
RMM: 100    -0.186631652583E+03   -0.18282E+01   -0.77194E+01  3792   0.358E+00 

 ----------------------------------------------------------------------------- 
|                                                                             |
|           W    W    AA    RRRRR   N    N  II  N    N   GGGG   !!!           |
|           W    W   A  A   R    R  NN   N  II  NN   N  G    G  !!!           |
|           W    W  A    A  R    R  N N  N  II  N N  N  G       !!!           |
|           W WW W  AAAAAA  RRRRR   N  N N  II  N  N N  G  GGG   !            |
|           WW  WW  A    A  R   R   N   NN  II  N   NN  G    G                |
|           W    W  A    A  R    R  N    N  II  N    N   GGGG   !!!           |
|                                                                             |
|      Your highest band is occupied at some k-points! Unless you are         |
|      performing a calculation for an insulator or semiconductor, without    |
|      unoccupied bands, you have included TOO FEW BANDS!! Please increase    |
|      the parameter NBANDS in file 'INCAR' to ensure that the highest band   |
|      is unoccupied at all k-points. It is always recommended to             |
|      include a few unoccupied bands to accelerate the convergence of        |
|      molecular dynamics runs (even for insulators or semiconductors).       |
|      Because the presence of unoccupied bands improves wavefunction         |
|      prediction, and helps to suppress 'band-crossings.'                    |
|                                                                             |
 ----------------------------------------------------------------------------- 

   1 F= -.18663165E+03 E0= -.18605478E+03  d E =-.186632E+03  mag=    -0.5991
 curvature:   0.00 expect dE= 0.000E+00 dE for cont linesearch  0.000E+00
 trial: gam= 0.00000 g(F)=  0.642E-01 g(S)=  0.224E+01 ort = 0.000E+00 (trialstep = 0.100E+01)
 search vector abs. value=  0.231E+01
 bond charge predicted
       N       E                     dE             d eps       ncg     rms          rms(c)
DAV:   1    -0.304387996500E+03   -0.11958E+03   -0.16017E+03  4712   0.188E+02    0.110E+02
RMM:   2    -0.180924617845E+04   -0.15049E+04   -0.39922E+03  5810   0.110E+02    0.174E+02
RMM:   3    -0.452868309393E+03    0.13564E+04   -0.49963E+02  5667   0.413E+01    0.118E+02
RMM:   4    -0.197004175825E+03    0.25586E+03   -0.20614E+02  5898   0.331E+01    0.854E+01
RMM:   5    -0.445294737464E+03   -0.24829E+03   -0.24612E+02  5597   0.344E+01    0.116E+02
RMM:   6    -0.290637535920E+03    0.15466E+03   -0.30850E+01  5777   0.866E+00    0.109E+02
RMM:   7    -0.176448444149E+03    0.11419E+03   -0.33014E+01  6212   0.657E+00    0.420E+01
RMM:   8    -0.175862160420E+03    0.58628E+00   -0.38024E+00  5571   0.498E+00    0.358E+01
RMM:   9    -0.171935236836E+03    0.39269E+01   -0.83326E-01  6561   0.118E+00    0.719E+00
RMM:  10    -0.172051971261E+03   -0.11673E+00   -0.16139E-01  5184   0.669E-01    0.608E+00
RMM:  11    -0.172685968857E+03   -0.63400E+00   -0.98828E-02  4496   0.505E-01    0.726E+00
RMM:  12    -0.174188417124E+03   -0.15024E+01   -0.14827E-01  4008   0.493E-01    0.907E+00
RMM:  13    -0.176157913524E+03   -0.19695E+01   -0.29114E-01  3912   0.619E-01    0.131E+01
RMM:  14    -0.177638677146E+03   -0.14808E+01   -0.40944E-01  3777   0.620E-01    0.116E+01
RMM:  15    -0.179039246670E+03   -0.14006E+01   -0.81147E-01  3787   0.805E-01    0.132E+01
RMM:  16    -0.179943138080E+03   -0.90389E+00   -0.66008E-01  3786   0.708E-01    0.126E+01
RMM:  17    -0.182612550197E+03   -0.26694E+01   -0.67852E+00  4448   0.172E+00    0.217E+01
RMM:  18    -0.181666855199E+03    0.94569E+00   -0.11358E+00  4416   0.120E+00    0.155E+01
RMM:  19    -0.182207283999E+03   -0.54043E+00   -0.62830E+00  4361   0.130E+00    0.142E+01
RMM:  20    -0.183308212564E+03   -0.11009E+01   -0.32568E+01  4048   0.212E+00    0.117E+01
RMM:  21    -0.184277774545E+03   -0.96956E+00   -0.15596E+01  4256   0.224E+00    0.169E+01
RMM:  22    -0.185855604302E+03   -0.15778E+01   -0.26121E+01  4437   0.199E+00    0.141E+01
RMM:  23    -0.184537396380E+03    0.13182E+01   -0.12683E+01  3980   0.155E+00    0.176E+01
RMM:  24    -0.186842548848E+03   -0.23052E+01   -0.12822E+01  4078   0.167E+00    0.155E+01
RMM:  25    -0.186670605736E+03    0.17194E+00   -0.12577E+01  4469   0.165E+00    0.201E+01
RMM:  26    -0.186046717168E+03    0.62389E+00   -0.20119E+01  4877   0.194E+00    0.976E+00
RMM:  27    -0.184758463043E+03    0.12883E+01   -0.24561E+01  4286   0.274E+00    0.105E+01
RMM:  28    -0.185704885102E+03   -0.94642E+00   -0.14263E+01  4167   0.146E+00    0.104E+01
RMM:  29    -0.185747104037E+03   -0.42219E-01   -0.47368E+01  4454   0.329E+00    0.142E+01
RMM:  30    -0.183782014940E+03    0.19651E+01   -0.32403E+01  4370   0.295E+00    0.110E+01
RMM:  31    -0.183986400567E+03   -0.20439E+00   -0.50360E+01  4518   0.320E+00    0.131E+01
RMM:  32    -0.184029835815E+03   -0.43435E-01   -0.16091E+01  4208   0.195E+00    0.140E+01
RMM:  33    -0.184949957745E+03   -0.92012E+00   -0.88520E+00  3996   0.131E+00    0.132E+01
RMM:  34    -0.184155041071E+03    0.79492E+00   -0.11652E+01  3733   0.173E+00    0.122E+01
RMM:  35    -0.184057910839E+03    0.97130E-01   -0.27748E+01  3847   0.205E+00    0.120E+01
RMM:  36    -0.183713778395E+03    0.34413E+00   -0.29546E+01  3671   0.225E+00    0.120E+01
RMM:  37    -0.183493344132E+03    0.22043E+00   -0.20489E+01  3697   0.178E+00    0.129E+01
RMM:  38    -0.183805734451E+03   -0.31239E+00   -0.18059E+01  3705   0.165E+00    0.118E+01
RMM:  39    -0.183222321052E+03    0.58341E+00   -0.33962E+01  3806   0.224E+00    0.132E+01
RMM:  40    -0.183704188445E+03   -0.48187E+00   -0.18292E+01  3707   0.155E+00    0.114E+01
RMM:  41    -0.182882974332E+03    0.82121E+00   -0.34092E+01  3697   0.221E+00    0.120E+01
RMM:  42    -0.183149181113E+03   -0.26621E+00   -0.17328E+01  3676   0.172E+00    0.115E+01
RMM:  43    -0.183478620236E+03   -0.32944E+00   -0.19652E+01  3690   0.165E+00    0.113E+01
RMM:  44    -0.182176854385E+03    0.13018E+01   -0.42280E+01  3638   0.259E+00    0.115E+01
RMM:  45    -0.182633391136E+03   -0.45654E+00   -0.31725E+01  3656   0.202E+00    0.117E+01
RMM:  46    -0.182197833785E+03    0.43556E+00   -0.25007E+01  3637   0.187E+00    0.115E+01
RMM:  47    -0.182303654510E+03   -0.10582E+00   -0.31623E+01  4160   0.218E+00    0.137E+01
RMM:  48    -0.182732337537E+03   -0.42868E+00   -0.10729E+01  4009   0.133E+00    0.144E+01
RMM:  49    -0.183139692311E+03   -0.40735E+00   -0.17142E+01  3757   0.152E+00    0.139E+01
RMM:  50    -0.183779065456E+03   -0.63937E+00   -0.16294E+01  3684   0.152E+00    0.132E+01
RMM:  51    -0.183094025489E+03    0.68504E+00   -0.40609E+01  3765   0.248E+00    0.139E+01
RMM:  52    -0.183682662519E+03   -0.58864E+00   -0.10115E+01  3954   0.143E+00    0.131E+01
RMM:  53    -0.183966131739E+03   -0.28347E+00   -0.34208E+01  3908   0.234E+00    0.135E+01
RMM:  54    -0.183958987028E+03    0.71447E-02   -0.27946E+01  3747   0.227E+00    0.141E+01
RMM:  55    -0.183718373270E+03    0.24061E+00   -0.29734E+01  3710   0.210E+00    0.138E+01
RMM:  56    -0.184268272261E+03   -0.54990E+00   -0.19770E+01  3715   0.177E+00    0.132E+01
RMM:  57    -0.184396635555E+03   -0.12836E+00   -0.35785E+01  4186   0.262E+00    0.132E+01
RMM:  58    -0.184889501874E+03   -0.49287E+00   -0.40237E+01  4181   0.292E+00    0.141E+01
RMM:  59    -0.185073214712E+03   -0.18371E+00   -0.42819E+01  4162   0.260E+00    0.140E+01
RMM:  60    -0.185147980926E+03   -0.74766E-01   -0.16646E+01  4011   0.187E+00    0.143E+01
RMM:  61    -0.185780999661E+03   -0.63302E+00   -0.28970E+01  3899   0.196E+00    0.137E+01
RMM:  62    -0.185538865949E+03    0.24213E+00   -0.30138E+01  4171   0.252E+00    0.127E+01
RMM:  63    -0.185487206105E+03    0.51660E-01   -0.29229E+01  4206   0.241E+00    0.138E+01
RMM:  64    -0.186099973973E+03   -0.61277E+00   -0.23147E+01  4055   0.216E+00    0.131E+01
RMM:  65    -0.186370754749E+03   -0.27078E+00   -0.42135E+01  4129   0.271E+00    0.135E+01
RMM:  66    -0.186124893598E+03    0.24586E+00   -0.36819E+01  4161   0.273E+00    0.137E+01
RMM:  67    -0.186385884302E+03   -0.26099E+00   -0.26708E+01  4875   0.252E+00    0.134E+01
RMM:  68    -0.186811952392E+03   -0.42607E+00   -0.26673E+01  4300   0.264E+00    0.134E+01
RMM:  69    -0.187251730968E+03   -0.43978E+00   -0.28202E+01  4299   0.238E+00    0.136E+01
RMM:  70    -0.186581728177E+03    0.67000E+00   -0.33681E+01  4270   0.269E+00    0.136E+01
RMM:  71    -0.186753985142E+03   -0.17226E+00   -0.27265E+01  4227   0.233E+00    0.135E+01
RMM:  72    -0.185968358487E+03    0.78563E+00   -0.43759E+01  5155   0.331E+00    0.157E+01
RMM:  73    -0.185045680691E+03    0.92268E+00   -0.10559E+01  4416   0.164E+00    0.147E+01
RMM:  74    -0.185635130207E+03   -0.58945E+00   -0.95075E+00  4320   0.151E+00    0.147E+01
RMM:  75    -0.186714899102E+03   -0.10798E+01   -0.31217E+01  4088   0.228E+00    0.142E+01
RMM:  76    -0.186578436637E+03    0.13646E+00   -0.35514E+01  3931   0.252E+00    0.150E+01
RMM:  77    -0.185964626422E+03    0.61381E+00   -0.18462E+01  5396   0.236E+00    0.140E+01
RMM:  78    -0.186727743363E+03   -0.76312E+00   -0.31558E+01  4621   0.269E+00    0.138E+01
RMM:  79    -0.187202976514E+03   -0.47523E+00   -0.32159E+01  4400   0.263E+00    0.134E+01
RMM:  80    -0.186951431164E+03    0.25155E+00   -0.23686E+01  4354   0.241E+00    0.123E+01
RMM:  81    -0.187187715094E+03   -0.23628E+00   -0.27559E+01  4378   0.239E+00    0.125E+01
RMM:  82    -0.186499570455E+03    0.68814E+00   -0.27183E+01  5124   0.256E+00    0.121E+01
RMM:  83    -0.186413741412E+03    0.85829E-01   -0.46775E+01  4317   0.305E+00    0.123E+01
RMM:  84    -0.186374463283E+03    0.39278E-01   -0.37468E+01  4388   0.280E+00    0.117E+01
RMM:  85    -0.186844012290E+03   -0.46955E+00   -0.25518E+01  4129   0.232E+00    0.136E+01
RMM:  86    -0.185578405028E+03    0.12656E+01   -0.48281E+01  4185   0.309E+00    0.127E+01
RMM:  87    -0.184562419121E+03    0.10160E+01   -0.50438E+01  5302   0.393E+00    0.127E+01
RMM:  88    -0.185367936737E+03   -0.80552E+00   -0.33807E+01  4747   0.290E+00    0.137E+01
RMM:  89    -0.185364369573E+03    0.35672E-02   -0.37989E+01  4421   0.284E+00    0.146E+01
RMM:  90    -0.184527214336E+03    0.83716E+00   -0.45573E+01  4141   0.296E+00    0.136E+01
RMM:  91    -0.185093405457E+03   -0.56619E+00   -0.42942E+01  4256   0.293E+00    0.152E+01
RMM:  92    -0.184055891221E+03    0.10375E+01   -0.43189E+01  5412   0.345E+00    0.118E+01
RMM:  93    -0.185017900889E+03   -0.96201E+00   -0.26170E+01  4420   0.255E+00    0.132E+01
RMM:  94    -0.184982137136E+03    0.35764E-01   -0.41576E+01  4393   0.285E+00    0.138E+01
RMM:  95    -0.184064686914E+03    0.91745E+00   -0.54962E+01  4215   0.322E+00    0.147E+01
RMM:  96    -0.183638461547E+03    0.42623E+00   -0.41616E+01  4022   0.281E+00    0.129E+01
RMM:  97    -0.184548887116E+03   -0.91043E+00   -0.32202E+01  5291   0.281E+00    0.238E+01
RMM:  98    -0.182029206776E+03    0.25197E+01   -0.70209E+01  4447   0.441E+00    0.202E+01
RMM:  99    -0.181308493424E+03    0.72071E+00   -0.55608E+01  4493   0.343E+00    0.154E+01
RMM: 100    -0.183152722801E+03   -0.18442E+01   -0.29405E+01  4177   0.238E+00 

 ----------------------------------------------------------------------------- 
|                                                                             |
|           W    W    AA    RRRRR   N    N  II  N    N   GGGG   !!!           |
|           W    W   A  A   R    R  NN   N  II  NN   N  G    G  !!!           |
|           W    W  A    A  R    R  N N  N  II  N N  N  G       !!!           |
|           W WW W  AAAAAA  RRRRR   N  N N  II  N  N N  G  GGG   !            |
|           WW  WW  A    A  R   R   N   NN  II  N   NN  G    G                |
|           W    W  A    A  R    R  N    N  II  N    N   GGGG   !!!           |
|                                                                             |
|      Your highest band is occupied at some k-points! Unless you are         |
|      performing a calculation for an insulator or semiconductor, without    |
|      unoccupied bands, you have included TOO FEW BANDS!! Please increase    |
|      the parameter NBANDS in file 'INCAR' to ensure that the highest band   |
|      is unoccupied at all k-points. It is always recommended to             |
|      include a few unoccupied bands to accelerate the convergence of        |
|      molecular dynamics runs (even for insulators or semiconductors).       |
|      Because the presence of unoccupied bands improves wavefunction         |
|      prediction, and helps to suppress 'band-crossings.'                    |
|                                                                             |
 ----------------------------------------------------------------------------- 

   2 F= -.18315272E+03 E0= -.18270371E+03  d E =0.347893E+01  mag=    -1.0093
 ZBRENT: can't locate minimum, use default step
 trial-energy change:    3.478930  1 .order   -4.689222   -2.305866   -7.072578
 step:   4.0000(harm=  4.0000)  dis= 0.04839  next Energy=  -233.988813 (dE=-0.474E+02)
 bond charge predicted
       N       E                     dE             d eps       ncg     rms          rms(c)
DAV:   1    -0.106365360958E+04   -0.88235E+03   -0.13962E+04  5152   0.528E+02    0.208E+02
RMM:   2    -0.314533747125E+01    0.10605E+04   -0.30144E+02  6349   0.395E+02    0.659E+01
RMM:   3    -0.198444355134E+03   -0.19530E+03   -0.23813E+03  5510   0.252E+02    0.376E+01
RMM:   4    -0.130991071253E+03    0.67453E+02   -0.37025E+03  5501   0.164E+02    0.775E+01
RMM:   5    -0.243780697112E+03   -0.11279E+03   -0.46968E+02  6899   0.567E+01    0.793E+01
RMM:   6    -0.118710184988E+03    0.12507E+03   -0.19586E+02  6480   0.274E+01    0.344E+01
RMM:   7    -0.130233201814E+03   -0.11523E+02   -0.76445E+01  7074   0.128E+01    0.550E+01
RMM:   8    -0.147944945906E+03   -0.17712E+02   -0.70723E+01  7280   0.828E+00    0.735E+01
RMM:   9    -0.148678196560E+03   -0.73325E+00   -0.12501E+01  7701   0.412E+00    0.774E+01
RMM:  10    -0.152051515019E+03   -0.33733E+01   -0.46368E+00  7725   0.270E+00    0.850E+01
RMM:  11    -0.123273614883E+03    0.28778E+02   -0.11031E+01  6093   0.391E+00    0.563E+01
RMM:  12    -0.123307773403E+03   -0.34159E-01   -0.27440E+00  6399   0.337E+00    0.611E+01
RMM:  13    -0.123708895364E+03   -0.40112E+00   -0.16748E+00  7290   0.133E+00    0.540E+01
RMM:  14    -0.132500996412E+03   -0.87921E+01   -0.46404E+00  6313   0.211E+00    0.530E+01
RMM:  15    -0.129801968085E+03    0.26990E+01   -0.12129E+01  6057   0.234E+00    0.489E+01
RMM:  16    -0.125847867916E+03    0.39541E+01   -0.19006E+01  6118   0.397E+00    0.427E+01
RMM:  17    -0.124863459733E+03    0.98441E+00   -0.22224E+00  5487   0.205E+00    0.352E+01
RMM:  18    -0.125820837369E+03   -0.95738E+00   -0.13433E+00  4967   0.978E-01    0.314E+01
RMM:  19    -0.126445967775E+03   -0.62513E+00   -0.83376E+00  4556   0.124E+00    0.301E+01
RMM:  20    -0.126760424338E+03   -0.31446E+00   -0.13413E+01  4259   0.151E+00    0.286E+01
RMM:  21    -0.126456784875E+03    0.30364E+00   -0.62736E+00  3889   0.112E+00    0.291E+01
RMM:  22    -0.126454049394E+03    0.27355E-02   -0.93148E+00  3990   0.104E+00    0.290E+01
RMM:  23    -0.125617204423E+03    0.83684E+00   -0.59660E+00  3679   0.888E-01    0.280E+01
RMM:  24    -0.126839053779E+03   -0.12218E+01   -0.10506E+01  3651   0.120E+00    0.258E+01
RMM:  25    -0.126585629343E+03    0.25342E+00   -0.14526E+01  3773   0.142E+00    0.250E+01
RMM:  26    -0.126708568872E+03   -0.12294E+00   -0.30593E+01  3546   0.196E+00    0.245E+01
RMM:  27    -0.126837940042E+03   -0.12937E+00   -0.18916E+01  3490   0.189E+00    0.254E+01
RMM:  28    -0.126544747675E+03    0.29319E+00   -0.18400E+01  4051   0.181E+00    0.276E+01
RMM:  29    -0.126733627061E+03   -0.18888E+00   -0.17217E+01  3545   0.175E+00    0.281E+01
RMM:  30    -0.127513184215E+03   -0.77956E+00   -0.12169E+01  4406   0.150E+00    0.313E+01
RMM:  31    -0.127878666129E+03   -0.36548E+00   -0.28352E+01  4410   0.215E+00    0.334E+01
RMM:  32    -0.128122755367E+03   -0.24409E+00   -0.28592E+01  4594   0.230E+00    0.326E+01
RMM:  33    -0.130994175685E+03   -0.28714E+01   -0.21504E+01  4989   0.234E+00    0.363E+01
RMM:  34    -0.133015900421E+03   -0.20217E+01   -0.36123E+01  4579   0.321E+00    0.397E+01
RMM:  35    -0.130815025139E+03    0.22009E+01   -0.34960E+01  4220   0.316E+00    0.356E+01
RMM:  36    -0.129796157641E+03    0.10189E+01   -0.25867E+01  3792   0.241E+00    0.380E+01
RMM:  37    -0.129519713381E+03    0.27644E+00   -0.27836E+01  4079   0.258E+00    0.405E+01
RMM:  38    -0.130381485219E+03   -0.86177E+00   -0.20894E+01  4297   0.222E+00    0.427E+01
RMM:  39    -0.130920066592E+03   -0.53858E+00   -0.20067E+01  4102   0.182E+00    0.425E+01
RMM:  40    -0.130656554150E+03    0.26351E+00   -0.20771E+01  4103   0.194E+00    0.412E+01
RMM:  41    -0.129615636883E+03    0.10409E+01   -0.24033E+01  3516   0.210E+00    0.407E+01
RMM:  42    -0.128222138486E+03    0.13935E+01   -0.25143E+01  3919   0.218E+00    0.388E+01
RMM:  43    -0.128338517962E+03   -0.11638E+00   -0.18806E+01  4129   0.174E+00    0.394E+01
RMM:  44    -0.127333344837E+03    0.10052E+01   -0.15634E+01  3866   0.138E+00    0.364E+01
RMM:  45    -0.127583704319E+03   -0.25036E+00   -0.80476E+00  3374   0.103E+00    0.365E+01
RMM:  46    -0.128141260058E+03   -0.55756E+00   -0.13551E+01  3173   0.125E+00    0.363E+01
RMM:  47    -0.127964211327E+03    0.17705E+00   -0.12887E+01  3645   0.131E+00    0.366E+01
RMM:  48    -0.130401743676E+03   -0.24375E+01   -0.12668E+01  3460   0.131E+00    0.369E+01
RMM:  49    -0.128244180860E+03    0.21576E+01   -0.17541E+01  3219   0.167E+00    0.381E+01
RMM:  50    -0.127805984974E+03    0.43820E+00   -0.19689E+01  3590   0.171E+00    0.368E+01
RMM:  51    -0.126627223796E+03    0.11788E+01   -0.18457E+01  3494   0.159E+00    0.359E+01
RMM:  52    -0.124403989080E+03    0.22232E+01   -0.18224E+01  5903   0.446E+00    0.227E+01
RMM:  53    -0.124415551109E+03   -0.11562E-01   -0.14036E+01  6113   0.222E+00    0.200E+01
RMM:  54    -0.124839787605E+03   -0.42424E+00   -0.16923E+01  5252   0.170E+00    0.178E+01
RMM:  55    -0.124776003694E+03    0.63784E-01   -0.15876E+01  4580   0.161E+00    0.183E+01
RMM:  56    -0.124635847472E+03    0.14016E+00   -0.19528E+01  3874   0.147E+00    0.167E+01
RMM:  57    -0.127447630985E+03   -0.28118E+01   -0.13003E+01  4485   0.135E+00    0.171E+01
RMM:  58    -0.124866913908E+03    0.25807E+01   -0.29715E+01  4232   0.228E+00    0.165E+01
RMM:  59    -0.125441396724E+03   -0.57448E+00   -0.20083E+01  5213   0.225E+00    0.181E+01
RMM:  60    -0.126115520700E+03   -0.67412E+00   -0.23111E+01  4185   0.209E+00    0.201E+01
RMM:  61    -0.125548367568E+03    0.56715E+00   -0.11393E+01  3974   0.153E+00    0.206E+01
RMM:  62    -0.125550303244E+03   -0.19357E-02   -0.28720E+01  5642   0.625E+00    0.182E+01
RMM:  63    -0.127119055913E+03   -0.15688E+01   -0.15515E+01  6422   0.351E+00    0.333E+01
RMM:  64    -0.128537883440E+03   -0.14188E+01   -0.73370E+00  5768   0.198E+00    0.361E+01
RMM:  65    -0.130821483852E+03   -0.22836E+01   -0.90834E+00  5682   0.201E+00    0.373E+01
RMM:  66    -0.129329150266E+03    0.14923E+01   -0.26235E+01  4818   0.219E+00    0.395E+01
RMM:  67    -0.128639520704E+03    0.68963E+00   -0.44732E+00  5481   0.138E+00    0.354E+01
RMM:  68    -0.128515853471E+03    0.12367E+00   -0.15922E+01  4547   0.167E+00    0.309E+01
RMM:  69    -0.128194549385E+03    0.32130E+00   -0.22266E+01  4444   0.187E+00    0.288E+01
RMM:  70    -0.127502982007E+03    0.69157E+00   -0.23017E+01  4293   0.207E+00    0.295E+01
RMM:  71    -0.127209612049E+03    0.29337E+00   -0.12937E+01  4130   0.123E+00    0.292E+01
RMM:  72    -0.127845487321E+03   -0.63588E+00   -0.87384E+00  4196   0.117E+00    0.289E+01
RMM:  73    -0.127970087253E+03   -0.12460E+00   -0.10713E+01  4332   0.132E+00    0.261E+01
RMM:  74    -0.127900444910E+03    0.69642E-01   -0.11379E+01  4373   0.139E+00    0.228E+01
RMM:  75    -0.127838886402E+03    0.61559E-01   -0.15571E+01  4198   0.152E+00    0.188E+01
RMM:  76    -0.129051593044E+03   -0.12127E+01   -0.17505E+01  3451   0.145E+00    0.167E+01
RMM:  77    -0.126811877597E+03    0.22397E+01   -0.36489E+01  5525   0.297E+00    0.125E+01
RMM:  78    -0.126369612778E+03    0.44226E+00   -0.27074E+01  4564   0.244E+00    0.172E+01
RMM:  79    -0.126834665281E+03   -0.46505E+00   -0.74499E+00  4878   0.122E+00    0.189E+01
RMM:  80    -0.127233512462E+03   -0.39885E+00   -0.11738E+01  3939   0.146E+00    0.230E+01
RMM:  81    -0.128717466055E+03   -0.14840E+01   -0.20522E+01  3301   0.163E+00    0.219E+01
RMM:  82    -0.128010010628E+03    0.70746E+00   -0.37153E+01  5297   0.292E+00    0.209E+01
RMM:  83    -0.126395825406E+03    0.16142E+01   -0.25044E+01  4470   0.244E+00    0.223E+01
RMM:  84    -0.126870513124E+03   -0.47469E+00   -0.19817E+01  4014   0.174E+00    0.224E+01
RMM:  85    -0.126767098614E+03    0.10341E+00   -0.23469E+01  4064   0.215E+00    0.235E+01
RMM:  86    -0.126267068449E+03    0.50003E+00   -0.21992E+01  3982   0.187E+00    0.218E+01
RMM:  87    -0.127487529140E+03   -0.12205E+01   -0.25702E+01  5268   0.237E+00    0.158E+01
RMM:  88    -0.125136397783E+03    0.23511E+01   -0.21016E+01  4470   0.238E+00    0.149E+01
RMM:  89    -0.125451166640E+03   -0.31477E+00   -0.15062E+01  4214   0.144E+00    0.879E+00
RMM:  90    -0.126634751848E+03   -0.11836E+01   -0.14316E+01  3982   0.151E+00    0.755E+00
RMM:  91    -0.126459871578E+03    0.17488E+00   -0.18494E+01  3844   0.170E+00    0.875E+00
RMM:  92    -0.126119205412E+03    0.34067E+00   -0.21259E+01  3926   0.182E+00    0.861E+00
RMM:  93    -0.126459234031E+03   -0.34003E+00   -0.24638E+01  3915   0.189E+00    0.847E+00
RMM:  94    -0.125934627686E+03    0.52461E+00   -0.21592E+01  3635   0.178E+00    0.949E+00
RMM:  95    -0.127017144728E+03   -0.10825E+01   -0.28573E+01  3352   0.185E+00    0.931E+00
RMM:  96    -0.126090742451E+03    0.92640E+00   -0.24152E+01  3271   0.170E+00    0.101E+01
RMM:  97    -0.126668079738E+03   -0.57734E+00   -0.16184E+01  3464   0.145E+00    0.959E+00
RMM:  98    -0.125792451139E+03    0.87563E+00   -0.16859E+01  3201   0.145E+00    0.103E+01
RMM:  99    -0.126568065052E+03   -0.77561E+00   -0.22177E+01  3175   0.154E+00    0.945E+00
RMM: 100    -0.125943779297E+03    0.62429E+00   -0.28183E+01  3050   0.168E+00 
   3 F= -.12594378E+03 E0= -.12570344E+03  d E =0.606879E+02  mag=     4.5442
 curvature:  -1.97 expect dE=-0.215E+04 dE for cont linesearch -0.205E+04
 ZBRENT: interpolating
 opt :   1.3783  next Energy=  -184.490669 (dE= 0.214E+01)
 bond charge predicted
       N       E                     dE             d eps       ncg     rms          rms(c)
DAV:   1    -0.861648214969E+03   -0.73508E+03   -0.13043E+04  4520   0.675E+02    0.180E+02
RMM:   2    -0.170388205399E+04   -0.84223E+03   -0.15305E+03  5078   0.162E+02    0.157E+02
RMM:   3    -0.341043490288E+03    0.13628E+04   -0.78405E+02  6416   0.935E+01    0.974E+01
RMM:   4    -0.135017289975E+04   -0.10091E+04   -0.30891E+03  5949   0.910E+01    0.156E+02
RMM:   5    -0.456796011812E+03    0.89338E+03   -0.40639E+02  5505   0.389E+01    0.125E+02
RMM:   6    -0.221309547841E+03    0.23549E+03   -0.13323E+02  6394   0.203E+01    0.852E+01
RMM:   7    -0.249586506698E+03   -0.28277E+02   -0.96022E+01  5330   0.272E+01    0.106E+02
RMM:   8    -0.267973026377E+03   -0.18387E+02   -0.35853E+01  6884   0.700E+00    0.921E+01
RMM:   9    -0.223479777259E+03    0.44493E+02   -0.23329E+02  5803   0.199E+01    0.102E+02
RMM:  10    -0.171857955303E+03    0.51622E+02   -0.25818E+01  6086   0.818E+00    0.162E+01
RMM:  11    -0.169611893800E+03    0.22461E+01   -0.11644E+01  6231   0.432E+00    0.110E+01
RMM:  12    -0.170600662520E+03   -0.98877E+00   -0.16244E+00  5156   0.109E+00    0.189E+01
RMM:  13    -0.169884364269E+03    0.71630E+00   -0.89113E-01  4858   0.105E+00    0.132E+01
RMM:  14    -0.170352218672E+03   -0.46785E+00   -0.28060E-01  4668   0.485E-01    0.120E+01
RMM:  15    -0.172774724653E+03   -0.24225E+01   -0.35413E-01  4558   0.625E-01    0.136E+01
RMM:  16    -0.176148051237E+03   -0.33733E+01   -0.55891E-01  4506   0.618E-01    0.112E+01
RMM:  17    -0.180807898422E+03   -0.46598E+01   -0.13009E+01  4507   0.122E+00    0.941E+00
RMM:  18    -0.182843838164E+03   -0.20359E+01   -0.34362E+01  4635   0.310E+00    0.188E+01
RMM:  19    -0.185912822617E+03   -0.30690E+01   -0.15599E+02  4692   0.664E+00    0.177E+01
RMM:  20    -0.180803261318E+03    0.51096E+01   -0.11584E+02  4531   0.576E+00    0.105E+01
RMM:  21    -0.181675805978E+03   -0.87254E+00   -0.57732E+01  4202   0.336E+00    0.112E+01
RMM:  22    -0.183033865809E+03   -0.13581E+01   -0.11162E+01  3904   0.183E+00    0.122E+01
RMM:  23    -0.186305324495E+03   -0.32715E+01   -0.24425E+01  3863   0.224E+00    0.109E+01
RMM:  24    -0.184192341741E+03    0.21130E+01   -0.67921E+01  3694   0.403E+00    0.128E+01
RMM:  25    -0.184353507892E+03   -0.16117E+00   -0.35433E+01  3985   0.285E+00    0.141E+01
RMM:  26    -0.185268109127E+03   -0.91460E+00   -0.26979E+01  3836   0.246E+00    0.146E+01
RMM:  27    -0.185340646048E+03   -0.72537E-01   -0.19395E+01  3922   0.218E+00    0.151E+01
RMM:  28    -0.185782239200E+03   -0.44159E+00   -0.23207E+01  3871   0.245E+00    0.150E+01
RMM:  29    -0.186059890479E+03   -0.27765E+00   -0.32118E+01  4291   0.273E+00    0.158E+01
RMM:  30    -0.186469662745E+03   -0.40977E+00   -0.26526E+01  4338   0.260E+00    0.155E+01
RMM:  31    -0.186423529991E+03    0.46133E-01   -0.29664E+01  4252   0.273E+00    0.164E+01
RMM:  32    -0.187715592562E+03   -0.12921E+01   -0.26652E+01  4585   0.287E+00    0.248E+01
RMM:  33    -0.184964668928E+03    0.27509E+01   -0.92889E+00  4411   0.175E+00    0.246E+01
RMM:  34    -0.185383622190E+03   -0.41895E+00   -0.17504E+01  4646   0.200E+00    0.240E+01
RMM:  35    -0.186540320201E+03   -0.11567E+01   -0.23741E+01  4476   0.228E+00    0.307E+01
RMM:  36    -0.184809240637E+03    0.17311E+01   -0.22199E+01  4658   0.226E+00    0.216E+01
RMM:  37    -0.184526173081E+03    0.28307E+00   -0.40441E+01  4859   0.285E+00    0.193E+01
RMM:  38    -0.185703314645E+03   -0.11771E+01   -0.31156E+01  4279   0.258E+00    0.226E+01
RMM:  39    -0.184146867356E+03    0.15564E+01   -0.35636E+01  4214   0.251E+00    0.193E+01
RMM:  40    -0.184087447785E+03    0.59420E-01   -0.46693E+01  4120   0.299E+00    0.231E+01
RMM:  41    -0.182964453240E+03    0.11230E+01   -0.18228E+01  3945   0.175E+00    0.233E+01
RMM:  42    -0.183658506754E+03   -0.69405E+00   -0.25836E+01  3772   0.192E+00    0.217E+01
RMM:  43    -0.182823260342E+03    0.83525E+00   -0.47537E+01  3817   0.276E+00    0.230E+01
RMM:  44    -0.183269868894E+03   -0.44661E+00   -0.28961E+01  3839   0.202E+00    0.229E+01
RMM:  45    -0.182919119301E+03    0.35075E+00   -0.41475E+01  3827   0.246E+00    0.228E+01
RMM:  46    -0.182874492331E+03    0.44627E-01   -0.44896E+01  3765   0.258E+00    0.243E+01
RMM:  47    -0.180556619880E+03    0.23179E+01   -0.24097E+01  4876   0.197E+00    0.112E+01
RMM:  48    -0.181087354356E+03   -0.53073E+00   -0.57698E+01  4501   0.315E+00    0.167E+01
RMM:  49    -0.181841579770E+03   -0.75423E+00   -0.19470E+01  4123   0.170E+00    0.875E+00
RMM:  50    -0.181520954453E+03    0.32063E+00   -0.55886E+01  3854   0.323E+00    0.182E+01
RMM:  51    -0.181294673334E+03    0.22628E+00   -0.26277E+01  3801   0.184E+00    0.780E+00
RMM:  52    -0.183329917020E+03   -0.20352E+01   -0.44489E+01  4466   0.328E+00    0.243E+01
RMM:  53    -0.182064227355E+03    0.12657E+01   -0.22406E+01  4422   0.179E+00    0.263E+01
RMM:  54    -0.181561702627E+03    0.50252E+00   -0.12073E+01  4287   0.149E+00    0.270E+01
RMM:  55    -0.181788884329E+03   -0.22718E+00   -0.21053E+01  4002   0.181E+00    0.184E+01
RMM:  56    -0.181506965771E+03    0.28192E+00   -0.56795E+01  3749   0.311E+00    0.272E+01
RMM:  57    -0.179418033898E+03    0.20889E+01   -0.15576E+01  4631   0.176E+00    0.150E+01
RMM:  58    -0.181347125468E+03   -0.19291E+01   -0.25777E+01  4365   0.211E+00    0.193E+01
RMM:  59    -0.181492179634E+03   -0.14505E+00   -0.39176E+01  4137   0.250E+00    0.137E+01
RMM:  60    -0.182028360317E+03   -0.53618E+00   -0.38250E+01  4241   0.268E+00    0.217E+01
RMM:  61    -0.181831607231E+03    0.19675E+00   -0.14842E+01  4497   0.159E+00    0.174E+01
RMM:  62    -0.182142546184E+03   -0.31094E+00   -0.20312E+01  4793   0.204E+00    0.181E+01
RMM:  63    -0.182851362891E+03   -0.70882E+00   -0.36560E+01  4520   0.262E+00    0.743E+00
RMM:  64    -0.182714200120E+03    0.13716E+00   -0.79513E+01  4350   0.462E+00    0.170E+01
RMM:  65    -0.181443753611E+03    0.12704E+01   -0.21256E+01  4449   0.199E+00    0.811E+00
RMM:  66    -0.181904763594E+03   -0.46101E+00   -0.21999E+01  4542   0.233E+00    0.126E+01
RMM:  67    -0.182861413745E+03   -0.95665E+00   -0.22407E+01  4562   0.209E+00    0.973E+00
RMM:  68    -0.182533481036E+03    0.32793E+00   -0.81506E+01  4471   0.465E+00    0.831E+00
RMM:  69    -0.181137721273E+03    0.13958E+01   -0.39701E+01  4302   0.283E+00    0.822E+00
RMM:  70    -0.181557838030E+03   -0.42012E+00   -0.43737E+01  4371   0.303E+00    0.104E+01
RMM:  71    -0.181966524215E+03   -0.40869E+00   -0.26684E+01  4196   0.220E+00    0.922E+00
RMM:  72    -0.181919959840E+03    0.46564E-01   -0.52574E+01  4367   0.330E+00    0.118E+01
RMM:  73    -0.182304749739E+03   -0.38479E+00   -0.37846E+01  4228   0.271E+00    0.923E+00
RMM:  74    -0.181819080123E+03    0.48567E+00   -0.65050E+01  4155   0.381E+00    0.116E+01
RMM:  75    -0.181374657930E+03    0.44442E+00   -0.34235E+01  4057   0.263E+00    0.985E+00
RMM:  76    -0.181759896251E+03   -0.38524E+00   -0.52532E+01  3991   0.309E+00    0.116E+01
RMM:  77    -0.181170237280E+03    0.58966E+00   -0.50731E+01  4043   0.319E+00    0.100E+01
RMM:  78    -0.181044976058E+03    0.12526E+00   -0.45327E+01  3954   0.285E+00    0.123E+01
RMM:  79    -0.181192639812E+03   -0.14766E+00   -0.35676E+01  3865   0.237E+00    0.996E+00
RMM:  80    -0.181517258021E+03   -0.32462E+00   -0.32355E+01  3865   0.247E+00    0.118E+01
RMM:  81    -0.181489629966E+03    0.27628E-01   -0.56765E+01  3928   0.309E+00    0.999E+00
RMM:  82    -0.181121762730E+03    0.36787E+00   -0.59797E+01  4321   0.364E+00    0.122E+01
RMM:  83    -0.181090377974E+03    0.31385E-01   -0.51222E+01  4030   0.294E+00    0.105E+01
RMM:  84    -0.181824902219E+03   -0.73452E+00   -0.38693E+01  3935   0.292E+00    0.119E+01
RMM:  85    -0.182113436820E+03   -0.28853E+00   -0.52156E+01  3920   0.309E+00    0.101E+01
RMM:  86    -0.181412762433E+03    0.70067E+00   -0.71148E+01  3921   0.377E+00    0.130E+01
RMM:  87    -0.181207428480E+03    0.20533E+00   -0.46517E+01  4003   0.284E+00    0.110E+01
RMM:  88    -0.181362049064E+03   -0.15462E+00   -0.41256E+01  3920   0.276E+00    0.134E+01
RMM:  89    -0.181687419242E+03   -0.32537E+00   -0.33498E+01  3918   0.237E+00    0.118E+01
RMM:  90    -0.181893696404E+03   -0.20628E+00   -0.48469E+01  3863   0.289E+00    0.136E+01
RMM:  91    -0.181497092979E+03    0.39660E+00   -0.57845E+01  3884   0.305E+00    0.116E+01
RMM:  92    -0.181817605412E+03   -0.32051E+00   -0.42128E+01  4299   0.287E+00    0.127E+01
RMM:  93    -0.182384318434E+03   -0.56671E+00   -0.42451E+01  4222   0.286E+00    0.116E+01
RMM:  94    -0.182039017189E+03    0.34530E+00   -0.51733E+01  4241   0.340E+00    0.142E+01
RMM:  95    -0.182582988277E+03   -0.54397E+00   -0.47428E+01  4123   0.286E+00    0.119E+01
RMM:  96    -0.182127922173E+03    0.45507E+00   -0.56613E+01  4142   0.358E+00    0.136E+01
RMM:  97    -0.182166457552E+03   -0.38535E-01   -0.43426E+01  4432   0.306E+00    0.138E+01
RMM:  98    -0.182709302607E+03   -0.54285E+00   -0.40396E+01  4301   0.290E+00    0.143E+01
RMM:  99    -0.182757078457E+03   -0.47776E-01   -0.41014E+01  4285   0.282E+00    0.147E+01
RMM: 100    -0.183293573466E+03   -0.53650E+00   -0.47313E+01  4258   0.303E+00 
 soft stop encountered!  aborting job ...
   4 F= -.18329357E+03 E0= -.18295931E+03  d E =0.333808E+01  mag=     0.9108
 curvature:   0.00 expect dE=-0.276E+00 dE for cont linesearch -0.261E+00
 ZBRENT: interpolating
 opt :   1.0931  next Energy=  -183.482059 (dE= 0.315E+01)
 deleting file STOPCAR
Application 14117816 resources: utime ~544138s, stime ~7903s Rss ~119716 inblocks ~1796866 outblocks ~11890737
