
Running Job 1 of 1 mol.qin
qchem mol.qin_6197.0 /tmp/chain_scratch/ 0
/global/common/cori/software/qchem/5.2/exe/qcprog.exe_s mol.qin_6197.0 /tmp/chain_scratch/
                  Welcome to Q-Chem
     A Quantum Leap Into The Future Of Chemistry


 Q-Chem 5.2, Q-Chem, Inc., Pleasanton, CA (2019)

 License issued to: National Energy Research Scientific Computing Center

 Yihan Shao,  Zhengting Gan,  E. Epifanovsky,  A. T. B. Gilbert,  M. Wormit,  
 J. Kussmann,  A. W. Lange,  A. Behn,  Jia Deng,  Xintian Feng,  D. Ghosh,  
 M. Goldey,  P. R. Horn,  L. D. Jacobson,  I. Kaliman,  T. Kus,  A. Landau,  
 Jie Liu,  E. I. Proynov,  R. M. Richard,  R. P. Steele,  E. J. Sundstrom,  
 H. L. Woodcock III,  P. M. Zimmerman,  D. Zuev,  B. Albrecht,  E. Alguire,  
 S. A. Baeppler,  D. Barton,  Z. Benda,  Y. A. Bernard,  E. J. Berquist,  
 K. B. Bravaya,  H. Burton,  D. Casanova,  Chun-Min Chang,  Yunqing Chen,  
 A. Chien,  K. D. Closser,  M. P. Coons,  S. Coriani,  S. Dasgupta,  
 A. L. Dempwolff,  M. Diedenhofen,  Hainam Do,  R. G. Edgar,  Po-Tung Fang,  
 S. Faraji,  S. Fatehi,  Qingguo Feng,  K. D. Fenk,  J. Fosso-Tande,  
 J. Gayvert,  Qinghui Ge,  A. Ghysels,  G. Gidofalvi,  J. Gomes,  
 J. Gonthier,  A. Gunina,  D. Hait,  M. W. D. Hanson-Heine,  
 P. H. P. Harbach,  A. W. Hauser,  M. F. Herbst,  J. E. Herr,  
 E. G. Hohenstein,  Z. C. Holden,  Kerwin Hui,  B. C. Huynh,  T.-C. Jagau,  
 Hyunjun Ji,  B. Kaduk,  K. Khistyaev,  Jaehoon Kim,  P. Klunzinger,  K. Koh,  
 D. Kosenkov,  L. Koulias,  T. Kowalczyk,  C. M. Krauter,  A. Kunitsa,  
 Ka Un Lao,  A. Laurent,  K. V. Lawler,  Joonho Lee,  D. Lefrancois,  
 S. Lehtola,  D. S. Levine,  Yi-Pei Li,  You-Sheng Lin,  Fenglai Liu,  
 E. Livshits,  A. Luenser,  P. Manohar,  E. Mansoor,  S. F. Manzer,  
 Shan-Ping Mao,  Yuezhi Mao,  N. Mardirossian,  A. V. Marenich,  
 T. Markovich,  L. A. Martinez-Martinez,  S. A. Maurer,  N. J. Mayhall,  
 S. C. McKenzie,  J.-M. Mewes,  P. Morgante,  A. F. Morrison,  
 J. W. Mullinax,  K. Nanda,  T. S. Nguyen-Beck,  R. Olivares-Amaya,  
 J. A. Parkhill,  Zheng Pei,  T. M. Perrine,  F. Plasser,  P. Pokhilko,  
 S. Prager,  A. Prociuk,  E. Ramos,  D. R. Rehn,  F. Rob,  M. Scheurer,  
 M. Schneider,  N. Sergueev,  S. M. Sharada,  S. Sharma,  D. W. Small,  
 T. Stauch,  T. Stein,  Yu-Chuan Su,  A. J. W. Thom,  A. Tkatchenko,  
 T. Tsuchimochi,  N. M. Tubman,  L. Vogt,  M. L. Vidal,  O. Vydrov,  
 M. A. Watson,  J. Wenzel,  M. de Wergifosse,  T. A. Wesolowski,  A. White,  
 J. Witte,  A. Yamada,  Jun Yang,  K. Yao,  S. Yeganeh,  S. R. Yost,  
 Zhi-Qiang You,  A. Zech,  Igor Ying Zhang,  Xing Zhang,  Yan Zhao,  
 Ying Zhu,  B. R. Brooks,  G. K. L. Chan,  C. J. Cramer,  M. S. Gordon,  
 W. J. Hehre,  A. Klamt,  M. W. Schmidt,  C. D. Sherrill,  D. G. Truhlar,  
 A. Aspuru-Guzik,  R. Baer,  A. T. Bell,  N. A. Besley,  Jeng-Da Chai,  
 A. E. DePrince, III,  R. A. DiStasio Jr.,  A. Dreuw,  B. D. Dunietz,  
 T. R. Furlani,  Chao-Ping Hsu,  Yousung Jung,  Jing Kong,  D. S. Lambrecht,  
 WanZhen Liang,  C. Ochsenfeld,  V. A. Rassolov,  L. V. Slipchenko,  
 J. E. Subotnik,  T. Van Voorhis,  J. M. Herbert,  A. I. Krylov,  
 P. M. W. Gill,  M. Head-Gordon

 Contributors to earlier versions of Q-Chem not listed above: 
 R. D. Adamson,  B. Austin,  J. Baker,  G. J. O. Beran,  K. Brandhorst,  
 S. T. Brown,  E. F. C. Byrd,  A. K. Chakraborty,  C.-L. Cheng,  
 Siu Hung Chien,  D. M. Chipman,  D. L. Crittenden,  H. Dachsel,  
 R. J. Doerksen,  A. D. Dutoi,  L. Fusti-Molnar,  W. A. Goddard III,  
 A. Golubeva-Zadorozhnaya,  S. R. Gwaltney,  G. Hawkins,  A. Heyden,  
 S. Hirata,  G. Kedziora,  F. J. Keil,  C. Kelley,  Jihan Kim,  R. A. King,  
 R. Z. Khaliullin,  P. P. Korambath,  W. Kurlancheek,  A. M. Lee,  M. S. Lee,  
 S. V. Levchenko,  Ching Yeh Lin,  D. Liotard,  R. C. Lochan,  I. Lotan,  
 P. E. Maslen,  N. Nair,  D. P. O'Neill,  D. Neuhauser,  E. Neuscamman,  
 C. M. Oana,  R. Olson,  B. Peters,  R. Peverati,  P. A. Pieniazek,  
 Y. M. Rhee,  J. Ritchie,  M. A. Rohrdanz,  E. Rosta,  N. J. Russ,  
 H. F. Schaefer III,  N. E. Schultz,  N. Shenvi,  A. C. Simmonett,  A. Sodt,  
 D. Stuck,  K. S. Thanthiriwatte,  V. Vanovschi,  Tao Wang,  A. Warshel,  
 C. F. Williams,  Q. Wu,  X. Xu,  W. Zhang

 Please cite Q-Chem as follows:
 Y. Shao et al., Mol. Phys. 113, 184-215 (2015)
 DOI: 10.1080/00268976.2014.952696

 Q-Chem 5.2.0 for Intel X86 EM64T Linux

 Parts of Q-Chem use Armadillo 8.300.2 (Tropical Shenanigans).
 http://arma.sourceforge.net/

 Q-Chem begins on Fri Sep 27 16:19:41 2019  

Host: cori05
0

     Scratch files written to /tmp/chain_scratch//
 May1019 |scratch|qcdevops|jenkins|workspace|build_RNUM -1
Processing $rem in /global/common/cori/software/qchem/5.2/config/preferences:
	 MEM_TOTAL  96000 
NAlpha2: 86
NElect   86
Mult     1

Checking the input file for inconsistencies... 	...done.

--------------------------------------------------------------
User input:
--------------------------------------------------------------
$molecule
0 1
O      1.2446400000     -0.0015400000     -1.2892900000
C      1.6777000000      1.0775500000     -0.5969000000
C      1.6787900000     -1.0803800000     -0.5973800000
C      2.7840000000      0.6822800000      0.1925400000
C      2.7845900000     -0.6840800000      0.1924500000
H      1.4125600000      2.0475500000     -0.9736500000
H      1.4134900000     -2.0499400000     -0.9747100000
H      3.4612900000      1.3523800000      0.7155700000
H      3.4626800000     -1.3529000000      0.7157500000
C     -1.2007700000      1.1447000000      0.1610500000
N     -1.8870000000      0.0020300000     -0.2160300000
C      0.0288100000      0.6942300000      0.8767600000
O     -1.5920200000      2.2973600000     -0.0457400000
C     -1.2106000000     -1.1703600000      0.1555300000
C      0.0283700000     -0.6962300000      0.8761800000
O     -1.5877500000     -2.2769000000     -0.0443000000
H     -2.7697000000      0.0002300000     -0.6866300000
H      0.4617200000      1.3374800000      1.6306700000
H      0.4606900000     -1.3421500000      1.6296800000
$end

$rem
job_type = ts
basis = 6-31g*
max_scf_cycles = 200
gen_scfman = true
xc_grid = 3
scf_algorithm = diis_gdm
resp_charges = true
symmetry = false
sym_ignore = true
method = wb97xd
geom_opt_max_cycles = 200
$end
--------------------------------------------------------------
 ----------------------------------------------------------------
             Standard Nuclear Orientation (Angstroms)
    I     Atom           X                Y                Z
 ----------------------------------------------------------------
    1      O       1.2446400000    -0.0015400000    -1.2892900000
    2      C       1.6777000000     1.0775500000    -0.5969000000
    3      C       1.6787900000    -1.0803800000    -0.5973800000
    4      C       2.7840000000     0.6822800000     0.1925400000
    5      C       2.7845900000    -0.6840800000     0.1924500000
    6      H       1.4125600000     2.0475500000    -0.9736500000
    7      H       1.4134900000    -2.0499400000    -0.9747100000
    8      H       3.4612900000     1.3523800000     0.7155700000
    9      H       3.4626800000    -1.3529000000     0.7157500000
   10      C      -1.2007700000     1.1447000000     0.1610500000
   11      N      -1.8870000000     0.0020300000    -0.2160300000
   12      C       0.0288100000     0.6942300000     0.8767600000
   13      O      -1.5920200000     2.2973600000    -0.0457400000
   14      C      -1.2106000000    -1.1703600000     0.1555300000
   15      C       0.0283700000    -0.6962300000     0.8761800000
   16      O      -1.5877500000    -2.2769000000    -0.0443000000
   17      H      -2.7697000000     0.0002300000    -0.6866300000
   18      H       0.4617200000     1.3374800000     1.6306700000
   19      H       0.4606900000    -1.3421500000     1.6296800000
 ----------------------------------------------------------------
 Nuclear Repulsion Energy =         700.20551179 hartrees
 There are       43 alpha and       43 beta electrons
 Requested basis set is 6-31G(d)
 There are 62 shells and 194 basis functions

 Total QAlloc Memory Limit  96000 MB
 Mega-Array Size       188 MB
 MEM_STATIC part       192 MB
 A cutoff of  1.0D-12 yielded   1727 shell pairs
 There are     17837 function pairs
 Smallest overlap matrix eigenvalue = 7.20E-04

 Scale SEOQF with 1.000000e-01/1.000000e-01/1.000000e-01

 Standard Electronic Orientation quadrupole field applied
 Nucleus-field energy     =     0.0000000154 hartrees
 Guess from superposition of atomic densities
 Warning:  Energy on first SCF cycle will be non-variational
 SAD guess density has 86.000000 electrons

 -----------------------------------------------------------------------
  General SCF calculation program by
  Eric Jon Sundstrom, Paul Horn, Yuezhi Mao, Dmitri Zuev, Alec White,
  David Stuck, Shaama M.S., Shane Yost, Joonho Lee, David Small,
  Daniel Levine, Susi Lehtola, Hugh Burton, Evgeny Epifanovsky
 -----------------------------------------------------------------------
 Exchange:     0.2220 Hartree-Fock + 1.0000 wB97X-D + LR-HF
 Correlation:  1.0000 wB97X-D
 Using SG-3 standard quadrature grid
 Dispersion:   Grimme D
 using 32 threads for integral computing
 -------------------------------------------------------
 OpenMP Integral computing Module                
 Release: version 1.0, May 2013, Q-Chem Inc. Pittsburgh 
 -------------------------------------------------------
 using 32 threads for integral computing
 -------------------------------------------------------
 OpenMP Integral computing Module                
 Release: version 1.0, May 2013, Q-Chem Inc. Pittsburgh 
 -------------------------------------------------------
 A restricted SCF calculation will be
 performed using DIIS, GDM
 SCF converges when RMS gradient is below 1.0e-08
 ---------------------------------------
  Cycle       Energy         DIIS error
 ---------------------------------------
    1    -592.6428327320      5.95e-02  
    2    -588.9959619895      7.50e-03  Done DIIS. Switching to GDM
 ---------------------------------------
  Cycle       Energy        RMS Gradient
 ---------------------------------------
    1    -588.9959619895      2.37e-01   Descent step
    2    -589.1975759743      6.75e-02   Normal BFGS step
    3    -589.2167973311      2.54e-02   Normal BFGS step
    4    -589.2236304877      5.92e-03   Normal BFGS step
    5    -589.2242170101      2.25e-03   Normal BFGS step
    6    -589.2243140004      1.77e-03   Normal BFGS step
    7    -589.2243418164      4.93e-04   Normal BFGS step
    8    -589.2243456098      2.06e-04   Normal BFGS step
    9    -589.2243464292      1.15e-04   Normal BFGS step
   10    -589.2243465467      5.08e-05   Normal BFGS step
   11    -589.2243465810      2.53e-05   Normal BFGS step
   12    -589.2243465856      8.66e-06   Normal BFGS step
   13    -589.2243465866      3.26e-06   Normal BFGS step
   14    -589.2243465867      1.43e-06   Normal BFGS step
   15    -589.2243465867      4.24e-07   Normal BFGS step
   16    -589.2243465867      1.01e-07   Normal BFGS step
   17    -589.2243465867      5.76e-08   Normal BFGS step
   18    -589.2243465867      3.57e-08   Normal BFGS step
   19    -589.2243465867      8.06e-09  Convergence criterion met
 ---------------------------------------
 SCF time:   CPU 577.36s  wall 19.00s 
 SCF   energy in the final basis set =     -589.2243465867
 Total energy in the final basis set =     -589.2243465867
 
 --------------------------------------------------------------
 
                    Orbital Energies (a.u.)
 --------------------------------------------------------------
 
 Alpha MOs
 -- Occupied --
-19.3522 -19.2615 -19.2516 -14.4878 -10.4187 -10.4165 -10.3846 -10.3842
-10.3270 -10.3262 -10.3211 -10.3203  -1.2400  -1.1716  -1.1362  -1.0445
 -0.9293  -0.8970  -0.8656  -0.7624  -0.7061  -0.7054  -0.6881  -0.6826
 -0.6569  -0.5921  -0.5723  -0.5555  -0.5462  -0.5322  -0.5275  -0.5157
 -0.5108  -0.5033  -0.4916  -0.4736  -0.4715  -0.3886  -0.3657  -0.3594
 -0.3393  -0.3353  -0.3295
 -- Virtual --
  0.0005   0.0590   0.1056   0.1545   0.1787   0.1804   0.1900   0.2060
  0.2209   0.2290   0.2340   0.2556   0.2584   0.2862   0.3000   0.3070
  0.3301   0.3515   0.3877   0.4292   0.4400   0.4717   0.5051   0.5277
  0.5504   0.5752   0.5963   0.6031   0.6328   0.6401   0.6491   0.6506
  0.6695   0.6834   0.6983   0.7085   0.7285   0.7318   0.7715   0.7838
  0.8028   0.8407   0.8450   0.8625   0.8682   0.8981   0.9024   0.9127
  0.9147   0.9256   0.9352   0.9629   0.9673   0.9808   0.9865   1.0027
  1.0306   1.0653   1.0740   1.0864   1.1108   1.1313   1.1557   1.1811
  1.1849   1.1910   1.2092   1.2580   1.2926   1.3678   1.3970   1.4210
  1.4374   1.4496   1.4634   1.4812   1.4874   1.4970   1.5049   1.5806
  1.6139   1.6161   1.6351   1.6843   1.7103   1.7144   1.7866   1.8477
  1.8555   1.8865   1.8917   1.9025   1.9194   1.9272   1.9411   1.9527
  2.0213   2.0311   2.0685   2.0695   2.0816   2.1216   2.1514   2.1524
  2.1626   2.1847   2.2436   2.2723   2.2821   2.2942   2.3172   2.3451
  2.3517   2.3809   2.4731   2.4821   2.4961   2.5620   2.5639   2.5742
  2.6422   2.7099   2.7187   2.7293   2.7389   2.7850   2.7863   2.8013
  2.8114   2.9108   2.9373   2.9660   3.0003   3.0411   3.0842   3.1103
  3.1678   3.2429   3.2822   4.0755   4.1242   4.1619   4.2318   4.2920
  4.4041   4.4289   4.5191   4.6002   4.6939   4.7385   4.9822
 --------------------------------------------------------------
 
          Ground-State Mulliken Net Atomic Charges

     Atom                 Charge (a.u.)
  ----------------------------------------
      1 O                    -0.364067
      2 C                     0.021543
      3 C                     0.020636
      4 C                    -0.162243
      5 C                    -0.162198
      6 H                     0.223295
      7 H                     0.221043
      8 H                     0.196947
      9 H                     0.196672
     10 C                     0.638857
     11 N                    -0.690298
     12 C                    -0.275358
     13 O                    -0.515001
     14 C                     0.636098
     15 C                    -0.286695
     16 O                    -0.474591
     17 H                     0.369680
     18 H                     0.204378
     19 H                     0.201302
  ----------------------------------------
  Sum of atomic charges =     0.000000

  Building new vdw surfaces
         Merz-Kollman RESP Net Atomic Charges

     Atom                 Charge (a.u.)
  ----------------------------------------
      1 O                    -0.112805
      2 C                    -0.061086
      3 C                    -0.061086
      4 C                    -0.143130
      5 C                    -0.143130
      6 H                     0.195349
      7 H                     0.195349
      8 H                     0.162213
      9 H                     0.162213
     10 C                     0.656563
     11 N                    -0.634648
     12 C                    -0.311383
     13 O                    -0.504657
     14 C                     0.656563
     15 C                    -0.311383
     16 O                    -0.504657
     17 H                     0.391986
     18 H                     0.183864
     19 H                     0.183864
  ----------------------------------------
  Sum of atomic charges =     0.000000

  Related Dipole Moment =     4.0353 (X  3.9287 Y -0.1371 Z  0.9113)

 -----------------------------------------------------------------
                    Cartesian Multipole Moments
 -----------------------------------------------------------------
    Charge (ESU x 10^10)
                 0.0000
    Dipole Moment (Debye)
         X       3.8744      Y      -0.3717      Z       0.9079
       Tot       3.9967
    Quadrupole Moments (Debye-Ang)
        XX     -60.3391     XY       0.7224     YY     -76.2266
        XZ       4.1227     YZ       0.0419     ZZ     -65.6876
    Octopole Moments (Debye-Ang^2)
       XXX     -48.8117    XXY      -1.2074    XYY      24.1180
       YYY      -2.5318    XXZ       5.5378    XYZ       0.0074
       YYZ      -0.0197    XZZ     -20.3526    YZZ      -0.1450
       ZZZ       4.5607
    Hexadecapole Moments (Debye-Ang^3)
      XXXX   -1147.9363   XXXY       3.4499   XXYY    -342.0470
      XYYY       4.6537   YYYY    -756.0498   XXXZ      86.9442
      XXYZ      -0.0233   XYYZ       5.1194   YYYZ      -0.0467
      XXZZ    -241.7147   XYZZ       0.6816   YYZZ    -134.9381
      XZZZ      31.1934   YZZZ       0.1632   ZZZZ    -223.7617
 -----------------------------------------------------------------
 Calculating analytic gradient of the SCF energy
 Gradient of SCF Energy
            1           2           3           4           5           6
    1   0.0032657  -0.0112189  -0.0107179   0.0048020   0.0047467   0.0017185
    2  -0.0002926   0.0097283  -0.0099280  -0.0209141   0.0209456  -0.0030279
    3   0.0040742  -0.0022438  -0.0029336   0.0038333   0.0037797   0.0042365
            7           8           9          10          11          12
    1   0.0013527   0.0045543   0.0045096   0.0146676  -0.0125401   0.0015787
    2   0.0031954   0.0023642  -0.0022235  -0.0379785   0.0063736   0.0099429
    3   0.0043754  -0.0000897  -0.0001210   0.0065513  -0.0030757  -0.0087838
           13          14          15          16          17          18
    1  -0.0132893  -0.0144445   0.0023809   0.0112401   0.0056899   0.0010318
    2   0.0325157  -0.0410550  -0.0040062   0.0368254  -0.0017376   0.0005065
    3  -0.0063392  -0.0087007  -0.0086161   0.0065902   0.0064033   0.0005707
           19
    1   0.0006721
    2  -0.0012343
    3   0.0004891
 Max gradient component =       4.105E-02
 RMS gradient           =       1.226E-02
 Gradient time:  CPU 71.38 s  wall 2.66 s
 Geometry Optimization Parameters
   NAtoms,    NIC,     NZ,  NCons,   NDum,   NFix, NCnnct, MaxDiis
       19     168       0       0       0       0       0       0


** GEOMETRY OPTIMIZATION IN DELOCALIZED INTERNAL COORDINATES **
   Searching for a Transition State

   Optimization Cycle:   1

                       Coordinates (Angstroms)
     ATOM                X               Y               Z
      1  O         1.2446400000   -0.0015400000   -1.2892900000
      2  C         1.6777000000    1.0775500000   -0.5969000000
      3  C         1.6787900000   -1.0803800000   -0.5973800000
      4  C         2.7840000000    0.6822800000    0.1925400000
      5  C         2.7845900000   -0.6840800000    0.1924500000
      6  H         1.4125600000    2.0475500000   -0.9736500000
      7  H         1.4134900000   -2.0499400000   -0.9747100000
      8  H         3.4612900000    1.3523800000    0.7155700000
      9  H         3.4626800000   -1.3529000000    0.7157500000
     10  C        -1.2007700000    1.1447000000    0.1610500000
     11  N        -1.8870000000    0.0020300000   -0.2160300000
     12  C         0.0288100000    0.6942300000    0.8767600000
     13  O        -1.5920200000    2.2973600000   -0.0457400000
     14  C        -1.2106000000   -1.1703600000    0.1555300000
     15  C         0.0283700000   -0.6962300000    0.8761800000
     16  O        -1.5877500000   -2.2769000000   -0.0443000000
     17  H        -2.7697000000    0.0002300000   -0.6866300000
     18  H         0.4617200000    1.3374800000    1.6306700000
     19  H         0.4606900000   -1.3421500000    1.6296800000
   Point Group: c1    Number of degrees of freedom:    51


   Energy is   -589.224346587


 Attempting to generate delocalized internal coordinates
 Initial Hessian constructed with Jon Baker's OPTIMIZE code

 51 Hessian modes will be used to form the next step
  Hessian Eigenvalues:
     0.008633    0.010431    0.012657    0.013239    0.016438    0.022069
     0.023645    0.028651    0.034932    0.038488    0.039892    0.042510
     0.043511    0.047802    0.052771    0.056560    0.069381    0.070823
     0.077609    0.080698    0.096340    0.100701    0.132876    0.142490
     0.151301    0.159729    0.159871    0.159974    0.166288    0.211838
     0.249704    0.249745    0.300163    0.313235    0.350615    0.351753
     0.351940    0.354592    0.356901    0.358182    0.367485    0.367677
     0.376768    0.429588    0.445759    0.463188    0.476333    0.485492
     0.512264    0.891592    1.121825
**WARNING** Hessian does not have the desired local structure

 Transition state search - taking P-RFO step
 Searching for Lamda that Maximizes Along the Lowest mode
 Value Taken    Lamda =   0.00863642
 Searching for Lamda that Minimizes Along All other modes
 Value Taken    Lamda =  -0.00948530
 Calculated Step too Large.  Step scaled by  0.005687
 Step Taken.  Stepsize is  0.300000

                             Maximum     Tolerance    Cnvgd?
         Gradient           0.032074      0.000300      NO
         Displacement       0.142967      0.001200      NO
         Energy change     *********      0.000001      NO


 New Cartesian Coordinates Obtained by Inverse Iteration

 Displacement from previous Coordinates is:  0.468166
 ----------------------------------------------------------------
             Standard Nuclear Orientation (Angstroms)
    I     Atom           X                Y                Z
 ----------------------------------------------------------------
    1      O       1.2455070700    -0.0524315036    -1.2889659168
    2      C       1.6577442847     1.0536158138    -0.6254237329
    3      C       1.6992917342    -1.1030724687    -0.5684882721
    4      C       2.7758506081     0.7052248101     0.1674092228
    5      C       2.7912465035    -0.6602873210     0.2177817810
    6      H       1.3658638508     2.0050334243    -1.0289454729
    7      H       1.4611309778    -2.0897477898    -0.9186902166
    8      H       3.4420557271     1.4029689220     0.6679719029
    9      H       3.4787415514    -1.3005500835     0.7639581473
   10      C      -1.1936706248     1.1571362348     0.1996139537
   11      N      -1.8886254189     0.0317895385    -0.2120623538
   12      C       0.0405659921     0.6742534909     0.8849568522
   13      O      -1.5756127478     2.3187392301     0.0294122398
   14      C      -1.2165048376    -1.1563963016     0.1151440259
   15      C       0.0166255540    -0.7156314699     0.8666454987
   16      O      -1.5981665308    -2.2531592547    -0.1263029682
   17      H      -2.7718920006     0.0510556434    -0.6813121289
   18      H       0.4951615916     1.2955278154     1.6444983600
   19      H       0.4261767154    -1.3827587305     1.6143490778
 ----------------------------------------------------------------
 Nuclear Repulsion Energy =         700.25471201 hartrees
 There are       43 alpha and       43 beta electrons
 Applying Cartesian multipole field
    Component          Value
    ---------          -----
     (2,0,0)        1.00000E-11
     (0,2,0)        2.00000E-11
     (0,0,2)       -3.00000E-11
 Nucleus-field energy     =     0.0000000153 hartrees
 Requested basis set is 6-31G(d)
 There are 62 shells and 194 basis functions
 A cutoff of  1.0D-12 yielded   1726 shell pairs
 There are     17831 function pairs
 Smallest overlap matrix eigenvalue = 7.22E-04
 Guess MOs from SCF MO coefficient file

 -----------------------------------------------------------------------
  General SCF calculation program by
  Eric Jon Sundstrom, Paul Horn, Yuezhi Mao, Dmitri Zuev, Alec White,
  David Stuck, Shaama M.S., Shane Yost, Joonho Lee, David Small,
  Daniel Levine, Susi Lehtola, Hugh Burton, Evgeny Epifanovsky
 -----------------------------------------------------------------------
 Exchange:     0.2220 Hartree-Fock + 1.0000 wB97X-D + LR-HF
 Correlation:  1.0000 wB97X-D
 Using SG-3 standard quadrature grid
 Dispersion:   Grimme D
 using 32 threads for integral computing
 -------------------------------------------------------
 OpenMP Integral computing Module                
 Release: version 1.0, May 2013, Q-Chem Inc. Pittsburgh 
 -------------------------------------------------------
 using 32 threads for integral computing
 -------------------------------------------------------
 OpenMP Integral computing Module                
 Release: version 1.0, May 2013, Q-Chem Inc. Pittsburgh 
 -------------------------------------------------------
 A restricted SCF calculation will be
 performed using DIIS, GDM
 SCF converges when RMS gradient is below 1.0e-08
 ---------------------------------------
  Cycle       Energy         DIIS error
 ---------------------------------------
    1    -589.2191496227      7.95e-04  
    2    -589.2238385537      1.49e-04  Done DIIS. Switching to GDM
 ---------------------------------------
  Cycle       Energy        RMS Gradient
 ---------------------------------------
    1    -589.2238385537      2.27e-03   Normal BFGS step
    2    -589.2240715572      7.73e-04   Normal BFGS step
    3    -589.2240858922      9.74e-04   Normal BFGS step
    4    -589.2240911351      3.12e-04   Normal BFGS step
    5    -589.2240923778      7.28e-05   Normal BFGS step
    6    -589.2240923967      7.31e-05   Normal BFGS step
    7    -589.2240924393      1.76e-05   Normal BFGS step
    8    -589.2240924401      9.29e-06   Normal BFGS step
    9    -589.2240924416      2.62e-06   Normal BFGS step
   10    -589.2240924417      2.64e-06   Normal BFGS step
   11    -589.2240924417      3.52e-07   Normal BFGS step
   12    -589.2240924417      2.32e-07   Normal BFGS step
   13    -589.2240924417      6.53e-08   Normal BFGS step
   14    -589.2240924417      3.46e-08   Normal BFGS step
   15    -589.2240924417      1.30e-08   Normal BFGS step
   16    -589.2240924417      4.94e-09  Convergence criterion met
 ---------------------------------------
 SCF time:   CPU 473.33s  wall 15.00s 
 SCF   energy in the final basis set =     -589.2240924417
 Total energy in the final basis set =     -589.2240924417
 
 --------------------------------------------------------------
 
                    Orbital Energies (a.u.)
 --------------------------------------------------------------
 
 Alpha MOs
 -- Occupied --
-19.3522 -19.2616 -19.2515 -14.4879 -10.4187 -10.4165 -10.3847 -10.3841
-10.3270 -10.3261 -10.3213 -10.3200  -1.2400  -1.1716  -1.1362  -1.0445
 -0.9293  -0.8970  -0.8655  -0.7624  -0.7061  -0.7054  -0.6882  -0.6825
 -0.6569  -0.5921  -0.5724  -0.5554  -0.5462  -0.5324  -0.5275  -0.5159
 -0.5101  -0.5032  -0.4920  -0.4731  -0.4720  -0.3885  -0.3657  -0.3594
 -0.3395  -0.3351  -0.3294
 -- Virtual --
  0.0005   0.0590   0.1055   0.1543   0.1786   0.1801   0.1902   0.2060
  0.2210   0.2291   0.2340   0.2554   0.2587   0.2862   0.2995   0.3078
  0.3301   0.3516   0.3877   0.4282   0.4412   0.4713   0.5050   0.5272
  0.5506   0.5755   0.5963   0.6034   0.6328   0.6398   0.6484   0.6511
  0.6692   0.6842   0.6979   0.7089   0.7285   0.7320   0.7713   0.7838
  0.8029   0.8406   0.8446   0.8625   0.8682   0.8980   0.9022   0.9122
  0.9147   0.9258   0.9351   0.9628   0.9675   0.9805   0.9868   1.0031
  1.0306   1.0643   1.0692   1.0910   1.1089   1.1322   1.1554   1.1824
  1.1842   1.1909   1.2092   1.2580   1.2918   1.3674   1.3960   1.4195
  1.4367   1.4490   1.4636   1.4819   1.4895   1.4975   1.5067   1.5789
  1.6126   1.6177   1.6372   1.6847   1.7092   1.7162   1.7872   1.8473
  1.8563   1.8864   1.8914   1.9026   1.9184   1.9268   1.9399   1.9541
  2.0208   2.0310   2.0680   2.0700   2.0818   2.1210   2.1469   2.1559
  2.1635   2.1848   2.2438   2.2729   2.2825   2.2947   2.3173   2.3442
  2.3526   2.3811   2.4722   2.4831   2.4952   2.5612   2.5664   2.5737
  2.6414   2.7089   2.7196   2.7300   2.7383   2.7839   2.7859   2.8024
  2.8113   2.9099   2.9377   2.9659   3.0012   3.0409   3.0837   3.1102
  3.1674   3.2430   3.2818   4.0764   4.1217   4.1655   4.2316   4.2920
  4.4043   4.4285   4.5191   4.6009   4.6901   4.7417   4.9811
 --------------------------------------------------------------
 
          Ground-State Mulliken Net Atomic Charges

     Atom                 Charge (a.u.)
  ----------------------------------------
      1 O                    -0.364118
      2 C                     0.021344
      3 C                     0.021195
      4 C                    -0.160041
      5 C                    -0.164623
      6 H                     0.222916
      7 H                     0.221267
      8 H                     0.197523
      9 H                     0.196094
     10 C                     0.636852
     11 N                    -0.690490
     12 C                    -0.275994
     13 O                    -0.514657
     14 C                     0.638160
     15 C                    -0.286024
     16 O                    -0.474787
     17 H                     0.369636
     18 H                     0.203065
     19 H                     0.202682
  ----------------------------------------
  Sum of atomic charges =     0.000000

  Building new vdw surfaces
         Merz-Kollman RESP Net Atomic Charges

     Atom                 Charge (a.u.)
  ----------------------------------------
      1 O                    -0.107589
      2 C                    -0.062561
      3 C                    -0.062561
      4 C                    -0.145698
      5 C                    -0.145698
      6 H                     0.195394
      7 H                     0.195394
      8 H                     0.163632
      9 H                     0.163632
     10 C                     0.648904
     11 N                    -0.630053
     12 C                    -0.308493
     13 O                    -0.502400
     14 C                     0.648904
     15 C                    -0.308493
     16 O                    -0.502400
     17 H                     0.391961
     18 H                     0.184063
     19 H                     0.184063
  ----------------------------------------
  Sum of atomic charges =     0.000000

  Related Dipole Moment =     4.0257 (X  3.9177 Y -0.1603 Z  0.9125)

 -----------------------------------------------------------------
                    Cartesian Multipole Moments
 -----------------------------------------------------------------
    Charge (ESU x 10^10)
                 0.0000
    Dipole Moment (Debye)
         X       3.8607      Y      -0.4082      Z       0.9080
       Tot       3.9870
    Quadrupole Moments (Debye-Ang)
        XX     -60.3068     XY       0.6303     YY     -76.2312
        XZ       4.1183     YZ      -0.8198     ZZ     -65.7086
    Octopole Moments (Debye-Ang^2)
       XXX     -49.0781    XXY      -0.4369    XYY      23.9925
       YYY      -4.8133    XXZ       5.5889    XYZ       1.0686
       YYZ       0.0027    XZZ     -20.3016    YZZ       0.1609
       ZZZ       4.6111
    Hexadecapole Moments (Debye-Ang^3)
      XXXX   -1147.2278   XXXY       5.2672   XXYY    -341.5920
      XYYY       7.9382   YYYY    -755.6491   XXXZ      86.7300
      XXYZ      -4.3244   XYYZ       5.0693   YYYZ     -10.3604
      XXZZ    -241.8057   XYZZ       1.0516   YYZZ    -135.1604
      XZZZ      31.0876   YZZZ      -6.7028   ZZZZ    -224.1385
 -----------------------------------------------------------------
 Calculating analytic gradient of the SCF energy
 Gradient of SCF Energy
            1           2           3           4           5           6
    1   0.0032937  -0.0107041  -0.0112436   0.0064641   0.0029873   0.0014009
    2  -0.0015389   0.0089257  -0.0106322  -0.0193716   0.0222845  -0.0030724
    3   0.0041615  -0.0004310  -0.0046924   0.0030018   0.0045594   0.0041274
            7           8           9          10          11          12
    1   0.0016553   0.0045756   0.0044385   0.0130010  -0.0124483   0.0029486
    2   0.0031187   0.0024948  -0.0020393  -0.0376821   0.0066282   0.0092845
    3   0.0044336  -0.0002632   0.0000717   0.0068568  -0.0026890  -0.0098435
           13          14          15          16          17          18
    1  -0.0126375  -0.0130675   0.0010396   0.0110827   0.0055985   0.0012376
    2   0.0327113  -0.0398963  -0.0045109   0.0362583  -0.0018929   0.0002988
    3  -0.0056861  -0.0118539  -0.0074979   0.0082394   0.0064268   0.0005924
           19
    1   0.0003774
    2  -0.0013683
    3   0.0004863
 Max gradient component =       3.990E-02
 RMS gradient           =       1.215E-02
 Gradient time:  CPU 68.78 s  wall 2.43 s
 Geometry Optimization Parameters
   NAtoms,    NIC,     NZ,  NCons,   NDum,   NFix, NCnnct, MaxDiis
       19     168       0       0       0       0       0       0

 Cartesian Hessian Update
 Hessian updated using Powell/Murtagh-Sargent update
  Mixing factors:     0.000218 Powell                      0.999782 Murtagh-Sargent


** GEOMETRY OPTIMIZATION IN DELOCALIZED INTERNAL COORDINATES **
   Searching for a Transition State

   Optimization Cycle:   2

                       Coordinates (Angstroms)
     ATOM                X               Y               Z
      1  O         1.2455070700   -0.0524315036   -1.2889659168
      2  C         1.6577442847    1.0536158138   -0.6254237329
      3  C         1.6992917342   -1.1030724687   -0.5684882721
      4  C         2.7758506081    0.7052248101    0.1674092228
      5  C         2.7912465035   -0.6602873210    0.2177817810
      6  H         1.3658638508    2.0050334243   -1.0289454729
      7  H         1.4611309778   -2.0897477898   -0.9186902166
      8  H         3.4420557271    1.4029689220    0.6679719029
      9  H         3.4787415514   -1.3005500835    0.7639581473
     10  C        -1.1936706248    1.1571362348    0.1996139537
     11  N        -1.8886254189    0.0317895385   -0.2120623538
     12  C         0.0405659921    0.6742534909    0.8849568522
     13  O        -1.5756127478    2.3187392301    0.0294122398
     14  C        -1.2165048376   -1.1563963016    0.1151440259
     15  C         0.0166255540   -0.7156314699    0.8666454987
     16  O        -1.5981665308   -2.2531592547   -0.1263029682
     17  H        -2.7718920006    0.0510556434   -0.6813121289
     18  H         0.4951615916    1.2955278154    1.6444983600
     19  H         0.4261767154   -1.3827587305    1.6143490778
   Point Group: c1    Number of degrees of freedom:    51


   Energy is   -589.224092442

 Hessian updated using Powell/Murtagh-Sargent update
  Mixing factors:     0.929527 Powell                      0.070473 Murtagh-Sargent

 51 Hessian modes will be used to form the next step
  Hessian Eigenvalues:
     0.003525    0.010700    0.012910    0.013325    0.016454    0.022069
     0.023661    0.028983    0.034942    0.038488    0.039910    0.042509
     0.043521    0.047802    0.052771    0.056558    0.069361    0.070822
     0.077609    0.080663    0.096339    0.100701    0.132876    0.142474
     0.151300    0.159725    0.159871    0.159970    0.165801    0.211837
     0.249699    0.249744    0.300135    0.313225    0.350614    0.351752
     0.351939    0.354560    0.356901    0.358182    0.367485    0.367676
     0.376768    0.429586    0.445742    0.463162    0.476333    0.484710
     0.512262    0.891591    1.121824
**WARNING** Hessian does not have the desired local structure

 Transition state search - taking P-RFO step
 Searching for Lamda that Maximizes Along the Lowest mode
 Value Taken    Lamda =   0.00369349
 Searching for Lamda that Minimizes Along All other modes
 Value Taken    Lamda =  -0.00965652
 Calculated Step too Large.  Step scaled by  0.063935
 Step Taken.  Stepsize is  0.300000

                             Maximum     Tolerance    Cnvgd?
         Gradient           0.032347      0.000300      NO
         Displacement       0.162693      0.001200      NO
         Energy change      0.000254      0.000001      NO


 New Cartesian Coordinates Obtained by Inverse Iteration

 Displacement from previous Coordinates is:  0.448049
 ----------------------------------------------------------------
             Standard Nuclear Orientation (Angstroms)
    I     Atom           X                Y                Z
 ----------------------------------------------------------------
    1      O       1.2426268564    -0.1038331985    -1.2876241642
    2      C       1.6353847832     1.0272470587    -0.6554572230
    3      C       1.7167339800    -1.1252417003    -0.5387441825
    4      C       2.7580732458     0.7227215318     0.1476647469
    5      C       2.8012078463    -0.6416812703     0.2321232017
    6      H       1.3198175562     1.9593275141    -1.0865761008
    7      H       1.5007900002    -2.1269420755    -0.8606063726
    8      H       3.4082182867     1.4460872545     0.6316499286
    9      H       3.5002346615    -1.2544200023     0.7944081819
   10      C      -1.1840671001     1.1706675870     0.2344134706
   11      N      -1.8840630868     0.0610863525    -0.2114306631
   12      C       0.0500273318     0.6594170425     0.8973081697
   13      O      -1.5644690350     2.3371198351     0.1098997642
   14      C      -1.2228534414    -1.1398912298     0.0897955300
   15      C       0.0069203752    -0.7288792524     0.8638586757
   16      O      -1.5925806822    -2.2265553072    -0.2135352663
   17      H      -2.7619158279     0.0991387292    -0.6907923253
   18      H       0.5273111908     1.2607175154     1.6588532920
   19      H       0.3940930591    -1.4147763845     1.6063413366
 ----------------------------------------------------------------
 Nuclear Repulsion Energy =         700.53427667 hartrees
 There are       43 alpha and       43 beta electrons
 Applying Cartesian multipole field
    Component          Value
    ---------          -----
     (2,0,0)        1.00000E-11
     (0,2,0)        2.00000E-11
     (0,0,2)       -3.00000E-11
 Nucleus-field energy     =     0.0000000152 hartrees
 Requested basis set is 6-31G(d)
 There are 62 shells and 194 basis functions
 A cutoff of  1.0D-12 yielded   1728 shell pairs
 There are     17854 function pairs
 Smallest overlap matrix eigenvalue = 7.25E-04
 Guess MOs from SCF MO coefficient file

 -----------------------------------------------------------------------
  General SCF calculation program by
  Eric Jon Sundstrom, Paul Horn, Yuezhi Mao, Dmitri Zuev, Alec White,
  David Stuck, Shaama M.S., Shane Yost, Joonho Lee, David Small,
  Daniel Levine, Susi Lehtola, Hugh Burton, Evgeny Epifanovsky
 -----------------------------------------------------------------------
 Exchange:     0.2220 Hartree-Fock + 1.0000 wB97X-D + LR-HF
 Correlation:  1.0000 wB97X-D
 Using SG-3 standard quadrature grid
 Dispersion:   Grimme D
 using 32 threads for integral computing
 -------------------------------------------------------
 OpenMP Integral computing Module                
 Release: version 1.0, May 2013, Q-Chem Inc. Pittsburgh 
 -------------------------------------------------------
 using 32 threads for integral computing
 -------------------------------------------------------
 OpenMP Integral computing Module                
 Release: version 1.0, May 2013, Q-Chem Inc. Pittsburgh 
 -------------------------------------------------------
 A restricted SCF calculation will be
 performed using DIIS, GDM
 SCF converges when RMS gradient is below 1.0e-08
 ---------------------------------------
  Cycle       Energy         DIIS error
 ---------------------------------------
    1    -589.2186402606      8.42e-04  
    2    -589.2239063087      1.63e-04  Done DIIS. Switching to GDM
 ---------------------------------------
  Cycle       Energy        RMS Gradient
 ---------------------------------------
    1    -589.2239063087      2.99e-03   Normal BFGS step
    2    -589.2241825377      9.98e-04   Normal BFGS step
    3    -589.2241963869      1.43e-03   Normal BFGS step
    4    -589.2242107968      2.61e-04   Normal BFGS step
    5    -589.2242115337      1.33e-04   Normal BFGS step
    6    -589.2242116321      1.08e-04   Normal BFGS step
    7    -589.2242116907      1.74e-05   Normal BFGS step
    8    -589.2242116954      1.14e-05   Normal BFGS step
    9    -589.2242116976      4.15e-06   Normal BFGS step
   10    -589.2242116978      3.13e-06   Normal BFGS step
   11    -589.2242116978      5.95e-07   Normal BFGS step
   12    -589.2242116978      2.70e-07   Normal BFGS step
   13    -589.2242116978      8.36e-08   Normal BFGS step
   14    -589.2242116978      3.63e-08   Normal BFGS step
   15    -589.2242116978      2.26e-08   Normal BFGS step
   16    -589.2242116978      6.16e-09  Convergence criterion met
 ---------------------------------------
 SCF time:   CPU 471.77s  wall 14.00s 
 SCF   energy in the final basis set =     -589.2242116978
 Total energy in the final basis set =     -589.2242116978
 
 --------------------------------------------------------------
 
                    Orbital Energies (a.u.)
 --------------------------------------------------------------
 
 Alpha MOs
 -- Occupied --
-19.3524 -19.2615 -19.2518 -14.4879 -10.4186 -10.4167 -10.3843 -10.3841
-10.3272 -10.3256 -10.3214 -10.3199  -1.2401  -1.1709  -1.1369  -1.0446
 -0.9292  -0.8971  -0.8654  -0.7626  -0.7059  -0.7055  -0.6881  -0.6824
 -0.6568  -0.5922  -0.5725  -0.5551  -0.5462  -0.5326  -0.5272  -0.5156
 -0.5096  -0.5034  -0.4927  -0.4727  -0.4724  -0.3885  -0.3657  -0.3595
 -0.3395  -0.3352  -0.3294
 -- Virtual --
  0.0004   0.0593   0.1060   0.1544   0.1777   0.1796   0.1902   0.2066
  0.2212   0.2294   0.2341   0.2543   0.2595   0.2858   0.2989   0.3090
  0.3301   0.3517   0.3877   0.4261   0.4437   0.4709   0.5049   0.5269
  0.5507   0.5765   0.5960   0.6038   0.6325   0.6399   0.6475   0.6521
  0.6686   0.6851   0.6965   0.7092   0.7291   0.7321   0.7711   0.7832
  0.8034   0.8404   0.8446   0.8631   0.8682   0.8979   0.9014   0.9114
  0.9143   0.9251   0.9355   0.9628   0.9670   0.9781   0.9881   1.0048
  1.0306   1.0608   1.0660   1.0955   1.1067   1.1345   1.1554   1.1799
  1.1884   1.1913   1.2102   1.2589   1.2911   1.3686   1.3921   1.4165
  1.4319   1.4503   1.4640   1.4847   1.4912   1.4971   1.5116   1.5751
  1.6101   1.6219   1.6415   1.6839   1.7089   1.7172   1.7882   1.8472
  1.8578   1.8839   1.8920   1.9033   1.9148   1.9254   1.9386   1.9561
  2.0193   2.0300   2.0686   2.0720   2.0829   2.1216   2.1402   2.1605
  2.1649   2.1839   2.2440   2.2741   2.2833   2.2950   2.3161   2.3432
  2.3531   2.3815   2.4722   2.4839   2.4945   2.5568   2.5717   2.5743
  2.6406   2.7080   2.7203   2.7307   2.7397   2.7812   2.7862   2.8028
  2.8115   2.9087   2.9380   2.9668   3.0012   3.0405   3.0838   3.1091
  3.1678   3.2427   3.2814   4.0774   4.1144   4.1768   4.2308   4.2924
  4.4045   4.4275   4.5200   4.6003   4.6874   4.7399   4.9766
 --------------------------------------------------------------
 
          Ground-State Mulliken Net Atomic Charges

     Atom                 Charge (a.u.)
  ----------------------------------------
      1 O                    -0.363859
      2 C                     0.023747
      3 C                     0.020109
      4 C                    -0.162371
      5 C                    -0.163543
      6 H                     0.222660
      7 H                     0.220857
      8 H                     0.198004
      9 H                     0.195629
     10 C                     0.635087
     11 N                    -0.690999
     12 C                    -0.276089
     13 O                    -0.513359
     14 C                     0.639124
     15 C                    -0.284564
     16 O                    -0.475369
     17 H                     0.369603
     18 H                     0.201815
     19 H                     0.203520
  ----------------------------------------
  Sum of atomic charges =     0.000000

  Building new vdw surfaces
         Merz-Kollman RESP Net Atomic Charges

     Atom                 Charge (a.u.)
  ----------------------------------------
      1 O                    -0.099724
      2 C                    -0.068119
      3 C                    -0.068119
      4 C                    -0.145492
      5 C                    -0.145492
      6 H                     0.196883
      7 H                     0.196883
      8 H                     0.163740
      9 H                     0.163740
     10 C                     0.637973
     11 N                    -0.618783
     12 C                    -0.306168
     13 O                    -0.499354
     14 C                     0.637973
     15 C                    -0.306168
     16 O                    -0.499354
     17 H                     0.389608
     18 H                     0.184987
     19 H                     0.184987
  ----------------------------------------
  Sum of atomic charges =     0.000000

  Related Dipole Moment =     3.9961 (X  3.8865 Y -0.1842 Z  0.9113)

 -----------------------------------------------------------------
                    Cartesian Multipole Moments
 -----------------------------------------------------------------
    Charge (ESU x 10^10)
                 0.0000
    Dipole Moment (Debye)
         X       3.8292      Y      -0.4153      Z       0.9072
       Tot       3.9571
    Quadrupole Moments (Debye-Ang)
        XX     -60.3212     XY       0.5963     YY     -76.1940
        XZ       4.1345     YZ      -1.7606     ZZ     -65.7347
    Octopole Moments (Debye-Ang^2)
       XXX     -49.3207    XXY      -0.2149    XYY      23.5979
       YYY      -6.9312    XXZ       5.5061    XYZ       2.2474
       YYZ      -0.0353    XZZ     -20.2733    YZZ       0.5822
       ZZZ       4.4273
    Hexadecapole Moments (Debye-Ang^3)
      XXXX   -1143.9952   XXXY       8.2458   XXYY    -339.8550
      XYYY      12.9273   YYYY    -753.8577   XXXZ      86.7293
      XXYZ      -8.8494   XYYZ       5.2098   YYYZ     -21.2502
      XXZZ    -241.4285   XYZZ       2.1193   YYZZ    -135.9491
      XZZZ      31.1774   YZZZ     -14.0227   ZZZZ    -226.3470
 -----------------------------------------------------------------
 Calculating analytic gradient of the SCF energy
 Gradient of SCF Energy
            1           2           3           4           5           6
    1   0.0033539  -0.0107356  -0.0115291   0.0065784   0.0030902   0.0009854
    2  -0.0026199   0.0085425  -0.0097701  -0.0180632   0.0216212  -0.0029309
    3   0.0037157   0.0000542  -0.0039739   0.0041096   0.0033847   0.0035741
            7           8           9          10          11          12
    1   0.0019653   0.0042412   0.0043318   0.0127227  -0.0111294   0.0033062
    2   0.0028716   0.0023277  -0.0019187  -0.0356869   0.0070407   0.0091460
    3   0.0045305  -0.0002961  -0.0000006   0.0043897  -0.0030899  -0.0105809
           13          14          15          16          17          18
    1  -0.0123286  -0.0144264   0.0020046   0.0112870   0.0051125   0.0015192
    2   0.0312341  -0.0374097  -0.0044665   0.0339882  -0.0020084  -0.0001865
    3  -0.0035356  -0.0090555  -0.0080675   0.0077666   0.0060255   0.0007380
           19
    1  -0.0003493
    2  -0.0017112
    3   0.0003114
 Max gradient component =       3.741E-02
 RMS gradient           =       1.156E-02
 Gradient time:  CPU 71.39 s  wall 2.74 s
 Geometry Optimization Parameters
   NAtoms,    NIC,     NZ,  NCons,   NDum,   NFix, NCnnct, MaxDiis
       19     168       0       0       0       0       0       0

 Cartesian Hessian Update
 Hessian updated using Powell/Murtagh-Sargent update
  Mixing factors:     0.959022 Powell                      0.040978 Murtagh-Sargent


** GEOMETRY OPTIMIZATION IN DELOCALIZED INTERNAL COORDINATES **
   Searching for a Transition State

   Optimization Cycle:   3

                       Coordinates (Angstroms)
     ATOM                X               Y               Z
      1  O         1.2426268564   -0.1038331985   -1.2876241642
      2  C         1.6353847832    1.0272470587   -0.6554572230
      3  C         1.7167339800   -1.1252417003   -0.5387441825
      4  C         2.7580732458    0.7227215318    0.1476647469
      5  C         2.8012078463   -0.6416812703    0.2321232017
      6  H         1.3198175562    1.9593275141   -1.0865761008
      7  H         1.5007900002   -2.1269420755   -0.8606063726
      8  H         3.4082182867    1.4460872545    0.6316499286
      9  H         3.5002346615   -1.2544200023    0.7944081819
     10  C        -1.1840671001    1.1706675870    0.2344134706
     11  N        -1.8840630868    0.0610863525   -0.2114306631
     12  C         0.0500273318    0.6594170425    0.8973081697
     13  O        -1.5644690350    2.3371198351    0.1098997642
     14  C        -1.2228534414   -1.1398912298    0.0897955300
     15  C         0.0069203752   -0.7288792524    0.8638586757
     16  O        -1.5925806822   -2.2265553072   -0.2135352663
     17  H        -2.7619158279    0.0991387292   -0.6907923253
     18  H         0.5273111908    1.2607175154    1.6588532920
     19  H         0.3940930591   -1.4147763845    1.6063413366
   Point Group: c1    Number of degrees of freedom:    51


   Energy is   -589.224211698

 Hessian updated using Powell/Murtagh-Sargent update
  Mixing factors:     0.957579 Powell                      0.042421 Murtagh-Sargent

 51 Hessian modes will be used to form the next step
  Hessian Eigenvalues:
     0.002040    0.012099    0.012906    0.015265    0.016554    0.022063
     0.023672    0.029115    0.035421    0.038524    0.039957    0.042516
     0.043573    0.047843    0.052790    0.056666    0.069363    0.070862
     0.077608    0.080995    0.096351    0.100723    0.132908    0.142499
     0.151297    0.159731    0.159871    0.159970    0.165827    0.211837
     0.249700    0.249745    0.300135    0.313225    0.350615    0.351754
     0.351940    0.354589    0.356903    0.358182    0.367489    0.367676
     0.376792    0.429590    0.445931    0.463162    0.476334    0.484819
     0.512264    0.891624    1.121833
**WARNING** Hessian does not have the desired local structure

 Transition state search - taking P-RFO step
 Searching for Lamda that Maximizes Along the Lowest mode
 Value Taken    Lamda =   0.00348263
 Searching for Lamda that Minimizes Along All other modes
 Value Taken    Lamda =  -0.00860965
 Calculated Step too Large.  Step scaled by  0.189106
 Step Taken.  Stepsize is  0.300000

                             Maximum     Tolerance    Cnvgd?
         Gradient           0.030473      0.000300      NO
         Displacement       0.146767      0.001200      NO
         Energy change     -0.000119      0.000001      NO


 New Cartesian Coordinates Obtained by Inverse Iteration

 Displacement from previous Coordinates is:  0.446832
 ----------------------------------------------------------------
             Standard Nuclear Orientation (Angstroms)
    I     Atom           X                Y                Z
 ----------------------------------------------------------------
    1      O       1.2438476651    -0.1532362629    -1.2902795689
    2      C       1.6164216586     1.0003351790    -0.6902730608
    3      C       1.7381516556    -1.1444666600    -0.5132925330
    4      C       2.7387392914     0.7417767813     0.1248589125
    5      C       2.8078932215    -0.6220974870     0.2473378115
    6      H       1.2777635438     1.9119677821    -1.1493658263
    7      H       1.5432027968    -2.1593019554    -0.8103113106
    8      H       3.3667798753     1.4909030076     0.5961949538
    9      H       3.5112861221    -1.2059730132     0.8323355231
   10      C      -1.1730235004     1.1827816865     0.2727708156
   11      N      -1.8756166936     0.0898695866    -0.2118514530
   12      C       0.0580015237     0.6416460057     0.9152785165
   13      O      -1.5472006122     2.3508416871     0.1915990181
   14      C      -1.2179766746    -1.1216936446     0.0483616485
   15      C      -0.0031883234    -0.7429127911     0.8597612799
   16      O      -1.5997318523    -2.2013136352    -0.2774519061
   17      H      -2.7498202053     0.1485119285    -0.6988958098
   18      H       0.5570514182     1.2220597029     1.6785646192
   19      H       0.3589090897    -1.4483878981     1.5962083698
 ----------------------------------------------------------------
 Nuclear Repulsion Energy =         700.71093976 hartrees
 There are       43 alpha and       43 beta electrons
 Applying Cartesian multipole field
    Component          Value
    ---------          -----
     (2,0,0)        1.00000E-11
     (0,2,0)        2.00000E-11
     (0,0,2)       -3.00000E-11
 Nucleus-field energy     =     0.0000000150 hartrees
 Requested basis set is 6-31G(d)
 There are 62 shells and 194 basis functions
 A cutoff of  1.0D-12 yielded   1727 shell pairs
 There are     17832 function pairs
 Smallest overlap matrix eigenvalue = 7.27E-04
 Guess MOs from SCF MO coefficient file

 -----------------------------------------------------------------------
  General SCF calculation program by
  Eric Jon Sundstrom, Paul Horn, Yuezhi Mao, Dmitri Zuev, Alec White,
  David Stuck, Shaama M.S., Shane Yost, Joonho Lee, David Small,
  Daniel Levine, Susi Lehtola, Hugh Burton, Evgeny Epifanovsky
 -----------------------------------------------------------------------
 Exchange:     0.2220 Hartree-Fock + 1.0000 wB97X-D + LR-HF
 Correlation:  1.0000 wB97X-D
 Using SG-3 standard quadrature grid
 Dispersion:   Grimme D
 using 32 threads for integral computing
 -------------------------------------------------------
 OpenMP Integral computing Module                
 Release: version 1.0, May 2013, Q-Chem Inc. Pittsburgh 
 -------------------------------------------------------
 using 32 threads for integral computing
 -------------------------------------------------------
 OpenMP Integral computing Module                
 Release: version 1.0, May 2013, Q-Chem Inc. Pittsburgh 
 -------------------------------------------------------
 A restricted SCF calculation will be
 performed using DIIS, GDM
 SCF converges when RMS gradient is below 1.0e-08
 ---------------------------------------
  Cycle       Energy         DIIS error
 ---------------------------------------
    1    -589.2204672960      7.47e-04  
    2    -589.2246306416      1.45e-04  Done DIIS. Switching to GDM
 ---------------------------------------
  Cycle       Energy        RMS Gradient
 ---------------------------------------
    1    -589.2246306416      2.25e-03   Normal BFGS step
    2    -589.2248409237      1.42e-03   Normal BFGS step
    3    -589.2248469981      2.05e-03   Normal BFGS step
    4    -589.2248683917      1.87e-04   Normal BFGS step
    5    -589.2248686401      9.81e-05   Normal BFGS step
    6    -589.2248688009      4.08e-05   Normal BFGS step
    7    -589.2248688103      2.04e-05   Normal BFGS step
    8    -589.2248688150      3.54e-06   Normal BFGS step
    9    -589.2248688152      3.39e-06   Normal BFGS step
   10    -589.2248688153      1.05e-06   Normal BFGS step
   11    -589.2248688153      7.97e-07   Normal BFGS step
   12    -589.2248688153      3.08e-07   Normal BFGS step
   13    -589.2248688153      8.49e-08   Normal BFGS step
   14    -589.2248688153      4.16e-08   Normal BFGS step
   15    -589.2248688153      1.38e-08   Normal BFGS step
   16    -589.2248688153      9.03e-09  Convergence criterion met
 ---------------------------------------
 SCF time:   CPU 471.19s  wall 15.00s 
 SCF   energy in the final basis set =     -589.2248688153
 Total energy in the final basis set =     -589.2248688153
 
 --------------------------------------------------------------
 
                    Orbital Energies (a.u.)
 --------------------------------------------------------------
 
 Alpha MOs
 -- Occupied --
-19.3534 -19.2613 -19.2525 -14.4880 -10.4187 -10.4168 -10.3837 -10.3837
-10.3272 -10.3248 -10.3217 -10.3197  -1.2408  -1.1693  -1.1388  -1.0452
 -0.9291  -0.8975  -0.8655  -0.7629  -0.7063  -0.7052  -0.6879  -0.6824
 -0.6569  -0.5925  -0.5728  -0.5547  -0.5461  -0.5329  -0.5273  -0.5151
 -0.5093  -0.5040  -0.4939  -0.4734  -0.4725  -0.3885  -0.3660  -0.3599
 -0.3401  -0.3348  -0.3292
 -- Virtual --
  0.0003   0.0596   0.1069   0.1539   0.1751   0.1794   0.1901   0.2071
  0.2204   0.2297   0.2338   0.2542   0.2602   0.2854   0.2988   0.3100
  0.3294   0.3522   0.3886   0.4238   0.4469   0.4705   0.5042   0.5262
  0.5506   0.5770   0.5951   0.6053   0.6321   0.6401   0.6467   0.6535
  0.6690   0.6857   0.6948   0.7096   0.7296   0.7337   0.7700   0.7821
  0.8042   0.8405   0.8456   0.8635   0.8673   0.8970   0.8999   0.9110
  0.9140   0.9242   0.9354   0.9634   0.9658   0.9738   0.9885   1.0061
  1.0296   1.0560   1.0660   1.0993   1.1046   1.1363   1.1540   1.1764
  1.1891   1.1968   1.2128   1.2574   1.2893   1.3634   1.3895   1.4117
  1.4270   1.4512   1.4635   1.4862   1.4911   1.5047   1.5131   1.5693
  1.6064   1.6263   1.6478   1.6859   1.7085   1.7168   1.7877   1.8482
  1.8595   1.8824   1.8953   1.9037   1.9129   1.9238   1.9358   1.9588
  2.0193   2.0302   2.0698   2.0735   2.0822   2.1222   2.1365   2.1620
  2.1679   2.1806   2.2446   2.2734   2.2847   2.2973   2.3184   2.3447
  2.3529   2.3821   2.4703   2.4850   2.4937   2.5539   2.5711   2.5764
  2.6387   2.7096   2.7227   2.7319   2.7380   2.7813   2.7880   2.8051
  2.8125   2.9065   2.9399   2.9697   3.0023   3.0398   3.0842   3.1082
  3.1688   3.2427   3.2809   4.0783   4.1104   4.1865   4.2337   4.2942
  4.4054   4.4301   4.5208   4.6018   4.6853   4.7487   4.9749
 --------------------------------------------------------------
 
          Ground-State Mulliken Net Atomic Charges

     Atom                 Charge (a.u.)
  ----------------------------------------
      1 O                    -0.363796
      2 C                     0.027478
      3 C                     0.018377
      4 C                    -0.166199
      5 C                    -0.163207
      6 H                     0.221728
      7 H                     0.220188
      8 H                     0.198127
      9 H                     0.195247
     10 C                     0.633277
     11 N                    -0.692267
     12 C                    -0.275083
     13 O                    -0.509976
     14 C                     0.641544
     15 C                    -0.282127
     16 O                    -0.478118
     17 H                     0.369501
     18 H                     0.200361
     19 H                     0.204943
  ----------------------------------------
  Sum of atomic charges =     0.000000

  Building new vdw surfaces
         Merz-Kollman RESP Net Atomic Charges

     Atom                 Charge (a.u.)
  ----------------------------------------
      1 O                    -0.097663
      2 C                    -0.068470
      3 C                    -0.068470
      4 C                    -0.148605
      5 C                    -0.148605
      6 H                     0.195699
      7 H                     0.195699
      8 H                     0.164833
      9 H                     0.164833
     10 C                     0.626202
     11 N                    -0.605283
     12 C                    -0.298156
     13 O                    -0.496132
     14 C                     0.626202
     15 C                    -0.298156
     16 O                    -0.496132
     17 H                     0.385224
     18 H                     0.183491
     19 H                     0.183491
  ----------------------------------------
  Sum of atomic charges =     0.000000

  Related Dipole Moment =     3.9524 (X  3.8528 Y -0.1866 Z  0.8617)

 -----------------------------------------------------------------
                    Cartesian Multipole Moments
 -----------------------------------------------------------------
    Charge (ESU x 10^10)
                 0.0000
    Dipole Moment (Debye)
         X       3.7944      Y      -0.3878      Z       0.8609
       Tot       3.9101
    Quadrupole Moments (Debye-Ang)
        XX     -60.5578     XY       0.3907     YY     -76.1321
        XZ       4.2562     YZ      -2.5583     ZZ     -65.7136
    Octopole Moments (Debye-Ang^2)
       XXX     -50.0763    XXY       0.5027    XYY      23.0687
       YYY      -8.5812    XXZ       5.4206    XYZ       3.1792
       YYZ      -0.3379    XZZ     -20.1727    YZZ       0.9496
       ZZZ       4.3236
    Hexadecapole Moments (Debye-Ang^3)
      XXXX   -1142.9221   XXXY       9.2229   XXYY    -338.1943
      XYYY      16.1239   YYYY    -750.9409   XXXZ      87.7666
      XXYZ     -12.8716   XYYZ       6.0872   YYYZ     -31.0717
      XXZZ    -241.1791   XYZZ       2.8754   YYZZ    -137.0483
      XZZZ      32.1434   YZZZ     -20.8363   ZZZZ    -230.1956
 -----------------------------------------------------------------
 Calculating analytic gradient of the SCF energy
 Gradient of SCF Energy
            1           2           3           4           5           6
    1   0.0038324  -0.0117206  -0.0120452   0.0069766   0.0032227   0.0005755
    2  -0.0028163   0.0064275  -0.0077722  -0.0153985   0.0192992  -0.0025036
    3   0.0022239   0.0015689  -0.0023201   0.0043950   0.0029944   0.0026335
            7           8           9          10          11          12
    1   0.0020255   0.0035442   0.0037394   0.0101439  -0.0097783   0.0044723
    2   0.0021741   0.0019446  -0.0015467  -0.0303982   0.0067518   0.0096549
    3   0.0041139  -0.0004218  -0.0001219   0.0032654  -0.0003869  -0.0109414
           13          14          15          16          17          18
    1  -0.0101804  -0.0090416   0.0014544   0.0085693   0.0038438   0.0015216
    2   0.0263990  -0.0307192  -0.0053502   0.0277772  -0.0018859  -0.0005520
    3  -0.0018558  -0.0131479  -0.0070400   0.0084880   0.0052400   0.0006441
           19
    1  -0.0011553
    2  -0.0014858
    3   0.0006688
 Max gradient component =       3.072E-02
 RMS gradient           =       9.959E-03
 Gradient time:  CPU 70.82 s  wall 2.75 s
 Geometry Optimization Parameters
   NAtoms,    NIC,     NZ,  NCons,   NDum,   NFix, NCnnct, MaxDiis
       19     168       0       0       0       0       0       0

 Cartesian Hessian Update
 Hessian updated using Powell/Murtagh-Sargent update
  Mixing factors:     0.968919 Powell                      0.031081 Murtagh-Sargent


** GEOMETRY OPTIMIZATION IN DELOCALIZED INTERNAL COORDINATES **
   Searching for a Transition State

   Optimization Cycle:   4

                       Coordinates (Angstroms)
     ATOM                X               Y               Z
      1  O         1.2438476651   -0.1532362629   -1.2902795689
      2  C         1.6164216586    1.0003351790   -0.6902730608
      3  C         1.7381516556   -1.1444666600   -0.5132925330
      4  C         2.7387392914    0.7417767813    0.1248589125
      5  C         2.8078932215   -0.6220974870    0.2473378115
      6  H         1.2777635438    1.9119677821   -1.1493658263
      7  H         1.5432027968   -2.1593019554   -0.8103113106
      8  H         3.3667798753    1.4909030076    0.5961949538
      9  H         3.5112861221   -1.2059730132    0.8323355231
     10  C        -1.1730235004    1.1827816865    0.2727708156
     11  N        -1.8756166936    0.0898695866   -0.2118514530
     12  C         0.0580015237    0.6416460057    0.9152785165
     13  O        -1.5472006122    2.3508416871    0.1915990181
     14  C        -1.2179766746   -1.1216936446    0.0483616485
     15  C        -0.0031883234   -0.7429127911    0.8597612799
     16  O        -1.5997318523   -2.2013136352   -0.2774519061
     17  H        -2.7498202053    0.1485119285   -0.6988958098
     18  H         0.5570514182    1.2220597029    1.6785646192
     19  H         0.3589090897   -1.4483878981    1.5962083698
   Point Group: c1    Number of degrees of freedom:    51


   Energy is   -589.224868815

 Hessian updated using Powell/Murtagh-Sargent update
  Mixing factors:     0.986980 Powell                      0.013020 Murtagh-Sargent

 51 Hessian modes will be used to form the next step
  Hessian Eigenvalues:
     0.001768    0.012195    0.012842    0.016309    0.017919    0.022007
     0.023672    0.029112    0.035823    0.038574    0.040336    0.042535
     0.043746    0.048124    0.052829    0.056990    0.069376    0.070865
     0.077596    0.081007    0.096115    0.100757    0.133050    0.142501
     0.151151    0.159731    0.159869    0.159969    0.165830    0.211845
     0.249713    0.249744    0.300121    0.313230    0.350662    0.351755
     0.351938    0.354589    0.356902    0.358182    0.367491    0.367679
     0.376874    0.429591    0.446142    0.463154    0.476338    0.484824
     0.512257    0.891554    1.121785
**WARNING** Hessian does not have the desired local structure

 Transition state search - taking P-RFO step
 Searching for Lamda that Maximizes Along the Lowest mode
 Value Taken    Lamda =   0.00242698
 Searching for Lamda that Minimizes Along All other modes
 Value Taken    Lamda =  -0.00809224
 Calculated Step too Large.  Step scaled by  0.153737
 Step Taken.  Stepsize is  0.300000

                             Maximum     Tolerance    Cnvgd?
         Gradient           0.025388      0.000300      NO
         Displacement       0.147116      0.001200      NO
         Energy change     -0.000657      0.000001      NO


 New Cartesian Coordinates Obtained by Inverse Iteration

 Displacement from previous Coordinates is:  0.456027
 ----------------------------------------------------------------
             Standard Nuclear Orientation (Angstroms)
    I     Atom           X                Y                Z
 ----------------------------------------------------------------
    1      O       1.2430144498    -0.1026891520    -1.2956726950
    2      C       1.6319487813     1.0259468223    -0.6581404866
    3      C       1.7156813012    -1.1224736859    -0.5438244099
    4      C       2.7490469725     0.7239686234     0.1501476097
    5      C       2.7960361155    -0.6441989461     0.2308858502
    6      H       1.3151222243     1.9579469426    -1.0933805765
    7      H       1.4991815504    -2.1242333542    -0.8717930346
    8      H       3.3888770529     1.4474406567     0.6434672608
    9      H       3.4870836744    -1.2578315513     0.7986957232
   10      C      -1.1779360710     1.1721945322     0.2351282049
   11      N      -1.8747534788     0.0612192107    -0.2118167296
   12      C       0.0542645066     0.6591216922     0.8979258721
   13      O      -1.5529697937     2.3343702515     0.1112822758
   14      C      -1.2075897373    -1.1387429376     0.0786778825
   15      C       0.0113460734    -0.7279293115     0.8650981540
   16      O      -1.5959918733    -2.2325436232    -0.1944482935
   17      H      -2.7550941247     0.1009832219    -0.6919224359
   18      H       0.5288360795     1.2602657843     1.6605674896
   19      H       0.3953862969    -1.4115051761     1.6106723386
 ----------------------------------------------------------------
 Nuclear Repulsion Energy =         701.13570840 hartrees
 There are       43 alpha and       43 beta electrons
 Applying Cartesian multipole field
    Component          Value
    ---------          -----
     (2,0,0)        1.00000E-11
     (0,2,0)        2.00000E-11
     (0,0,2)       -3.00000E-11
 Nucleus-field energy     =     0.0000000151 hartrees
 Requested basis set is 6-31G(d)
 There are 62 shells and 194 basis functions
 A cutoff of  1.0D-12 yielded   1728 shell pairs
 There are     17854 function pairs
 Smallest overlap matrix eigenvalue = 7.18E-04
 Guess MOs from SCF MO coefficient file

 -----------------------------------------------------------------------
  General SCF calculation program by
  Eric Jon Sundstrom, Paul Horn, Yuezhi Mao, Dmitri Zuev, Alec White,
  David Stuck, Shaama M.S., Shane Yost, Joonho Lee, David Small,
  Daniel Levine, Susi Lehtola, Hugh Burton, Evgeny Epifanovsky
 -----------------------------------------------------------------------
 Exchange:     0.2220 Hartree-Fock + 1.0000 wB97X-D + LR-HF
 Correlation:  1.0000 wB97X-D
 Using SG-3 standard quadrature grid
 Dispersion:   Grimme D
 using 32 threads for integral computing
 -------------------------------------------------------
 OpenMP Integral computing Module                
 Release: version 1.0, May 2013, Q-Chem Inc. Pittsburgh 
 -------------------------------------------------------
 using 32 threads for integral computing
 -------------------------------------------------------
 OpenMP Integral computing Module                
 Release: version 1.0, May 2013, Q-Chem Inc. Pittsburgh 
 -------------------------------------------------------
 A restricted SCF calculation will be
 performed using DIIS, GDM
 SCF converges when RMS gradient is below 1.0e-08
 ---------------------------------------
  Cycle       Energy         DIIS error
 ---------------------------------------
    1    -589.2202527551      8.19e-04  
    2    -589.2252617488      1.57e-04  Done DIIS. Switching to GDM
 ---------------------------------------
  Cycle       Energy        RMS Gradient
 ---------------------------------------
    1    -589.2252617488      2.70e-03   Normal BFGS step
    2    -589.2255262328      1.03e-03   Normal BFGS step
    3    -589.2255453347      1.17e-03   Normal BFGS step
    4    -589.2255526630      4.80e-04   Normal BFGS step
    5    -589.2255538056      2.38e-04   Normal BFGS step
    6    -589.2255540140      9.62e-05   Normal BFGS step
    7    -589.2255541063      2.53e-05   Normal BFGS step
    8    -589.2255541092      1.79e-05   Normal BFGS step
    9    -589.2255541136      5.39e-06   Normal BFGS step
   10    -589.2255541138      2.15e-06   Normal BFGS step
   11    -589.2255541138      6.75e-07   Normal BFGS step
   12    -589.2255541138      4.46e-07   Normal BFGS step
   13    -589.2255541138      8.64e-08   Normal BFGS step
   14    -589.2255541138      4.63e-08   Normal BFGS step
   15    -589.2255541138      1.71e-08   Normal BFGS step
   16    -589.2255541138      1.09e-08   Normal BFGS step
   17    -589.2255541138      2.66e-09  Convergence criterion met
 ---------------------------------------
 SCF time:   CPU 496.50s  wall 16.00s 
 SCF   energy in the final basis set =     -589.2255541138
 Total energy in the final basis set =     -589.2255541138
 
 --------------------------------------------------------------
 
                    Orbital Energies (a.u.)
 --------------------------------------------------------------
 
 Alpha MOs
 -- Occupied --
-19.3528 -19.2610 -19.2525 -14.4882 -10.4189 -10.4164 -10.3843 -10.3842
-10.3271 -10.3255 -10.3212 -10.3195  -1.2409  -1.1684  -1.1395  -1.0453
 -0.9295  -0.8973  -0.8657  -0.7632  -0.7065  -0.7053  -0.6875  -0.6827
 -0.6572  -0.5928  -0.5726  -0.5543  -0.5458  -0.5325  -0.5274  -0.5151
 -0.5093  -0.5044  -0.4935  -0.4734  -0.4729  -0.3889  -0.3657  -0.3599
 -0.3405  -0.3348  -0.3296
 -- Virtual --
  0.0007   0.0597   0.1060   0.1542   0.1775   0.1794   0.1897   0.2069
  0.2204   0.2293   0.2338   0.2552   0.2598   0.2856   0.2996   0.3095
  0.3294   0.3517   0.3886   0.4265   0.4447   0.4715   0.5041   0.5275
  0.5505   0.5762   0.5961   0.6041   0.6331   0.6391   0.6479   0.6523
  0.6701   0.6853   0.6964   0.7097   0.7298   0.7344   0.7699   0.7825
  0.8038   0.8404   0.8447   0.8632   0.8676   0.8983   0.9005   0.9113
  0.9146   0.9250   0.9357   0.9636   0.9666   0.9767   0.9873   1.0045
  1.0307   1.0623   1.0681   1.0983   1.1063   1.1340   1.1541   1.1798
  1.1870   1.1935   1.2130   1.2563   1.2913   1.3643   1.3931   1.4152
  1.4344   1.4525   1.4642   1.4848   1.4900   1.5003   1.5103   1.5748
  1.6105   1.6206   1.6437   1.6873   1.7102   1.7174   1.7883   1.8483
  1.8583   1.8849   1.8944   1.9022   1.9181   1.9265   1.9397   1.9576
  2.0218   2.0313   2.0710   2.0719   2.0833   2.1224   2.1433   2.1611
  2.1663   2.1828   2.2465   2.2716   2.2847   2.2981   2.3190   2.3463
  2.3516   2.3812   2.4721   2.4841   2.4950   2.5592   2.5692   2.5737
  2.6425   2.7112   2.7229   2.7322   2.7383   2.7842   2.7874   2.8044
  2.8121   2.9076   2.9364   2.9714   3.0027   3.0390   3.0846   3.1082
  3.1705   3.2417   3.2823   4.0767   4.1171   4.1755   4.2352   4.2947
  4.4092   4.4320   4.5218   4.6033   4.6911   4.7497   4.9792
 --------------------------------------------------------------
 
          Ground-State Mulliken Net Atomic Charges

     Atom                 Charge (a.u.)
  ----------------------------------------
      1 O                    -0.363764
      2 C                     0.024227
      3 C                     0.018932
      4 C                    -0.163373
      5 C                    -0.162474
      6 H                     0.222364
      7 H                     0.220481
      8 H                     0.197846
      9 H                     0.195880
     10 C                     0.636244
     11 N                    -0.691989
     12 C                    -0.277224
     13 O                    -0.509613
     14 C                     0.641400
     15 C                    -0.283769
     16 O                    -0.479962
     17 H                     0.369555
     18 H                     0.201318
     19 H                     0.203920
  ----------------------------------------
  Sum of atomic charges =     0.000000

  Building new vdw surfaces
         Merz-Kollman RESP Net Atomic Charges

     Atom                 Charge (a.u.)
  ----------------------------------------
      1 O                    -0.106825
      2 C                    -0.061564
      3 C                    -0.061564
      4 C                    -0.147367
      5 C                    -0.147367
      6 H                     0.193666
      7 H                     0.193666
      8 H                     0.163897
      9 H                     0.163897
     10 C                     0.629432
     11 N                    -0.608692
     12 C                    -0.297076
     13 O                    -0.497437
     14 C                     0.629432
     15 C                    -0.297076
     16 O                    -0.497437
     17 H                     0.385792
     18 H                     0.181311
     19 H                     0.181311
  ----------------------------------------
  Sum of atomic charges =     0.000000

  Related Dipole Moment =     3.9774 (X  3.8770 Y -0.1482 Z  0.8755)

 -----------------------------------------------------------------
                    Cartesian Multipole Moments
 -----------------------------------------------------------------
    Charge (ESU x 10^10)
                 0.0000
    Dipole Moment (Debye)
         X       3.8194      Y      -0.3408      Z       0.8743
       Tot       3.9330
    Quadrupole Moments (Debye-Ang)
        XX     -60.5098     XY       0.3619     YY     -76.2422
        XZ       4.2482     YZ      -1.6553     ZZ     -65.6511
    Octopole Moments (Debye-Ang^2)
       XXX     -50.1928    XXY       0.2129    XYY      23.3675
       YYY      -6.2338    XXZ       5.5237    XYZ       2.0948
       YYZ      -0.1998    XZZ     -20.3161    YZZ       0.5992
       ZZZ       4.5923
    Hexadecapole Moments (Debye-Ang^3)
      XXXX   -1140.3422   XXXY       6.0507   XXYY    -338.8411
      XYYY      11.2161   YYYY    -754.5317   XXXZ      87.3074
      XXYZ      -8.4242   XYYZ       5.7523   YYYZ     -20.5022
      XXZZ    -240.0630   XYZZ       1.9273   YYZZ    -135.9152
      XZZZ      31.7236   YZZZ     -13.7823   ZZZZ    -227.1964
 -----------------------------------------------------------------
 Calculating analytic gradient of the SCF energy
 Gradient of SCF Energy
            1           2           3           4           5           6
    1   0.0034003  -0.0094850  -0.0102569   0.0057160   0.0033952   0.0003366
    2  -0.0023037   0.0053814  -0.0056516  -0.0140348   0.0166219  -0.0020315
    3   0.0022454   0.0013874  -0.0021042   0.0040154   0.0034288   0.0025295
            7           8           9          10          11          12
    1   0.0014964   0.0032723   0.0034317   0.0091281  -0.0085076   0.0026577
    2   0.0017484   0.0015737  -0.0014238  -0.0285640   0.0073095   0.0085142
    3   0.0036717  -0.0006490  -0.0004389   0.0040995   0.0008893  -0.0106117
           13          14          15          16          17          18
    1  -0.0089819  -0.0067600   0.0001804   0.0071172   0.0029684   0.0012735
    2   0.0237516  -0.0287565  -0.0041302   0.0248810  -0.0015153  -0.0002703
    3  -0.0027887  -0.0134684  -0.0056458   0.0076443   0.0049304   0.0003175
           19
    1  -0.0003827
    2  -0.0011000
    3   0.0005475
 Max gradient component =       2.876E-02
 RMS gradient           =       9.026E-03
 Gradient time:  CPU 68.48 s  wall 2.41 s
 Geometry Optimization Parameters
   NAtoms,    NIC,     NZ,  NCons,   NDum,   NFix, NCnnct, MaxDiis
       19     168       0       0       0       0       0       0

 Cartesian Hessian Update
 Hessian updated using Powell/Murtagh-Sargent update
  Mixing factors:     0.962397 Powell                      0.037603 Murtagh-Sargent


** GEOMETRY OPTIMIZATION IN DELOCALIZED INTERNAL COORDINATES **
   Searching for a Transition State

   Optimization Cycle:   5

                       Coordinates (Angstroms)
     ATOM                X               Y               Z
      1  O         1.2430144498   -0.1026891520   -1.2956726950
      2  C         1.6319487813    1.0259468223   -0.6581404866
      3  C         1.7156813012   -1.1224736859   -0.5438244099
      4  C         2.7490469725    0.7239686234    0.1501476097
      5  C         2.7960361155   -0.6441989461    0.2308858502
      6  H         1.3151222243    1.9579469426   -1.0933805765
      7  H         1.4991815504   -2.1242333542   -0.8717930346
      8  H         3.3888770529    1.4474406567    0.6434672608
      9  H         3.4870836744   -1.2578315513    0.7986957232
     10  C        -1.1779360710    1.1721945322    0.2351282049
     11  N        -1.8747534788    0.0612192107   -0.2118167296
     12  C         0.0542645066    0.6591216922    0.8979258721
     13  O        -1.5529697937    2.3343702515    0.1112822758
     14  C        -1.2075897373   -1.1387429376    0.0786778825
     15  C         0.0113460734   -0.7279293115    0.8650981540
     16  O        -1.5959918733   -2.2325436232   -0.1944482935
     17  H        -2.7550941247    0.1009832219   -0.6919224359
     18  H         0.5288360795    1.2602657843    1.6605674896
     19  H         0.3953862969   -1.4115051761    1.6106723386
   Point Group: c1    Number of degrees of freedom:    51


   Energy is   -589.225554114

 Hessian updated using Powell/Murtagh-Sargent update
  Mixing factors:     0.998061 Powell                      0.001939 Murtagh-Sargent

 51 Hessian modes will be used to form the next step
  Hessian Eigenvalues:
     0.002265    0.012164    0.012804    0.016309    0.018539    0.021959
     0.023671    0.029143    0.035935    0.038580    0.040377    0.042543
     0.043741    0.048102    0.052911    0.057049    0.069380    0.070893
     0.077588    0.081029    0.095972    0.100757    0.133084    0.142499
     0.151038    0.159731    0.159868    0.159968    0.165833    0.211861
     0.249714    0.249749    0.300116    0.313298    0.350662    0.351756
     0.351937    0.354589    0.356902    0.358184    0.367492    0.367678
     0.376865    0.429591    0.446086    0.463214    0.476342    0.484827
     0.512267    0.891506    1.121745
**WARNING** Hessian does not have the desired local structure

 Transition state search - taking P-RFO step
 Searching for Lamda that Maximizes Along the Lowest mode
 Value Taken    Lamda =   0.00274104
 Searching for Lamda that Minimizes Along All other modes
 Value Taken    Lamda =  -0.00760847
 Calculated Step too Large.  Step scaled by  0.123565
 Step Taken.  Stepsize is  0.300000

                             Maximum     Tolerance    Cnvgd?
         Gradient           0.022719      0.000300      NO
         Displacement       0.147191      0.001200      NO
         Energy change     -0.000685      0.000001      NO


[...]
 -------------------------------------------------------
 using 32 threads for integral computing
 -------------------------------------------------------
 OpenMP Integral computing Module                
 Release: version 1.0, May 2013, Q-Chem Inc. Pittsburgh 
 -------------------------------------------------------
 A restricted SCF calculation will be
 performed using DIIS, GDM
 SCF converges when RMS gradient is below 1.0e-08
 ---------------------------------------
  Cycle       Energy         DIIS error
 ---------------------------------------
    1    -589.2303720986      3.02e-05  
    2    -589.2303800406      6.58e-06  Done DIIS. Switching to GDM
 ---------------------------------------
  Cycle       Energy        RMS Gradient
 ---------------------------------------
    1    -589.2303800406      1.51e-04   Normal BFGS step
    2    -589.2303805737      9.68e-05   Normal BFGS step
    3    -589.2303806105      1.11e-04   Normal BFGS step
    4    -589.2303806617      1.01e-05   Normal BFGS step
    5    -589.2303806622      9.71e-06   Normal BFGS step
    6    -589.2303806631      4.39e-06   Normal BFGS step
    7    -589.2303806631      2.10e-06   Normal BFGS step
    8    -589.2303806631      2.60e-07   Normal BFGS step
    9    -589.2303806631      1.51e-07   Normal BFGS step
   10    -589.2303806631      8.04e-08   Normal BFGS step
   11    -589.2303806631      4.04e-08   Normal BFGS step
   12    -589.2303806631      8.59e-09  Convergence criterion met
 ---------------------------------------
 SCF time:   CPU 373.14s  wall 12.00s 
 SCF   energy in the final basis set =     -589.2303806631
 Total energy in the final basis set =     -589.2303806631
 
 --------------------------------------------------------------
 
                    Orbital Energies (a.u.)
 --------------------------------------------------------------
 
 Alpha MOs
 -- Occupied --
-19.3506 -19.2549 -19.2549 -14.4890 -10.4168 -10.4167 -10.3887 -10.3887
-10.3272 -10.3265 -10.3221 -10.3215  -1.2403  -1.1623  -1.1432  -1.0459
 -0.9324  -0.8967  -0.8676  -0.7645  -0.7076  -0.7041  -0.6881  -0.6839
 -0.6579  -0.5997  -0.5724  -0.5512  -0.5443  -0.5318  -0.5244  -0.5114
 -0.5073  -0.5067  -0.4941  -0.4751  -0.4726  -0.3939  -0.3647  -0.3592
 -0.3493  -0.3310  -0.3305
 -- Virtual --
  0.0061   0.0629   0.1087   0.1557   0.1769   0.1772   0.1874   0.2089
  0.2192   0.2273   0.2350   0.2550   0.2584   0.2794   0.2993   0.3077
  0.3320   0.3470   0.3873   0.4322   0.4441   0.4775   0.5000   0.5323
  0.5520   0.5842   0.5939   0.6011   0.6346   0.6368   0.6450   0.6523
  0.6688   0.6899   0.7027   0.7098   0.7289   0.7385   0.7692   0.7842
  0.8058   0.8403   0.8434   0.8596   0.8709   0.8925   0.8950   0.9063
  0.9157   0.9284   0.9477   0.9647   0.9676   0.9795   0.9905   1.0072
  1.0285   1.0768   1.1012   1.1033   1.1199   1.1392   1.1642   1.1852
  1.1962   1.2028   1.2411   1.2611   1.3105   1.3552   1.3976   1.4046
  1.4228   1.4590   1.4807   1.4852   1.4949   1.5033   1.5311   1.5872
  1.6136   1.6296   1.6324   1.7035   1.7210   1.7360   1.8050   1.8527
  1.8567   1.8933   1.8940   1.8999   1.9264   1.9437   1.9641   1.9669
  2.0277   2.0672   2.0800   2.0893   2.0960   2.1327   2.1607   2.1667
  2.1715   2.1851   2.2649   2.2724   2.2889   2.3037   2.3133   2.3484
  2.3575   2.3880   2.4803   2.4819   2.4990   2.5565   2.5697   2.5705
  2.6614   2.7088   2.7122   2.7403   2.7427   2.7898   2.7924   2.8029
  2.8140   2.8964   2.9068   2.9759   2.9989   3.0307   3.0915   3.1051
  3.1721   3.2427   3.2854   4.0396   4.1646   4.2031   4.2450   4.3036
  4.4345   4.4433   4.5543   4.6243   4.7200   4.7502   4.9986
 --------------------------------------------------------------
 
          Ground-State Mulliken Net Atomic Charges

     Atom                 Charge (a.u.)
  ----------------------------------------
      1 O                    -0.370082
      2 C                     0.021393
      3 C                     0.021357
      4 C                    -0.154970
      5 C                    -0.154896
      6 H                     0.223992
      7 H                     0.223970
      8 H                     0.196389
      9 H                     0.196389
     10 C                     0.643055
     11 N                    -0.682187
     12 C                    -0.287247
     13 O                    -0.501502
     14 C                     0.643068
     15 C                    -0.287262
     16 O                    -0.501474
     17 H                     0.369878
     18 H                     0.200058
     19 H                     0.200071
  ----------------------------------------
  Sum of atomic charges =     0.000000

  Building new vdw surfaces
         Merz-Kollman RESP Net Atomic Charges

     Atom                 Charge (a.u.)
  ----------------------------------------
      1 O                    -0.140646
      2 C                    -0.020478
      3 C                    -0.020478
      4 C                    -0.162941
      5 C                    -0.162941
      6 H                     0.186261
      7 H                     0.186261
      8 H                     0.168285
      9 H                     0.168285
     10 C                     0.578364
     11 N                    -0.547442
     12 C                    -0.265662
     13 O                    -0.493203
     14 C                     0.578364
     15 C                    -0.265662
     16 O                    -0.493203
     17 H                     0.369790
     18 H                     0.168523
     19 H                     0.168523
  ----------------------------------------
  Sum of atomic charges =     0.000000

  Related Dipole Moment =     3.9837 (X  3.8989 Y -0.0012 Z  0.8176)

 -----------------------------------------------------------------
                    Cartesian Multipole Moments
 -----------------------------------------------------------------
    Charge (ESU x 10^10)
                 0.0000
    Dipole Moment (Debye)
         X       3.8418      Y      -0.0015      Z       0.8216
       Tot       3.9286
    Quadrupole Moments (Debye-Ang)
        XX     -61.7482     XY      -0.0077     YY     -76.5985
        XZ       4.6704     YZ      -0.0048     ZZ     -64.8289
    Octopole Moments (Debye-Ang^2)
       XXX     -50.9723    XXY       0.0907    XYY      20.9719
       YYY       0.1517    XXZ       4.2381    XYZ      -0.0092
       YYZ      -0.3576    XZZ     -21.9345    YZZ       0.0605
       ZZZ       3.9212
    Hexadecapole Moments (Debye-Ang^3)
      XXXX   -1056.9270   XXXY       0.0926   XXYY    -317.5928
      XYYY       0.0243   YYYY    -760.0954   XXXZ      80.9892
      XXYZ      -0.0263   XYYZ       4.8133   YYYZ       0.0272
      XXZZ    -218.8786   XYZZ       0.0468   YYZZ    -136.6004
      XZZZ      30.2824   YZZZ      -0.0080   ZZZZ    -234.6762
 -----------------------------------------------------------------
 Calculating analytic gradient of the SCF energy
 Gradient of SCF Energy
            1           2           3           4           5           6
    1  -0.0000060   0.0000059   0.0000179  -0.0000004  -0.0000015  -0.0000147
    2  -0.0000183   0.0000053   0.0000416  -0.0000142  -0.0000032  -0.0000020
    3  -0.0000198  -0.0000091  -0.0000164  -0.0000007   0.0000074   0.0000065
            7           8           9          10          11          12
    1   0.0000014   0.0000086   0.0000002  -0.0000273   0.0000009  -0.0000065
    2   0.0000030  -0.0000018  -0.0000020  -0.0000120   0.0000188  -0.0000119
    3  -0.0000017  -0.0000190   0.0000020  -0.0000035  -0.0000088   0.0000365
           13          14          15          16          17          18
    1   0.0000068   0.0000295   0.0000056  -0.0000084  -0.0000079   0.0000183
    2  -0.0000016  -0.0000021   0.0000019  -0.0000007  -0.0000010   0.0000007
    3   0.0000010   0.0000075  -0.0000049   0.0000041   0.0000124  -0.0000074
           19
    1  -0.0000222
    2  -0.0000004
    3   0.0000137
 Max gradient component =       4.155E-05
 RMS gradient           =       1.290E-05
 Gradient time:  CPU 69.76 s  wall 2.43 s
 Geometry Optimization Parameters
   NAtoms,    NIC,     NZ,  NCons,   NDum,   NFix, NCnnct, MaxDiis
       19     168       0       0       0       0       0       0

 Cartesian Hessian Update
 Hessian updated using Powell/Murtagh-Sargent update
  Mixing factors:     0.991515 Powell                      0.008485 Murtagh-Sargent


** GEOMETRY OPTIMIZATION IN DELOCALIZED INTERNAL COORDINATES **
   Searching for a Transition State

   Optimization Cycle:  27

                       Coordinates (Angstroms)
     ATOM                X               Y               Z
      1  O         1.1204652502   -0.0017583357   -1.3014524546
      2  C         1.5592115423    1.0704722159   -0.5937883808
      3  C         1.5587245636   -1.0736136241   -0.5929398658
      4  C         2.6989082615    0.6860331567    0.1480633922
      5  C         2.6985502091   -0.6891597600    0.1486988629
      6  H         1.2951552258    2.0377806065   -0.9985276826
      7  H         1.2945899548   -2.0411078688   -0.9971899942
      8  H         3.3387726772    1.3537600054    0.7071899395
      9  H         3.3378694529   -1.3567150095    0.7086700579
     10  C        -1.1048784362    1.1593830090    0.1831147981
     11  N        -1.7315011828   -0.0000851199   -0.2677236122
     12  C         0.0942697218    0.6983786562    0.9517203386
     13  O        -1.4743434230    2.2897253988   -0.0397864526
     14  C        -1.1057756052   -1.1600560242    0.1831856302
     15  C         0.0937471275   -0.7000278451    0.9517732563
     16  O        -1.4763049749   -2.2900822907   -0.0395314849
     17  H        -2.5212527985    0.0001920997   -0.8957275312
     18  H         0.4885670974    1.3336526649    1.7325952199
     19  H         0.4867153367   -1.3354619353    1.7332059633
   Point Group: c1    Number of degrees of freedom:    51


   Energy is   -589.230380663

 Hessian updated using Powell/Murtagh-Sargent update
  Mixing factors:     0.998894 Powell                      0.001106 Murtagh-Sargent

 51 Hessian modes will be used to form the next step
  Hessian Eigenvalues:
    -0.024462    0.003081    0.009183    0.015433    0.017861    0.020483
     0.021329    0.025809    0.030786    0.033633    0.038589    0.040585
     0.041070    0.043538    0.051061    0.059018    0.070213    0.074953
     0.079081    0.079724    0.090831    0.100373    0.133473    0.141060
     0.149660    0.159728    0.159886    0.159955    0.166285    0.211872
     0.248812    0.249855    0.298630    0.310676    0.347173    0.351796
     0.351985    0.353551    0.356897    0.358166    0.367489    0.367682
     0.373732    0.422526    0.432680    0.459392    0.476368    0.484551
     0.512617    0.890981    1.120541

 Transition state search - taking P-RFO step
 Searching for Lamda that Maximizes Along the Lowest mode
 Value Taken    Lamda =   0.00000001
 Searching for Lamda that Minimizes Along All other modes
 Value Taken    Lamda =   0.00000000
 Step Taken.  Stepsize is  0.003580

                             Maximum     Tolerance    Cnvgd?
         Gradient           0.000025      0.000300     YES
         Displacement       0.001855      0.001200      NO
         Energy change     -0.000001      0.000001     YES

 Final energy is   -589.230380663132     


 ******************************
 **  OPTIMIZATION CONVERGED  **
 ******************************

                       Coordinates (Angstroms)
     ATOM                X               Y               Z
      1  O         1.1204652502   -0.0017583357   -1.3014524546
      2  C         1.5592115423    1.0704722159   -0.5937883808
      3  C         1.5587245636   -1.0736136241   -0.5929398658
      4  C         2.6989082615    0.6860331567    0.1480633922
      5  C         2.6985502091   -0.6891597600    0.1486988629
      6  H         1.2951552258    2.0377806065   -0.9985276826
      7  H         1.2945899548   -2.0411078688   -0.9971899942
      8  H         3.3387726772    1.3537600054    0.7071899395
      9  H         3.3378694529   -1.3567150095    0.7086700579
     10  C        -1.1048784362    1.1593830090    0.1831147981
     11  N        -1.7315011828   -0.0000851199   -0.2677236122
     12  C         0.0942697218    0.6983786562    0.9517203386
     13  O        -1.4743434230    2.2897253988   -0.0397864526
     14  C        -1.1057756052   -1.1600560242    0.1831856302
     15  C         0.0937471275   -0.7000278451    0.9517732563
     16  O        -1.4763049749   -2.2900822907   -0.0395314849
     17  H        -2.5212527985    0.0001920997   -0.8957275312
     18  H         0.4885670974    1.3336526649    1.7325952199
     19  H         0.4867153367   -1.3354619353    1.7332059633

Z-matrix Print:
$molecule
0 1
O 
C  1 1.357547
H  2 1.081310 1 115.624536
C  1 1.357559 2 104.312692 3 179.333732 0
H  4 1.081307 1 115.627246 2 -179.307113 0
C  2 1.413165 1 108.632046 3 155.074600 0
H  6 1.080707 2 125.523289 1 -171.874291 0
C  6 1.375193 2 105.784451 1 15.981123 0
H  8 1.080698 6 128.154293 2 171.888010 0
C  2 2.161449 1 91.015013 3 -107.023333 0
H  10 1.081128 2 99.707067 1 -165.854993 0
C  10 1.398407 2 99.936699 1 -36.418291 0
H  12 1.081115 10 125.995314 2 -109.738534 0
C  10 1.497066 2 97.068107 1 73.237175 0
O  14 1.209898 10 128.820847 2 77.863561 0
N  14 1.392977 10 105.677502 2 -101.090571 0
H  16 1.009008 14 123.592995 10 173.649695 0
C  16 1.392939 14 112.725058 10 -3.065402 0
O  18 1.209902 16 125.496595 14 -177.947212 0
$end

 
 --------------------------------------------------------------
 
                    Orbital Energies (a.u.)
 --------------------------------------------------------------
 
 Alpha MOs
 -- Occupied --
-19.3506 -19.2549 -19.2549 -14.4890 -10.4168 -10.4167 -10.3887 -10.3887
-10.3272 -10.3265 -10.3221 -10.3215  -1.2403  -1.1623  -1.1432  -1.0459
 -0.9324  -0.8967  -0.8676  -0.7645  -0.7076  -0.7041  -0.6881  -0.6839
 -0.6579  -0.5997  -0.5724  -0.5512  -0.5443  -0.5318  -0.5244  -0.5114
 -0.5073  -0.5067  -0.4941  -0.4751  -0.4726  -0.3939  -0.3647  -0.3592
 -0.3493  -0.3310  -0.3305
 -- Virtual --
  0.0061   0.0629   0.1087   0.1557   0.1769   0.1772   0.1874   0.2089
  0.2192   0.2273   0.2350   0.2550   0.2584   0.2794   0.2993   0.3077
  0.3320   0.3470   0.3873   0.4322   0.4441   0.4775   0.5000   0.5323
  0.5520   0.5842   0.5939   0.6011   0.6346   0.6368   0.6450   0.6523
  0.6688   0.6899   0.7027   0.7098   0.7289   0.7385   0.7692   0.7842
  0.8058   0.8403   0.8434   0.8596   0.8709   0.8925   0.8950   0.9063
  0.9157   0.9284   0.9477   0.9647   0.9676   0.9795   0.9905   1.0072
  1.0285   1.0768   1.1012   1.1033   1.1199   1.1392   1.1642   1.1852
  1.1962   1.2028   1.2411   1.2611   1.3105   1.3552   1.3976   1.4046
  1.4228   1.4590   1.4807   1.4852   1.4949   1.5033   1.5311   1.5872
  1.6136   1.6296   1.6324   1.7035   1.7210   1.7360   1.8050   1.8527
  1.8567   1.8933   1.8940   1.8999   1.9264   1.9437   1.9641   1.9669
  2.0277   2.0672   2.0800   2.0893   2.0960   2.1327   2.1607   2.1667
  2.1715   2.1851   2.2649   2.2724   2.2889   2.3037   2.3133   2.3484
  2.3575   2.3880   2.4803   2.4819   2.4990   2.5565   2.5697   2.5705
  2.6614   2.7088   2.7122   2.7403   2.7427   2.7898   2.7924   2.8029
  2.8140   2.8964   2.9068   2.9759   2.9989   3.0307   3.0915   3.1051
  3.1721   3.2427   3.2854   4.0396   4.1646   4.2031   4.2450   4.3036
  4.4345   4.4433   4.5543   4.6243   4.7200   4.7502   4.9986
 --------------------------------------------------------------
 
          Ground-State Mulliken Net Atomic Charges

     Atom                 Charge (a.u.)
  ----------------------------------------
      1 O                    -0.370082
      2 C                     0.021393
      3 C                     0.021357
      4 C                    -0.154970
      5 C                    -0.154896
      6 H                     0.223992
      7 H                     0.223970
      8 H                     0.196389
      9 H                     0.196389
     10 C                     0.643055
     11 N                    -0.682187
     12 C                    -0.287247
     13 O                    -0.501502
     14 C                     0.643068
     15 C                    -0.287262
     16 O                    -0.501474
     17 H                     0.369878
     18 H                     0.200058
     19 H                     0.200071
  ----------------------------------------
  Sum of atomic charges =     0.000000

         Merz-Kollman RESP Net Atomic Charges

     Atom                 Charge (a.u.)
  ----------------------------------------
      1 O                    -0.140646
      2 C                    -0.020478
      3 C                    -0.020478
      4 C                    -0.162941
      5 C                    -0.162941
      6 H                     0.186261
      7 H                     0.186261
      8 H                     0.168285
      9 H                     0.168285
     10 C                     0.578364
     11 N                    -0.547442
     12 C                    -0.265662
     13 O                    -0.493203
     14 C                     0.578364
     15 C                    -0.265662
     16 O                    -0.493203
     17 H                     0.369790
     18 H                     0.168523
     19 H                     0.168523
  ----------------------------------------
  Sum of atomic charges =     0.000000

  Related Dipole Moment =     3.9837 (X  3.8989 Y -0.0012 Z  0.8176)

 -----------------------------------------------------------------
                    Cartesian Multipole Moments
 -----------------------------------------------------------------
    Charge (ESU x 10^10)
                 0.0000
    Dipole Moment (Debye)
         X       3.8418      Y      -0.0015      Z       0.8216
       Tot       3.9286
    Quadrupole Moments (Debye-Ang)
        XX     -61.7482     XY      -0.0077     YY     -76.5985
        XZ       4.6704     YZ      -0.0048     ZZ     -64.8289
    Octopole Moments (Debye-Ang^2)
       XXX     -50.9723    XXY       0.0907    XYY      20.9719
       YYY       0.1517    XXZ       4.2381    XYZ      -0.0092
       YYZ      -0.3576    XZZ     -21.9345    YZZ       0.0605
       ZZZ       3.9212
    Hexadecapole Moments (Debye-Ang^3)
      XXXX   -1056.9270   XXXY       0.0926   XXYY    -317.5928
      XYYY       0.0243   YYYY    -760.0954   XXXZ      80.9892
      XXYZ      -0.0263   XYYZ       4.8133   YYYZ       0.0272
      XXZZ    -218.8786   XYZZ       0.0468   YYZZ    -136.6004
      XZZZ      30.2824   YZZZ      -0.0080   ZZZZ    -234.6762
 -----------------------------------------------------------------
Archival summary:
1\1\nid12990\TS\ProcedureUnspecified\6-31G*\3187\ewcss\FriSep2716:27:462019FriSep2716:27:462019\0\\#,TS,ProcedureUnspecified,6-31G*,\\0,1\O\C,1,1.35755\H,2,1.08131,1,115.625\C,1,1.35756,2,104.313,3,179.334,0\H,4,1.08131,1,115.627,2,-179.307,0\C,2,1.41316,1,108.632,3,155.075,0\H,6,1.08071,2,125.523,1,-171.874,0\C,6,1.37519,2,105.784,1,15.9811,0\H,8,1.0807,6,128.154,2,171.888,0\C,2,2.16145,1,91.015,3,-107.023,0\H,10,1.08113,2,99.7071,1,-165.855,0\C,10,1.39841,2,99.9367,1,-36.4183,0\H,12,1.08111,10,125.995,2,-109.739,0\C,10,1.49707,2,97.0681,1,73.2372,0\O,14,1.2099,10,128.821,2,77.8636,0\N,14,1.39298,10,105.678,2,-101.091,0\H,16,1.00901,14,123.593,10,173.65,0\C,16,1.39294,14,112.725,10,-3.0654,0\O,18,1.2099,16,125.497,14,-177.947,0\\\@

 Total job time:  485.32s(wall), 14930.67s(cpu) 
 Fri Sep 27 16:27:46 2019

        *************************************************************
        *                                                           *
        *  Thank you very much for using Q-Chem.  Have a nice day.  *
        *                                                           *
        *************************************************************


