
Running Job 1 of 1 mol.qin
qchem mol.qin_6552.0 /tmp/chain_scratch/ 0
/global/common/cori/software/qchem/5.2/exe/qcprog.exe_s mol.qin_6552.0 /tmp/chain_scratch/
                  Welcome to Q-Chem
     A Quantum Leap Into The Future Of Chemistry


 Q-Chem 5.2, Q-Chem, Inc., Pleasanton, CA (2019)

 License issued to: National Energy Research Scientific Computing Center

 Yihan Shao,  Zhengting Gan,  E. Epifanovsky,  A. T. B. Gilbert,  M. Wormit,  
 J. Kussmann,  A. W. Lange,  A. Behn,  Jia Deng,  Xintian Feng,  D. Ghosh,  
 M. Goldey,  P. R. Horn,  L. D. Jacobson,  I. Kaliman,  T. Kus,  A. Landau,  
 Jie Liu,  E. I. Proynov,  R. M. Richard,  R. P. Steele,  E. J. Sundstrom,  
 H. L. Woodcock III,  P. M. Zimmerman,  D. Zuev,  B. Albrecht,  E. Alguire,  
 S. A. Baeppler,  D. Barton,  Z. Benda,  Y. A. Bernard,  E. J. Berquist,  
 K. B. Bravaya,  H. Burton,  D. Casanova,  Chun-Min Chang,  Yunqing Chen,  
 A. Chien,  K. D. Closser,  M. P. Coons,  S. Coriani,  S. Dasgupta,  
 A. L. Dempwolff,  M. Diedenhofen,  Hainam Do,  R. G. Edgar,  Po-Tung Fang,  
 S. Faraji,  S. Fatehi,  Qingguo Feng,  K. D. Fenk,  J. Fosso-Tande,  
 J. Gayvert,  Qinghui Ge,  A. Ghysels,  G. Gidofalvi,  J. Gomes,  
 J. Gonthier,  A. Gunina,  D. Hait,  M. W. D. Hanson-Heine,  
 P. H. P. Harbach,  A. W. Hauser,  M. F. Herbst,  J. E. Herr,  
 E. G. Hohenstein,  Z. C. Holden,  Kerwin Hui,  B. C. Huynh,  T.-C. Jagau,  
 Hyunjun Ji,  B. Kaduk,  K. Khistyaev,  Jaehoon Kim,  P. Klunzinger,  K. Koh,  
 D. Kosenkov,  L. Koulias,  T. Kowalczyk,  C. M. Krauter,  A. Kunitsa,  
 Ka Un Lao,  A. Laurent,  K. V. Lawler,  Joonho Lee,  D. Lefrancois,  
 S. Lehtola,  D. S. Levine,  Yi-Pei Li,  You-Sheng Lin,  Fenglai Liu,  
 E. Livshits,  A. Luenser,  P. Manohar,  E. Mansoor,  S. F. Manzer,  
 Shan-Ping Mao,  Yuezhi Mao,  N. Mardirossian,  A. V. Marenich,  
 T. Markovich,  L. A. Martinez-Martinez,  S. A. Maurer,  N. J. Mayhall,  
 S. C. McKenzie,  J.-M. Mewes,  P. Morgante,  A. F. Morrison,  
 J. W. Mullinax,  K. Nanda,  T. S. Nguyen-Beck,  R. Olivares-Amaya,  
 J. A. Parkhill,  Zheng Pei,  T. M. Perrine,  F. Plasser,  P. Pokhilko,  
 S. Prager,  A. Prociuk,  E. Ramos,  D. R. Rehn,  F. Rob,  M. Scheurer,  
 M. Schneider,  N. Sergueev,  S. M. Sharada,  S. Sharma,  D. W. Small,  
 T. Stauch,  T. Stein,  Yu-Chuan Su,  A. J. W. Thom,  A. Tkatchenko,  
 T. Tsuchimochi,  N. M. Tubman,  L. Vogt,  M. L. Vidal,  O. Vydrov,  
 M. A. Watson,  J. Wenzel,  M. de Wergifosse,  T. A. Wesolowski,  A. White,  
 J. Witte,  A. Yamada,  Jun Yang,  K. Yao,  S. Yeganeh,  S. R. Yost,  
 Zhi-Qiang You,  A. Zech,  Igor Ying Zhang,  Xing Zhang,  Yan Zhao,  
 Ying Zhu,  B. R. Brooks,  G. K. L. Chan,  C. J. Cramer,  M. S. Gordon,  
 W. J. Hehre,  A. Klamt,  M. W. Schmidt,  C. D. Sherrill,  D. G. Truhlar,  
 A. Aspuru-Guzik,  R. Baer,  A. T. Bell,  N. A. Besley,  Jeng-Da Chai,  
 A. E. DePrince, III,  R. A. DiStasio Jr.,  A. Dreuw,  B. D. Dunietz,  
 T. R. Furlani,  Chao-Ping Hsu,  Yousung Jung,  Jing Kong,  D. S. Lambrecht,  
 WanZhen Liang,  C. Ochsenfeld,  V. A. Rassolov,  L. V. Slipchenko,  
 J. E. Subotnik,  T. Van Voorhis,  J. M. Herbert,  A. I. Krylov,  
 P. M. W. Gill,  M. Head-Gordon

 Contributors to earlier versions of Q-Chem not listed above: 
 R. D. Adamson,  B. Austin,  J. Baker,  G. J. O. Beran,  K. Brandhorst,  
 S. T. Brown,  E. F. C. Byrd,  A. K. Chakraborty,  C.-L. Cheng,  
 Siu Hung Chien,  D. M. Chipman,  D. L. Crittenden,  H. Dachsel,  
 R. J. Doerksen,  A. D. Dutoi,  L. Fusti-Molnar,  W. A. Goddard III,  
 A. Golubeva-Zadorozhnaya,  S. R. Gwaltney,  G. Hawkins,  A. Heyden,  
 S. Hirata,  G. Kedziora,  F. J. Keil,  C. Kelley,  Jihan Kim,  R. A. King,  
 R. Z. Khaliullin,  P. P. Korambath,  W. Kurlancheek,  A. M. Lee,  M. S. Lee,  
 S. V. Levchenko,  Ching Yeh Lin,  D. Liotard,  R. C. Lochan,  I. Lotan,  
 P. E. Maslen,  N. Nair,  D. P. O'Neill,  D. Neuhauser,  E. Neuscamman,  
 C. M. Oana,  R. Olson,  B. Peters,  R. Peverati,  P. A. Pieniazek,  
 Y. M. Rhee,  J. Ritchie,  M. A. Rohrdanz,  E. Rosta,  N. J. Russ,  
 H. F. Schaefer III,  N. E. Schultz,  N. Shenvi,  A. C. Simmonett,  A. Sodt,  
 D. Stuck,  K. S. Thanthiriwatte,  V. Vanovschi,  Tao Wang,  A. Warshel,  
 C. F. Williams,  Q. Wu,  X. Xu,  W. Zhang

 Please cite Q-Chem as follows:
 Y. Shao et al., Mol. Phys. 113, 184-215 (2015)
 DOI: 10.1080/00268976.2014.952696

 Q-Chem 5.2.0 for Intel X86 EM64T Linux

 Parts of Q-Chem use Armadillo 8.300.2 (Tropical Shenanigans).
 http://arma.sourceforge.net/

 Q-Chem begins on Fri Sep 27 16:27:50 2019  

Host: cori05
0

     Scratch files written to /tmp/chain_scratch//
 May1019 |scratch|qcdevops|jenkins|workspace|build_RNUM -1
Processing $rem in /global/common/cori/software/qchem/5.2/config/preferences:
	 MEM_TOTAL  96000 
NAlpha2: 86
NElect   86
Mult     1

Checking the input file for inconsistencies... 	...done.

--------------------------------------------------------------
User input:
--------------------------------------------------------------
$molecule
0 1
O      1.1204652502     -0.0017583357     -1.3014524546
C      1.5592115423      1.0704722159     -0.5937883808
C      1.5587245636     -1.0736136241     -0.5929398658
C      2.6989082615      0.6860331567      0.1480633922
C      2.6985502091     -0.6891597600      0.1486988629
H      1.2951552258      2.0377806065     -0.9985276826
H      1.2945899548     -2.0411078688     -0.9971899942
H      3.3387726772      1.3537600054      0.7071899395
H      3.3378694529     -1.3567150095      0.7086700579
C     -1.1048784362      1.1593830090      0.1831147981
N     -1.7315011828     -0.0000851199     -0.2677236122
C      0.0942697218      0.6983786562      0.9517203386
O     -1.4743434230      2.2897253988     -0.0397864526
C     -1.1057756052     -1.1600560242      0.1831856302
C      0.0937471275     -0.7000278451      0.9517732563
O     -1.4763049749     -2.2900822907     -0.0395314849
H     -2.5212527985      0.0001920997     -0.8957275312
H      0.4885670974      1.3336526649      1.7325952199
H      0.4867153367     -1.3354619353      1.7332059633
$end

$rem
job_type = freq
basis = 6-31g*
max_scf_cycles = 200
gen_scfman = true
xc_grid = 3
scf_algorithm = diis_gdm
resp_charges = true
symmetry = false
sym_ignore = true
method = wb97xd
geom_opt_max_cycles = 200
$end
--------------------------------------------------------------
 ----------------------------------------------------------------
             Standard Nuclear Orientation (Angstroms)
    I     Atom           X                Y                Z
 ----------------------------------------------------------------
    1      O       1.1204652502    -0.0017583357    -1.3014524546
    2      C       1.5592115423     1.0704722159    -0.5937883808
    3      C       1.5587245636    -1.0736136241    -0.5929398658
    4      C       2.6989082615     0.6860331567     0.1480633922
    5      C       2.6985502091    -0.6891597600     0.1486988629
    6      H       1.2951552258     2.0377806065    -0.9985276826
    7      H       1.2945899548    -2.0411078688    -0.9971899942
    8      H       3.3387726772     1.3537600054     0.7071899395
    9      H       3.3378694529    -1.3567150095     0.7086700579
   10      C      -1.1048784362     1.1593830090     0.1831147981
   11      N      -1.7315011828    -0.0000851199    -0.2677236122
   12      C       0.0942697218     0.6983786562     0.9517203386
   13      O      -1.4743434230     2.2897253988    -0.0397864526
   14      C      -1.1057756052    -1.1600560242     0.1831856302
   15      C       0.0937471275    -0.7000278451     0.9517732563
   16      O      -1.4763049749    -2.2900822907    -0.0395314849
   17      H      -2.5212527985     0.0001920997    -0.8957275312
   18      H       0.4885670974     1.3336526649     1.7325952199
   19      H       0.4867153367    -1.3354619353     1.7332059633
 ----------------------------------------------------------------
 Nuclear Repulsion Energy =         711.47900159 hartrees
 There are       43 alpha and       43 beta electrons
 Requested basis set is 6-31G(d)
 There are 62 shells and 194 basis functions

 Total QAlloc Memory Limit  96000 MB
 Mega-Array Size       188 MB
 MEM_STATIC part       192 MB
 A cutoff of  1.0D-12 yielded   1747 shell pairs
 There are     17969 function pairs
 Smallest overlap matrix eigenvalue = 6.92E-04
 Guess from superposition of atomic densities
 Warning:  Energy on first SCF cycle will be non-variational
 SAD guess density has 86.000000 electrons

 -----------------------------------------------------------------------
  General SCF calculation program by
  Eric Jon Sundstrom, Paul Horn, Yuezhi Mao, Dmitri Zuev, Alec White,
  David Stuck, Shaama M.S., Shane Yost, Joonho Lee, David Small,
  Daniel Levine, Susi Lehtola, Hugh Burton, Evgeny Epifanovsky
 -----------------------------------------------------------------------
 Exchange:     0.2220 Hartree-Fock + 1.0000 wB97X-D + LR-HF
 Correlation:  1.0000 wB97X-D
 Using SG-3 standard quadrature grid
 Dispersion:   Grimme D
 using 32 threads for integral computing
 -------------------------------------------------------
 OpenMP Integral computing Module                
 Release: version 1.0, May 2013, Q-Chem Inc. Pittsburgh 
 -------------------------------------------------------
 using 32 threads for integral computing
 -------------------------------------------------------
 OpenMP Integral computing Module                
 Release: version 1.0, May 2013, Q-Chem Inc. Pittsburgh 
 -------------------------------------------------------
 A restricted SCF calculation will be
 performed using DIIS, GDM
 SCF converges when RMS gradient is below 1.0e-08
 ---------------------------------------
  Cycle       Energy         DIIS error
 ---------------------------------------
    1    -592.6964969042      5.95e-02  
    2    -589.0012023888      7.54e-03  Done DIIS. Switching to GDM
 ---------------------------------------
  Cycle       Energy        RMS Gradient
 ---------------------------------------
    1    -589.0012023888      2.61e-01   Descent step
    2    -589.2046257028      6.36e-02   Normal BFGS step
    3    -589.2232861793      2.96e-02   Normal BFGS step
    4    -589.2297160396      6.96e-03   Normal BFGS step
    5    -589.2302914735      2.29e-03   Normal BFGS step
    6    -589.2303618669      1.77e-03   Normal BFGS step
    7    -589.2303777562      5.10e-04   Normal BFGS step
    8    -589.2303801012      1.98e-04   Normal BFGS step
    9    -589.2303806020      5.77e-05   Normal BFGS step
   10    -589.2303806529      3.22e-05   Normal BFGS step
   11    -589.2303806612      1.83e-05   Normal BFGS step
   12    -589.2303806627      4.15e-06   Normal BFGS step
   13    -589.2303806629      2.11e-06   Normal BFGS step
   14    -589.2303806630      4.10e-07   Normal BFGS step
   15    -589.2303806630      1.82e-07   Normal BFGS step
   16    -589.2303806630      5.09e-08   Normal BFGS step
   17    -589.2303806630      2.55e-08   Normal BFGS step
   18    -589.2303806630      1.11e-08   Normal BFGS step
   19    -589.2303806630      5.51e-09  Convergence criterion met
 ---------------------------------------
 SCF time:   CPU 577.49s  wall 19.00s 
 SCF   energy in the final basis set =     -589.2303806630
 Total energy in the final basis set =     -589.2303806630
 
 --------------------------------------------------------------
 
                    Orbital Energies (a.u.)
 --------------------------------------------------------------
 
 Alpha MOs
 -- Occupied --
-19.3506 -19.2549 -19.2549 -14.4890 -10.4168 -10.4167 -10.3887 -10.3887
-10.3272 -10.3265 -10.3221 -10.3215  -1.2403  -1.1623  -1.1432  -1.0459
 -0.9324  -0.8967  -0.8676  -0.7645  -0.7076  -0.7041  -0.6881  -0.6839
 -0.6579  -0.5997  -0.5724  -0.5512  -0.5443  -0.5318  -0.5244  -0.5114
 -0.5073  -0.5067  -0.4941  -0.4751  -0.4726  -0.3939  -0.3647  -0.3592
 -0.3493  -0.3310  -0.3305
 -- Virtual --
  0.0061   0.0629   0.1087   0.1557   0.1769   0.1772   0.1874   0.2089
  0.2192   0.2273   0.2350   0.2550   0.2584   0.2794   0.2993   0.3077
  0.3320   0.3470   0.3873   0.4322   0.4441   0.4775   0.5000   0.5323
  0.5520   0.5842   0.5939   0.6011   0.6346   0.6368   0.6450   0.6523
  0.6688   0.6899   0.7027   0.7098   0.7289   0.7385   0.7692   0.7842
  0.8058   0.8403   0.8434   0.8596   0.8709   0.8925   0.8950   0.9063
  0.9157   0.9284   0.9477   0.9647   0.9676   0.9795   0.9905   1.0072
  1.0285   1.0768   1.1012   1.1033   1.1199   1.1392   1.1642   1.1852
  1.1962   1.2028   1.2411   1.2611   1.3105   1.3552   1.3976   1.4046
  1.4228   1.4590   1.4807   1.4852   1.4949   1.5033   1.5311   1.5872
  1.6136   1.6296   1.6324   1.7035   1.7210   1.7360   1.8050   1.8527
  1.8567   1.8933   1.8940   1.8999   1.9264   1.9437   1.9641   1.9669
  2.0277   2.0672   2.0800   2.0893   2.0960   2.1327   2.1607   2.1667
  2.1715   2.1851   2.2649   2.2724   2.2889   2.3037   2.3133   2.3484
  2.3575   2.3880   2.4803   2.4819   2.4990   2.5565   2.5697   2.5705
  2.6614   2.7088   2.7122   2.7403   2.7427   2.7898   2.7924   2.8029
  2.8140   2.8964   2.9068   2.9759   2.9989   3.0307   3.0915   3.1051
  3.1721   3.2427   3.2854   4.0396   4.1646   4.2031   4.2450   4.3036
  4.4345   4.4433   4.5543   4.6243   4.7200   4.7502   4.9986
 --------------------------------------------------------------
 
          Ground-State Mulliken Net Atomic Charges

     Atom                 Charge (a.u.)
  ----------------------------------------
      1 O                    -0.370082
      2 C                     0.021393
      3 C                     0.021357
      4 C                    -0.154970
      5 C                    -0.154896
      6 H                     0.223992
      7 H                     0.223970
      8 H                     0.196389
      9 H                     0.196389
     10 C                     0.643055
     11 N                    -0.682187
     12 C                    -0.287247
     13 O                    -0.501502
     14 C                     0.643068
     15 C                    -0.287262
     16 O                    -0.501474
     17 H                     0.369878
     18 H                     0.200058
     19 H                     0.200071
  ----------------------------------------
  Sum of atomic charges =     0.000000

  Building new vdw surfaces
         Merz-Kollman RESP Net Atomic Charges

     Atom                 Charge (a.u.)
  ----------------------------------------
      1 O                    -0.140646
      2 C                    -0.020478
      3 C                    -0.020478
      4 C                    -0.162941
      5 C                    -0.162941
      6 H                     0.186261
      7 H                     0.186261
      8 H                     0.168285
      9 H                     0.168285
     10 C                     0.578364
     11 N                    -0.547442
     12 C                    -0.265662
     13 O                    -0.493203
     14 C                     0.578364
     15 C                    -0.265662
     16 O                    -0.493203
     17 H                     0.369790
     18 H                     0.168523
     19 H                     0.168523
  ----------------------------------------
  Sum of atomic charges =     0.000000

  Related Dipole Moment =     3.9837 (X  3.8989 Y -0.0012 Z  0.8176)

 -----------------------------------------------------------------
                    Cartesian Multipole Moments
 -----------------------------------------------------------------
    Charge (ESU x 10^10)
                 0.0000
    Dipole Moment (Debye)
         X       3.8418      Y      -0.0015      Z       0.8216
       Tot       3.9286
    Quadrupole Moments (Debye-Ang)
        XX     -61.7482     XY      -0.0077     YY     -76.5985
        XZ       4.6704     YZ      -0.0048     ZZ     -64.8289
    Octopole Moments (Debye-Ang^2)
       XXX     -50.9723    XXY       0.0907    XYY      20.9719
       YYY       0.1517    XXZ       4.2381    XYZ      -0.0092
       YYZ      -0.3576    XZZ     -21.9345    YZZ       0.0605
       ZZZ       3.9212
    Hexadecapole Moments (Debye-Ang^3)
      XXXX   -1056.9270   XXXY       0.0926   XXYY    -317.5928
      XYYY       0.0243   YYYY    -760.0954   XXXZ      80.9892
      XXYZ      -0.0263   XYYZ       4.8133   YYYZ       0.0272
      XXZZ    -218.8786   XYZZ       0.0468   YYZZ    -136.6004
      XZZZ      30.2824   YZZZ      -0.0080   ZZZZ    -234.6762
 -----------------------------------------------------------------
 Calculating MO derivatives via CPSCF
    1     0    60    0.0343328  
    2     0    60    0.0075094  
    3     0    60    0.0014907  
    4     0    60    0.0002671  
    5    21    39    0.0000289  
    6    57     3    0.0000025  
    7    60     0    0.0000003  Converged
 Time for AOints: 57.4 s (CPU) 1.9 s (wall)
 ------------------------------------------------------------------------------
                     AOints        : Timing summary (seconds)
 ------------------------------------------------------------------------------
     job step          cpu (% of tot)      sys (% of tot)     wall (% of tot)
 ------------------------------------------------------------------------------
  AOints            0.5742E+02 ( 2.5)   0.1100E-03 ( 1.6)   0.1872E+01 ( 2.6)
 ------------------------------------------------------------------------------
   Grand Totals     0.2286E+04          0.6699E-02          0.7256E+02
 ------------------------------------------------------------------------------
 Polarizability Matrix (a.u.)
            1           2           3
    1-106.5394027  -0.0007861  -3.6081704
    2  -0.0007861-106.6739782   0.0099436
    3  -3.6081704   0.0099436 -62.5054808
 Calculating analytic Hessian of the SCF energy
atom: 0 element: 8
atom: 1 element: 6
atom: 2 element: 6
atom: 3 element: 6
atom: 4 element: 6
atom: 5 element: 1
atom: 6 element: 1
atom: 7 element: 1
atom: 8 element: 1
atom: 9 element: 6
atom: 10 element: 7
atom: 11 element: 6
atom: 12 element: 8
atom: 13 element: 6
atom: 14 element: 6
atom: 15 element: 8
atom: 16 element: 1
atom: 17 element: 1
atom: 18 element: 1
 
 Direct stationary perturbation theory relativistic correction:
 
 rels  =       0.178594559791
 relv  =      -0.898097883081
 rel2e =       0.000000000000
 E_rel =      -0.719503323290
 
 Hessian of the SCF Energy
            1           2           3           4           5           6
    1   0.2702738   0.0001048   0.1559697  -0.0886523  -0.0393600  -0.0552827
    2   0.0001048   0.5079107  -0.0001172  -0.0731372  -0.2093135  -0.0823152
    3   0.1559697  -0.0001172   0.3506334  -0.0860823  -0.0601900  -0.1250227
    4  -0.0886523  -0.0731372  -0.0860823   0.3476997  -0.0985204   0.2801085
    5  -0.0393600  -0.2093135  -0.0601900  -0.0985204   0.7885587  -0.0991109
    6  -0.0552827  -0.0823152  -0.1250227   0.2801085  -0.0991109   0.3472750
    7  -0.0886114   0.0730517  -0.0860878  -0.0615741   0.0026851   0.0234800
    8   0.0392797  -0.2092687   0.0603025  -0.0027028  -0.1178931  -0.0100090
    9  -0.0552405   0.0824115  -0.1252139   0.0234876   0.0100966   0.0082935
   10  -0.0373752  -0.0218343  -0.0181407  -0.1995965   0.0497834  -0.1426004
   11  -0.0071009  -0.0147887  -0.0194178   0.0169209  -0.1196300   0.0477985
   12  -0.0488869  -0.0337169  -0.0208860  -0.1040480   0.0396975  -0.1396903
   13  -0.0373549   0.0218224  -0.0181457   0.0265009   0.0224807  -0.0137479
   14   0.0070750  -0.0147689   0.0194212   0.0848837  -0.0289745   0.0202352
   15  -0.0488707   0.0337298  -0.0209258   0.0095153   0.0102812  -0.0069736
   16   0.0002543  -0.0101509   0.0099658  -0.0593439   0.0706245  -0.0472626
   17   0.0046197  -0.0231305   0.0097361   0.0697443  -0.2961663   0.1005710
   18   0.0092549  -0.0277412   0.0069261  -0.0519217   0.1192821  -0.0932062
   19   0.0002524   0.0101410   0.0099572   0.0034418   0.0049810  -0.0025903
   20  -0.0046212  -0.0231256  -0.0097187   0.0022724  -0.0009981   0.0045855
   21   0.0092641   0.0277648   0.0069145  -0.0065796  -0.0006193  -0.0034702
   22  -0.0013387   0.0001781  -0.0039445  -0.0044101  -0.0167312  -0.0070421
   23   0.0042798   0.0012734   0.0027233   0.0047465   0.0108841   0.0067693
   24  -0.0057819  -0.0028252   0.0012638  -0.0008457  -0.0103443  -0.0038296
   25  -0.0013399  -0.0001806  -0.0039473   0.0029973  -0.0020833  -0.0044256
   26  -0.0042846   0.0012760  -0.0027205  -0.0006839  -0.0069592   0.0001229
   27  -0.0057758   0.0028268   0.0012637  -0.0045531  -0.0027925   0.0026114
   28   0.0008450  -0.0081501  -0.0059551  -0.0224541   0.0046358   0.0167159
   29  -0.0015584  -0.0010193   0.0024094   0.0043990   0.0042069  -0.0041902
   30  -0.0006714  -0.0053783  -0.0035338   0.0074932   0.0019600   0.0093404
   31  -0.0015611   0.0000051   0.0036205   0.0042091   0.0001964  -0.0033651
   32   0.0000023   0.0044842  -0.0000013   0.0049548  -0.0026305  -0.0049545
   33   0.0038632   0.0000007   0.0041310  -0.0008299  -0.0022774  -0.0044264
   34  -0.0067272   0.0071579   0.0224757   0.0426754   0.0046280  -0.0407399
   35  -0.0037938  -0.0108258   0.0185046   0.0500521  -0.0131979  -0.0234494
   36   0.0202719  -0.0204530  -0.0372183  -0.0524226  -0.0039732   0.0226771
   37  -0.0003782   0.0015078   0.0016525   0.0012142  -0.0000360  -0.0042771
   38   0.0004582  -0.0000098  -0.0018772  -0.0014700  -0.0018692   0.0049038
   39   0.0002542   0.0009434   0.0014350  -0.0004558   0.0004390  -0.0024430
   40   0.0008375   0.0081365  -0.0059503   0.0039874  -0.0029544  -0.0037690
   41   0.0015539  -0.0010355  -0.0024040  -0.0041817  -0.0023985   0.0024836
   42  -0.0006658   0.0053713  -0.0035420   0.0122265   0.0005353  -0.0027543
   43  -0.0067209  -0.0071468   0.0224650   0.0145147  -0.0023793  -0.0086197
   44   0.0037981  -0.0108181  -0.0185249  -0.0569594  -0.0028705   0.0374460
   45   0.0202773   0.0204384  -0.0372226  -0.0299529   0.0006023   0.0015992
   46  -0.0003788  -0.0015045   0.0016535  -0.0015980  -0.0000262   0.0002894
   47  -0.0004560  -0.0000021   0.0018760  -0.0015776  -0.0001142  -0.0008386
   48   0.0002550  -0.0009400   0.0014358  -0.0027007  -0.0005587   0.0001777
   49   0.0004462   0.0000001   0.0004484  -0.0002675  -0.0004247  -0.0000146
   50  -0.0000002   0.0003308  -0.0000002   0.0003645  -0.0001146  -0.0003869
   51  -0.0002584  -0.0000003  -0.0005786  -0.0001608   0.0002834   0.0002590
   52  -0.0012348   0.0028358   0.0000237  -0.0058049   0.0029847   0.0083916
   53  -0.0005178   0.0014131   0.0004540  -0.0003484   0.0009361   0.0015794
   54   0.0010111  -0.0022247   0.0000704   0.0043965  -0.0022821  -0.0071733
   55  -0.0012358  -0.0028368   0.0000216  -0.0035391  -0.0004840   0.0047516
   56   0.0005213   0.0014183  -0.0004553   0.0012432  -0.0014558  -0.0012404
   57   0.0010126   0.0022254   0.0000699   0.0033254  -0.0010289  -0.0032438
            7           8           9          10          11          12
    1  -0.0886114   0.0392797  -0.0552405  -0.0373752  -0.0071009  -0.0488869
    2   0.0730517  -0.2092687   0.0824115  -0.0218343  -0.0147887  -0.0337169
    3  -0.0860878   0.0603025  -0.1252139  -0.0181407  -0.0194178  -0.0208860
    4  -0.0615741  -0.0027028   0.0234876  -0.1995965   0.0169209  -0.1040480
    5   0.0026851  -0.1178931   0.0100966   0.0497834  -0.1196300   0.0396975
    6   0.0234800  -0.0100090   0.0082935  -0.1426004   0.0477985  -0.1396903
    7   0.3477025   0.0987977   0.2800240   0.0264712  -0.0849108   0.0095734
    8   0.0987977   0.7886350   0.0987165  -0.0225181  -0.0289577  -0.0102689
    9   0.2800240   0.0987165   0.3473567  -0.0137458  -0.0202048  -0.0069464
   10   0.0264712  -0.0225181  -0.0137458   0.5138173   0.1086338   0.2871234
   11  -0.0849108  -0.0289577  -0.0202048   0.1086338   0.7433481   0.1035076
   12   0.0095734  -0.0102689  -0.0069464   0.2871234   0.1035076   0.3598314
   13  -0.1996013  -0.0498465  -0.1426016  -0.1018865   0.0188555  -0.0354443
   14  -0.0169541  -0.1196582  -0.0477651  -0.0190622  -0.3995607  -0.0159542
   15  -0.1040570  -0.0396664  -0.1396639  -0.0354324   0.0162748  -0.0829922
   16   0.0034352  -0.0049844  -0.0025891   0.0000170   0.0229396  -0.0046739
   17  -0.0022749  -0.0009989  -0.0045866  -0.0009571   0.0035868  -0.0001420
   18  -0.0065753   0.0006217  -0.0034663   0.0068552   0.0070028   0.0011678
   19  -0.0593474  -0.0706596  -0.0472225  -0.0045364   0.0018448  -0.0057608
   20  -0.0697966  -0.2962543  -0.1004537   0.0009410   0.0005821  -0.0006050
   21  -0.0518959  -0.1191715  -0.0931021  -0.0023033  -0.0039664   0.0017404
   22   0.0029980   0.0020744  -0.0044271  -0.1590549  -0.1083567  -0.1047714
   23   0.0006737  -0.0069585  -0.0001120  -0.1093138  -0.1748717  -0.1003285
   24  -0.0045542   0.0028031   0.0026117  -0.1089063  -0.1007083  -0.1247583
   25  -0.0044062   0.0167326  -0.0070611   0.0058541  -0.0026714   0.0028426
   26  -0.0047370   0.0108810  -0.0067783   0.0193278  -0.0066279   0.0152306
   27  -0.0008304   0.0103341  -0.0038310   0.0032669  -0.0042087   0.0047633
   28   0.0039964   0.0029491  -0.0037759  -0.0010215  -0.0010225   0.0001607
   29   0.0041801  -0.0024128  -0.0024746  -0.0029487  -0.0004489  -0.0000738
   30   0.0122449  -0.0005409  -0.0027650  -0.0031439   0.0012944  -0.0015878
   31   0.0042046  -0.0002044  -0.0033572  -0.0023561   0.0023866  -0.0002271
   32  -0.0049713  -0.0026221   0.0049575   0.0013110   0.0020795  -0.0009603
   33  -0.0008290   0.0022737  -0.0044279  -0.0003193  -0.0000522   0.0015745
   34   0.0145208   0.0023764  -0.0086095  -0.0293994   0.0240973  -0.0014064
   35   0.0569661  -0.0029201  -0.0374616  -0.0244866   0.0232207  -0.0081853
   36  -0.0299613  -0.0005857   0.0015771   0.0215966  -0.0174687   0.0043645
   37  -0.0015976   0.0000272   0.0002911   0.0005380  -0.0001660   0.0009598
   38   0.0015791  -0.0001111   0.0008347   0.0001580   0.0018157  -0.0010358
   39  -0.0027035   0.0005591   0.0001798   0.0008193  -0.0011057   0.0002759
   40  -0.0224694  -0.0046057   0.0167042   0.0008101   0.0018615  -0.0020941
   41  -0.0043642   0.0042157   0.0041710   0.0009761  -0.0022474  -0.0004336
   42   0.0074824  -0.0019579   0.0093551   0.0000886   0.0060913  -0.0058746
   43   0.0426694  -0.0046764  -0.0407238  -0.0164071   0.0119339   0.0020529
   44  -0.0501473  -0.0131765   0.0235153   0.0179457  -0.0269674   0.0117283
   45  -0.0524123   0.0040118   0.0226397   0.0090255  -0.0190710   0.0082703
   46   0.0012206   0.0000322  -0.0042799   0.0000687  -0.0010694   0.0009398
   47   0.0014662  -0.0018722  -0.0048953   0.0011377  -0.0009333   0.0014795
   48  -0.0004576  -0.0004400  -0.0024430   0.0005527  -0.0015010   0.0015794
   49  -0.0002676   0.0004247  -0.0000143   0.0004909  -0.0002997   0.0000182
   50  -0.0003644  -0.0001146   0.0003872   0.0001522   0.0001133  -0.0001836
   51  -0.0001609  -0.0002828   0.0002582  -0.0003599   0.0002900   0.0000996
   52  -0.0035267   0.0004869   0.0047455   0.0015694  -0.0021431   0.0037145
   53  -0.0012359  -0.0014522   0.0012325   0.0008418   0.0000373   0.0003443
   54   0.0033229   0.0010232  -0.0032449  -0.0022342   0.0030319  -0.0008740
   55  -0.0058171  -0.0029829   0.0083959   0.0019970  -0.0017332  -0.0000725
   56   0.0003569   0.0009393  -0.0015909  -0.0000876   0.0002503  -0.0001000
   57   0.0043973   0.0022775  -0.0071674  -0.0021420   0.0024136  -0.0000575
           13          14          15          16          17          18
    1  -0.0373549   0.0070750  -0.0488707   0.0002543   0.0046197   0.0092549
    2   0.0218224  -0.0147689   0.0337298  -0.0101509  -0.0231305  -0.0277412
    3  -0.0181457   0.0194212  -0.0209258   0.0099658   0.0097361   0.0069261
    4   0.0265009   0.0848837   0.0095153  -0.0593439   0.0697443  -0.0519217
    5   0.0224807  -0.0289745   0.0102812   0.0706245  -0.2961663   0.1192821
    6  -0.0137479   0.0202352  -0.0069736  -0.0472626   0.1005710  -0.0932062
    7  -0.1996013  -0.0169541  -0.1040570   0.0034352  -0.0022749  -0.0065753
    8  -0.0498465  -0.1196582  -0.0396664  -0.0049844  -0.0009989   0.0006217
    9  -0.1426016  -0.0477651  -0.1396639  -0.0025891  -0.0045866  -0.0034663
   10  -0.1018865  -0.0190622  -0.0354324   0.0000170  -0.0009571   0.0068552
   11   0.0188555  -0.3995607   0.0162748   0.0229396   0.0035868   0.0070028
   12  -0.0354443  -0.0159542  -0.0829922  -0.0046739  -0.0001420   0.0011678
   13   0.5136225  -0.1082031   0.2871788  -0.0045339  -0.0009412  -0.0023030
   14  -0.1082031   0.7432715  -0.1040261  -0.0018448   0.0005849   0.0039661
   15   0.2871788  -0.1040261   0.3601218  -0.0057579   0.0006058   0.0017367
   16  -0.0045339  -0.0018448  -0.0057579   0.0614678  -0.0707976   0.0432293
   17  -0.0009412   0.0005849   0.0006058  -0.0707976   0.3167922  -0.1080464
   18  -0.0023030   0.0039661   0.0017367   0.0432293  -0.1080464   0.0896299
   19   0.0000030  -0.0229530  -0.0046675   0.0015220   0.0005944  -0.0004202
   20   0.0009604   0.0035844   0.0001396  -0.0005957  -0.0006572  -0.0005687
   21   0.0068554  -0.0070069   0.0011739  -0.0004184   0.0005704   0.0012858
   22   0.0058475   0.0026721   0.0028331  -0.0006751   0.0006201   0.0006253
   23  -0.0193335  -0.0066283  -0.0152198  -0.0005017  -0.0003083  -0.0002892
   24   0.0032838   0.0042110   0.0047717   0.0009685   0.0001519  -0.0007009
   25  -0.1588685   0.1082062  -0.1048138   0.0000772   0.0000841  -0.0001553
   26   0.1091648  -0.1747993   0.1004558   0.0012652   0.0003023   0.0006652
   27  -0.1089614   0.1008460  -0.1250156   0.0004328   0.0000451   0.0008547
   28   0.0008087  -0.0018675  -0.0020926   0.0012869  -0.0005204  -0.0009327
   29  -0.0009812  -0.0022463   0.0004357  -0.0046495  -0.0004840   0.0032718
   30   0.0000817  -0.0061041  -0.0058772   0.0023469   0.0002622  -0.0009169
   31  -0.0023599  -0.0023835  -0.0002250  -0.0004979   0.0000978   0.0005285
   32  -0.0013042   0.0020884   0.0009625   0.0006740   0.0002429  -0.0002863
   33  -0.0003195   0.0000534   0.0015761  -0.0003559  -0.0000339   0.0000840
   34  -0.0164150  -0.0119241   0.0020657  -0.0030673  -0.0005079   0.0021291
   35  -0.0179418  -0.0269510  -0.0117097  -0.0060666  -0.0002016   0.0057220
   36   0.0090373   0.0190827   0.0082635   0.0042722   0.0008539  -0.0031696
   37   0.0000683   0.0010700   0.0009383   0.0003613   0.0001125  -0.0006506
   38  -0.0011369  -0.0009350  -0.0014801   0.0021739   0.0001968  -0.0016928
   39   0.0005537   0.0015033   0.0015798  -0.0014012  -0.0002471   0.0005810
   40  -0.0010160   0.0010256   0.0001633   0.0004675   0.0001838  -0.0000876
   41   0.0029500  -0.0004541   0.0000708  -0.0005892  -0.0002856   0.0001243
   42  -0.0031378  -0.0012868  -0.0015889  -0.0001672   0.0000265   0.0001173
   43  -0.0294144  -0.0240830  -0.0013848  -0.0009598   0.0001287   0.0008640
   44   0.0245270   0.0232396   0.0081757   0.0023291   0.0002548  -0.0021327
   45   0.0215931   0.0174527   0.0043585   0.0017813  -0.0000155  -0.0011766
   46   0.0005370   0.0001670   0.0009598  -0.0000990  -0.0000059   0.0000109
   47  -0.0001583   0.0018169   0.0010344   0.0003201   0.0001958  -0.0001106
   48   0.0008186   0.0011037   0.0002756  -0.0000325   0.0000476   0.0000460
   49   0.0004913   0.0002993   0.0000178  -0.0000859  -0.0000332  -0.0000004
   50  -0.0001524   0.0001135   0.0001834  -0.0000628   0.0000072   0.0000131
   51  -0.0003600  -0.0002897   0.0001000   0.0000417   0.0000067   0.0000388
   52   0.0019924   0.0017242  -0.0000790   0.0004305  -0.0001504  -0.0004070
   53   0.0000844   0.0002458   0.0000989   0.0001790   0.0000138  -0.0000324
   54  -0.0021433  -0.0024109  -0.0000518  -0.0002237   0.0001828  -0.0000323
   55   0.0015787   0.0021521   0.0037084  -0.0000570   0.0000031  -0.0000435
   56  -0.0008461   0.0000313  -0.0003462  -0.0002622   0.0000549   0.0002312
   57  -0.0022377  -0.0030315  -0.0008686  -0.0001561   0.0000116   0.0002006
           19          20          21          22          23          24
    1   0.0002524  -0.0046212   0.0092641  -0.0013387   0.0042798  -0.0057819
    2   0.0101410  -0.0231256   0.0277648   0.0001781   0.0012734  -0.0028252
    3   0.0099572  -0.0097187   0.0069145  -0.0039445   0.0027233   0.0012638
    4   0.0034418   0.0022724  -0.0065796  -0.0044101   0.0047465  -0.0008457
    5   0.0049810  -0.0009981  -0.0006193  -0.0167312   0.0108841  -0.0103443
    6  -0.0025903   0.0045855  -0.0034702  -0.0070421   0.0067693  -0.0038296
    7  -0.0593474  -0.0697966  -0.0518959   0.0029980   0.0006737  -0.0045542
    8  -0.0706596  -0.2962543  -0.1191715   0.0020744  -0.0069585   0.0028031
    9  -0.0472225  -0.1004537  -0.0931021  -0.0044271  -0.0001120   0.0026117
   10  -0.0045364   0.0009410  -0.0023033  -0.1590549  -0.1093138  -0.1089063
   11   0.0018448   0.0005821  -0.0039664  -0.1083567  -0.1748717  -0.1007083
   12  -0.0057608  -0.0006050   0.0017404  -0.1047714  -0.1003285  -0.1247583
   13   0.0000030   0.0009604   0.0068554   0.0058475  -0.0193335   0.0032838
   14  -0.0229530   0.0035844  -0.0070069   0.0026721  -0.0066283   0.0042110
   15  -0.0046675   0.0001396   0.0011739   0.0028331  -0.0152198   0.0047717
   16   0.0015220  -0.0005957  -0.0004184  -0.0006751  -0.0005017   0.0009685
   17   0.0005944  -0.0006572   0.0005704   0.0006201  -0.0003083   0.0001519
   18  -0.0004202  -0.0005687   0.0012858   0.0006253  -0.0002892  -0.0007009
   19   0.0614806   0.0708512   0.0431982   0.0000760  -0.0012647   0.0004343
   20   0.0708512   0.3168843   0.1079169  -0.0000839   0.0003020  -0.0000452
   21   0.0431982   0.1079169   0.0895276  -0.0001553  -0.0006647   0.0008557
   22   0.0000760  -0.0000839  -0.0001553   0.1577140   0.1200480   0.1140547
   23  -0.0012647   0.0003020  -0.0006647   0.1200480   0.1753094   0.1069858
   24   0.0004343  -0.0000452   0.0008557   0.1140547   0.1069858   0.1219636
   25  -0.0006756  -0.0006200   0.0006261  -0.0015706   0.0003572   0.0018762
   26   0.0005032  -0.0003080   0.0002884  -0.0003537   0.0009616  -0.0006369
   27   0.0009684  -0.0001522  -0.0007005   0.0018757   0.0006323  -0.0023032
   28   0.0004673  -0.0001843  -0.0000872   0.0002122  -0.0000861   0.0001265
   29   0.0005882  -0.0002856  -0.0001237  -0.0000224   0.0001355  -0.0002385
   30  -0.0001684  -0.0000263   0.0001182  -0.0000130   0.0001570   0.0001307
   31  -0.0004984  -0.0000970   0.0005280   0.0001233   0.0000601  -0.0000804
   32  -0.0006722   0.0002440   0.0002844  -0.0000793  -0.0000183   0.0000848
   33  -0.0003547   0.0000336   0.0000837   0.0000667   0.0000006   0.0000830
   34  -0.0009634  -0.0001284   0.0008664  -0.0001384   0.0000017  -0.0001668
   35  -0.0023297   0.0002558   0.0021324  -0.0006684   0.0002692   0.0006488
   36   0.0017830   0.0000142  -0.0011774  -0.0000053  -0.0004511   0.0001614
   37  -0.0000992   0.0000062   0.0000109   0.0000248  -0.0000058  -0.0000922
   38  -0.0003194   0.0001959   0.0001100   0.0000677  -0.0000481   0.0002037
   39  -0.0000325  -0.0000476   0.0000461   0.0000414  -0.0000152  -0.0000768
   40   0.0012922   0.0005186  -0.0009360  -0.0001519   0.0000025   0.0002389
   41   0.0046450  -0.0004901  -0.0032653   0.0000492  -0.0001729   0.0000638
   42   0.0023411  -0.0002637  -0.0009139  -0.0001408  -0.0000357  -0.0001001
   43  -0.0030642   0.0005101   0.0021256   0.0003230   0.0005026  -0.0002176
   44   0.0060791  -0.0002058  -0.0057299   0.0004299  -0.0002666  -0.0001393
   45   0.0042713  -0.0008556  -0.0031670   0.0006781  -0.0002328  -0.0001259
   46   0.0003608  -0.0001133  -0.0006480   0.0001489  -0.0000414  -0.0001468
   47  -0.0021739   0.0002005   0.0016911   0.0000825   0.0000549  -0.0000848
   48  -0.0013987   0.0002481   0.0005786   0.0000219   0.0000544   0.0000260
   49  -0.0000856   0.0000331  -0.0000005   0.0000084   0.0000045   0.0000300
   50   0.0000628   0.0000071  -0.0000131   0.0000069  -0.0000019  -0.0000040
   51   0.0000416  -0.0000067   0.0000388  -0.0000009  -0.0000007  -0.0000135
   52  -0.0000572  -0.0000029  -0.0000433  -0.0000856  -0.0000552  -0.0002288
   53   0.0002617   0.0000547  -0.0002304   0.0000951   0.0001123  -0.0001625
   54  -0.0001558  -0.0000115   0.0002005   0.0002894   0.0000161   0.0000141
   55   0.0004312   0.0001504  -0.0004072  -0.0000508  -0.0000743   0.0000078
   56  -0.0001797   0.0000138   0.0000329  -0.0000282  -0.0000278   0.0000359
   57  -0.0002236  -0.0001829  -0.0000327   0.0000143   0.0000107   0.0000264
           25          26          27          28          29          30
    1  -0.0013399  -0.0042846  -0.0057758   0.0008450  -0.0015584  -0.0006714
    2  -0.0001806   0.0012760   0.0028268  -0.0081501  -0.0010193  -0.0053783
    3  -0.0039473  -0.0027205   0.0012637  -0.0059551   0.0024094  -0.0035338
    4   0.0029973  -0.0006839  -0.0045531  -0.0224541   0.0043990   0.0074932
    5  -0.0020833  -0.0069592  -0.0027925   0.0046358   0.0042069   0.0019600
    6  -0.0044256   0.0001229   0.0026114   0.0167159  -0.0041902   0.0093404
    7  -0.0044062  -0.0047370  -0.0008304   0.0039964   0.0041801   0.0122449
    8   0.0167326   0.0108810   0.0103341   0.0029491  -0.0024128  -0.0005409
    9  -0.0070611  -0.0067783  -0.0038310  -0.0037759  -0.0024746  -0.0027650
   10   0.0058541   0.0193278   0.0032669  -0.0010215  -0.0029487  -0.0031439
   11  -0.0026714  -0.0066279  -0.0042087  -0.0010225  -0.0004489   0.0012944
   12   0.0028426   0.0152306   0.0047633   0.0001607  -0.0000738  -0.0015878
   13  -0.1588685   0.1091648  -0.1089614   0.0008087  -0.0009812   0.0000817
   14   0.1082062  -0.1747993   0.1008460  -0.0018675  -0.0022463  -0.0061041
   15  -0.1048138   0.1004558  -0.1250156  -0.0020926   0.0004357  -0.0058772
   16   0.0000772   0.0012652   0.0004328   0.0012869  -0.0046495   0.0023469
   17   0.0000841   0.0003023   0.0000451  -0.0005204  -0.0004840   0.0002622
   18  -0.0001553   0.0006652   0.0008547  -0.0009327   0.0032718  -0.0009169
   19  -0.0006756   0.0005032   0.0009684   0.0004673   0.0005882  -0.0001684
   20  -0.0006200  -0.0003080  -0.0001522  -0.0001843  -0.0002856  -0.0000263
   21   0.0006261   0.0002884  -0.0007005  -0.0000872  -0.0001237   0.0001182
   22  -0.0015706  -0.0003537   0.0018757   0.0002122  -0.0000224  -0.0000130
   23   0.0003572   0.0009616   0.0006323  -0.0000861   0.0001355   0.0001570
   24   0.0018762  -0.0006369  -0.0023032   0.0001265  -0.0002385   0.0001307
   25   0.1575180  -0.1198923   0.1141064  -0.0001519  -0.0000493  -0.0001405
   26  -0.1198923   0.1752374  -0.1071234  -0.0000023  -0.0001731   0.0000357
   27   0.1141064  -0.1071234   0.1222319   0.0002386  -0.0000639  -0.0001002
   28  -0.0001519  -0.0000023   0.0002386   0.4755109  -0.1733611   0.1734901
   29  -0.0000493  -0.0001731  -0.0000639  -0.1733611   1.0266595  -0.0906980
   30  -0.0001405   0.0000357  -0.0001002   0.1734901  -0.0906980   0.3302527
   31   0.0001237  -0.0000602  -0.0000806  -0.1633796  -0.0551329  -0.0768704
   32   0.0000793  -0.0000183  -0.0000847  -0.0379096  -0.1815582  -0.0281478
   33   0.0000666  -0.0000006   0.0000832  -0.0797100  -0.0453702  -0.1116017
   34   0.0003216  -0.0005029  -0.0002164  -0.1447818   0.0051845  -0.0545571
   35  -0.0004295  -0.0002657   0.0001393   0.0282084  -0.0942721  -0.0040890
   36   0.0006782   0.0002326  -0.0001256  -0.0664330  -0.0037873  -0.1108755
   37   0.0001490   0.0000412  -0.0001468  -0.1667663   0.1987316  -0.0560521
   38  -0.0000825   0.0000550   0.0000849   0.2045567  -0.6774495   0.1208851
   39   0.0000217  -0.0000545   0.0000261  -0.0591974   0.1177706  -0.1103736
   40   0.0002120   0.0000862   0.0001264   0.0428671   0.0218004   0.0380401
   41   0.0000216   0.0001353   0.0002384  -0.0219062  -0.0814450  -0.0175943
   42  -0.0000131  -0.0001566   0.0001307   0.0380657   0.0175665   0.0151744
   43  -0.0001367  -0.0000015  -0.0001675  -0.0099047   0.0219067  -0.0119142
   44   0.0006688   0.0002686  -0.0006484   0.0117535  -0.0256736   0.0219597
   45  -0.0000057   0.0004509   0.0001613   0.0012505   0.0188705   0.0012791
   46   0.0000248   0.0000056  -0.0000924  -0.0062003  -0.0016401  -0.0093907
   47  -0.0000672  -0.0000482  -0.0002035   0.0192020   0.0173359   0.0144354
   48   0.0000416   0.0000151  -0.0000767  -0.0082134  -0.0010559   0.0011943
   49   0.0000084  -0.0000045   0.0000300  -0.0083765   0.0024677  -0.0033482
   50  -0.0000069  -0.0000019   0.0000040  -0.0225054   0.0164178  -0.0174207
   51  -0.0000009   0.0000007  -0.0000136  -0.0016208   0.0029177  -0.0050403
   52  -0.0000509   0.0000743   0.0000078  -0.0047727  -0.0183844  -0.0144638
   53   0.0000284  -0.0000280  -0.0000359   0.0009416   0.0087147   0.0096317
   54   0.0000145  -0.0000108   0.0000263   0.0022730  -0.0116994  -0.0061749
   55  -0.0000858   0.0000548  -0.0002287   0.0018149  -0.0005304  -0.0029631
   56  -0.0000951   0.0001125   0.0001625  -0.0047315  -0.0060018  -0.0006216
   57   0.0002895  -0.0000162   0.0000140  -0.0043031  -0.0034668   0.0013570
           31          32          33          34          35          36
    1  -0.0015611   0.0000023   0.0038632  -0.0067272  -0.0037938   0.0202719
    2   0.0000051   0.0044842   0.0000007   0.0071579  -0.0108258  -0.0204530
    3   0.0036205  -0.0000013   0.0041310   0.0224757   0.0185046  -0.0372183
    4   0.0042091   0.0049548  -0.0008299   0.0426754   0.0500521  -0.0524226
    5   0.0001964  -0.0026305  -0.0022774   0.0046280  -0.0131979  -0.0039732
    6  -0.0033651  -0.0049545  -0.0044264  -0.0407399  -0.0234494   0.0226771
    7   0.0042046  -0.0049713  -0.0008290   0.0145208   0.0569661  -0.0299613
    8  -0.0002044  -0.0026221   0.0022737   0.0023764  -0.0029201  -0.0005857
    9  -0.0033572   0.0049575  -0.0044279  -0.0086095  -0.0374616   0.0015771
   10  -0.0023561   0.0013110  -0.0003193  -0.0293994  -0.0244866   0.0215966
   11   0.0023866   0.0020795  -0.0000522   0.0240973   0.0232207  -0.0174687
   12  -0.0002271  -0.0009603   0.0015745  -0.0014064  -0.0081853   0.0043645
   13  -0.0023599  -0.0013042  -0.0003195  -0.0164150  -0.0179418   0.0090373
   14  -0.0023835   0.0020884   0.0000534  -0.0119241  -0.0269510   0.0190827
   15  -0.0002250   0.0009625   0.0015761   0.0020657  -0.0117097   0.0082635
   16  -0.0004979   0.0006740  -0.0003559  -0.0030673  -0.0060666   0.0042722
   17   0.0000978   0.0002429  -0.0000339  -0.0005079  -0.0002016   0.0008539
   18   0.0005285  -0.0002863   0.0000840   0.0021291   0.0057220  -0.0031696
   19  -0.0004984  -0.0006722  -0.0003547  -0.0009634  -0.0023297   0.0017830
   20  -0.0000970   0.0002440   0.0000336  -0.0001284   0.0002558   0.0000142
   21   0.0005280   0.0002844   0.0000837   0.0008664   0.0021324  -0.0011774
   22   0.0001233  -0.0000793   0.0000667  -0.0001384  -0.0006684  -0.0000053
   23   0.0000601  -0.0000183   0.0000006   0.0000017   0.0002692  -0.0004511
   24  -0.0000804   0.0000848   0.0000830  -0.0001668   0.0006488   0.0001614
   25   0.0001237   0.0000793   0.0000666   0.0003216  -0.0004295   0.0006782
   26  -0.0000602  -0.0000183  -0.0000006  -0.0005029  -0.0002657   0.0002326
   27  -0.0000806  -0.0000847   0.0000832  -0.0002164   0.0001393  -0.0001256
   28  -0.1633796  -0.0379096  -0.0797100  -0.1447818   0.0282084  -0.0664330
   29  -0.0551329  -0.1815582  -0.0453702   0.0051845  -0.0942721  -0.0037873
   30  -0.0768704  -0.0281478  -0.1116017  -0.0545571  -0.0040890  -0.1108755
   31   0.6192933   0.0000437   0.4297041  -0.0306523  -0.0231228  -0.0302659
   32   0.0000437   0.6187270  -0.0001669  -0.0155219   0.0048776  -0.0034137
   33   0.4297041  -0.0001669   0.3765161  -0.0297589  -0.0107612  -0.0073736
   34  -0.0306523  -0.0155219  -0.0297589   0.3426650   0.0039444   0.2495578
   35  -0.0231228   0.0048776  -0.0107612   0.0039444   0.6763999   0.1811538
   36  -0.0302659  -0.0034137  -0.0073736   0.2495578   0.1811538   0.4058311
   37   0.0329458  -0.0191956   0.0087434  -0.0036941   0.0392096  -0.0086471
   38   0.0057237  -0.0975968   0.0042863   0.0253299  -0.0205911   0.0123215
   39   0.0097684  -0.0131494   0.0258826  -0.0114832   0.0264927   0.0104292
   40  -0.1632996   0.0378752  -0.0796584  -0.0099342  -0.0117677   0.0012402
   41   0.0550887  -0.1815520   0.0454293  -0.0219325  -0.0256582  -0.0188814
   42  -0.0768296   0.0281949  -0.1116002  -0.0119271  -0.0219313   0.0012703
   43  -0.0306054   0.0155549  -0.0297498  -0.0816698  -0.0341726  -0.0141341
   44   0.0231504   0.0048215   0.0107845   0.0339190  -0.3429680  -0.0274003
   45  -0.0302590   0.0034460  -0.0073748  -0.0141427   0.0274494  -0.1006474
   46   0.0329579   0.0190801   0.0087372  -0.0033170  -0.0001415  -0.0064087
   47  -0.0058327  -0.0976199  -0.0042819  -0.0026414   0.0045327  -0.0038712
   48   0.0097795   0.0131533   0.0258812  -0.0022593   0.0024954  -0.0015666
   49  -0.2902090   0.0000728  -0.2239983   0.0017655  -0.0017702  -0.0025753
   50   0.0000747  -0.0765721   0.0000790  -0.0032968  -0.0054539  -0.0027091
   51  -0.2276410   0.0000817  -0.1867509  -0.0016761   0.0010728   0.0015498
   52  -0.0042164   0.0017102  -0.0026493  -0.0754145  -0.0554329  -0.0970196
   53   0.0029811   0.0013096   0.0014115  -0.0626465  -0.1577797  -0.1326333
   54  -0.0023643  -0.0004297  -0.0011694  -0.1018199  -0.1395245  -0.2042107
   55  -0.0042219  -0.0017040  -0.0026484   0.0042260   0.0037437  -0.0005642
   56  -0.0029746   0.0013134  -0.0014083   0.0124630  -0.0084710   0.0219695
   57  -0.0023634   0.0004295  -0.0011706   0.0016687  -0.0086992   0.0102407
           37          38          39          40          41          42
    1  -0.0003782   0.0004582   0.0002542   0.0008375   0.0015539  -0.0006658
    2   0.0015078  -0.0000098   0.0009434   0.0081365  -0.0010355   0.0053713
    3   0.0016525  -0.0018772   0.0014350  -0.0059503  -0.0024040  -0.0035420
    4   0.0012142  -0.0014700  -0.0004558   0.0039874  -0.0041817   0.0122265
    5  -0.0000360  -0.0018692   0.0004390  -0.0029544  -0.0023985   0.0005353
    6  -0.0042771   0.0049038  -0.0024430  -0.0037690   0.0024836  -0.0027543
    7  -0.0015976   0.0015791  -0.0027035  -0.0224694  -0.0043642   0.0074824
    8   0.0000272  -0.0001111   0.0005591  -0.0046057   0.0042157  -0.0019579
    9   0.0002911   0.0008347   0.0001798   0.0167042   0.0041710   0.0093551
   10   0.0005380   0.0001580   0.0008193   0.0008101   0.0009761   0.0000886
   11  -0.0001660   0.0018157  -0.0011057   0.0018615  -0.0022474   0.0060913
   12   0.0009598  -0.0010358   0.0002759  -0.0020941  -0.0004336  -0.0058746
   13   0.0000683  -0.0011369   0.0005537  -0.0010160   0.0029500  -0.0031378
   14   0.0010700  -0.0009350   0.0015033   0.0010256  -0.0004541  -0.0012868
   15   0.0009383  -0.0014801   0.0015798   0.0001633   0.0000708  -0.0015889
   16   0.0003613   0.0021739  -0.0014012   0.0004675  -0.0005892  -0.0001672
   17   0.0001125   0.0001968  -0.0002471   0.0001838  -0.0002856   0.0000265
   18  -0.0006506  -0.0016928   0.0005810  -0.0000876   0.0001243   0.0001173
   19  -0.0000992  -0.0003194  -0.0000325   0.0012922   0.0046450   0.0023411
   20   0.0000062   0.0001959  -0.0000476   0.0005186  -0.0004901  -0.0002637
   21   0.0000109   0.0001100   0.0000461  -0.0009360  -0.0032653  -0.0009139
   22   0.0000248   0.0000677   0.0000414  -0.0001519   0.0000492  -0.0001408
   23  -0.0000058  -0.0000481  -0.0000152   0.0000025  -0.0001729  -0.0000357
   24  -0.0000922   0.0002037  -0.0000768   0.0002389   0.0000638  -0.0001001
   25   0.0001490  -0.0000825   0.0000217   0.0002120   0.0000216  -0.0000131
   26   0.0000412   0.0000550  -0.0000545   0.0000862   0.0001353  -0.0001566
   27  -0.0001468   0.0000849   0.0000261   0.0001264   0.0002384   0.0001307
   28  -0.1667663   0.2045567  -0.0591974   0.0428671  -0.0219062   0.0380657
   29   0.1987316  -0.6774495   0.1177706   0.0218004  -0.0814450   0.0175665
   30  -0.0560521   0.1208851  -0.1103736   0.0380401  -0.0175943   0.0151744
   31   0.0329458   0.0057237   0.0097684  -0.1632996   0.0550887  -0.0768296
   32  -0.0191956  -0.0975968  -0.0131494   0.0378752  -0.1815520   0.0281949
   33   0.0087434   0.0042863   0.0258826  -0.0796584   0.0454293  -0.1116002
   34  -0.0036941   0.0253299  -0.0114832  -0.0099342  -0.0219325  -0.0119271
   35   0.0392096  -0.0205911   0.0264927  -0.0117677  -0.0256582  -0.0219313
   36  -0.0086471   0.0123215   0.0104292   0.0012402  -0.0188814   0.0012703
   37   0.1448497  -0.2266683   0.0671078  -0.0062163   0.0016617  -0.0094062
   38  -0.2266683   0.7880598  -0.1324288  -0.0191762   0.0173499  -0.0144215
   39   0.0671078  -0.1324288   0.0738532  -0.0082093   0.0010617   0.0011955
   40  -0.0062163  -0.0191762  -0.0082093   0.4759043   0.1739363   0.1735571
   41   0.0016617   0.0173499   0.0010617   0.1739363   1.0263102   0.0904794
   42  -0.0094062  -0.0144215   0.0011955   0.1735571   0.0904794   0.3302453
   43  -0.0033102   0.0026419  -0.0022601  -0.1448358  -0.0051535  -0.0545441
   44   0.0001475   0.0045318  -0.0024972  -0.0281846  -0.0942267   0.0041148
   45  -0.0064050   0.0038782  -0.0015676  -0.0664380   0.0038291  -0.1109123
   46   0.0013900   0.0030359   0.0019901  -0.1671552  -0.1992237  -0.0561375
   47  -0.0030485  -0.0118235  -0.0022089  -0.2050621  -0.6771360  -0.1207549
   48   0.0019929   0.0022071  -0.0004580  -0.0592777  -0.1176281  -0.1103383
   49  -0.0000016   0.0011498   0.0020891  -0.0083618  -0.0024471  -0.0033352
   50   0.0046177  -0.0007092   0.0035132   0.0225254   0.0164030   0.0174214
   51   0.0021304   0.0004726  -0.0013961  -0.0016228  -0.0029192  -0.0050398
   52   0.0007554   0.0013476   0.0026012   0.0018173   0.0005256  -0.0029600
   53  -0.0006274  -0.0003851  -0.0014398   0.0047237  -0.0060081   0.0006284
   54   0.0003402   0.0026038   0.0008959  -0.0043057   0.0034727   0.0013592
   55  -0.0002328   0.0006310   0.0004961  -0.0047552   0.0183900  -0.0144969
   56   0.0026148  -0.0006764   0.0009111  -0.0009250   0.0086958  -0.0096211
   57   0.0015100   0.0001446  -0.0000650   0.0022786   0.0117018  -0.0061834
           43          44          45          46          47          48
    1  -0.0067209   0.0037981   0.0202773  -0.0003788  -0.0004560   0.0002550
    2  -0.0071468  -0.0108181   0.0204384  -0.0015045  -0.0000021  -0.0009400
    3   0.0224650  -0.0185249  -0.0372226   0.0016535   0.0018760   0.0014358
    4   0.0145147  -0.0569594  -0.0299529  -0.0015980  -0.0015776  -0.0027007
    5  -0.0023793  -0.0028705   0.0006023  -0.0000262  -0.0001142  -0.0005587
    6  -0.0086197   0.0374460   0.0015992   0.0002894  -0.0008386   0.0001777
    7   0.0426694  -0.0501473  -0.0524123   0.0012206   0.0014662  -0.0004576
    8  -0.0046764  -0.0131765   0.0040118   0.0000322  -0.0018722  -0.0004400
    9  -0.0407238   0.0235153   0.0226397  -0.0042799  -0.0048953  -0.0024430
   10  -0.0164071   0.0179457   0.0090255   0.0000687   0.0011377   0.0005527
   11   0.0119339  -0.0269674  -0.0190710  -0.0010694  -0.0009333  -0.0015010
   12   0.0020529   0.0117283   0.0082703   0.0009398   0.0014795   0.0015794
   13  -0.0294144   0.0245270   0.0215931   0.0005370  -0.0001583   0.0008186
   14  -0.0240830   0.0232396   0.0174527   0.0001670   0.0018169   0.0011037
   15  -0.0013848   0.0081757   0.0043585   0.0009598   0.0010344   0.0002756
   16  -0.0009598   0.0023291   0.0017813  -0.0000990   0.0003201  -0.0000325
   17   0.0001287   0.0002548  -0.0000155  -0.0000059   0.0001958   0.0000476
   18   0.0008640  -0.0021327  -0.0011766   0.0000109  -0.0001106   0.0000460
   19  -0.0030642   0.0060791   0.0042713   0.0003608  -0.0021739  -0.0013987
   20   0.0005101  -0.0002058  -0.0008556  -0.0001133   0.0002005   0.0002481
   21   0.0021256  -0.0057299  -0.0031670  -0.0006480   0.0016911   0.0005786
   22   0.0003230   0.0004299   0.0006781   0.0001489   0.0000825   0.0000219
   23   0.0005026  -0.0002666  -0.0002328  -0.0000414   0.0000549   0.0000544
   24  -0.0002176  -0.0001393  -0.0001259  -0.0001468  -0.0000848   0.0000260
   25  -0.0001367   0.0006688  -0.0000057   0.0000248  -0.0000672   0.0000416
   26  -0.0000015   0.0002686   0.0004509   0.0000056  -0.0000482   0.0000151
   27  -0.0001675  -0.0006484   0.0001613  -0.0000924  -0.0002035  -0.0000767
   28  -0.0099047   0.0117535   0.0012505  -0.0062003   0.0192020  -0.0082134
   29   0.0219067  -0.0256736   0.0188705  -0.0016401   0.0173359  -0.0010559
   30  -0.0119142   0.0219597   0.0012791  -0.0093907   0.0144354   0.0011943
   31  -0.0306054   0.0231504  -0.0302590   0.0329579  -0.0058327   0.0097795
   32   0.0155549   0.0048215   0.0034460   0.0190801  -0.0976199   0.0131533
   33  -0.0297498   0.0107845  -0.0073748   0.0087372  -0.0042819   0.0258812
   34  -0.0816698   0.0339190  -0.0141427  -0.0033170  -0.0026414  -0.0022593
   35  -0.0341726  -0.3429680   0.0274494  -0.0001415   0.0045327   0.0024954
   36  -0.0141341  -0.0274003  -0.1006474  -0.0064087  -0.0038712  -0.0015666
   37  -0.0033102   0.0001475  -0.0064050   0.0013900  -0.0030485   0.0019929
   38   0.0026419   0.0045318   0.0038782   0.0030359  -0.0118235   0.0022071
   39  -0.0022601  -0.0024972  -0.0015676   0.0019901  -0.0022089  -0.0004580
   40  -0.1448358  -0.0281846  -0.0664380  -0.1671552  -0.2050621  -0.0592777
   41  -0.0051535  -0.0942267   0.0038291  -0.1992237  -0.6771360  -0.1176281
   42  -0.0545441   0.0041148  -0.1109123  -0.0561375  -0.1207549  -0.1103383
   43   0.3424244  -0.0034477   0.2492916  -0.0037472  -0.0253396  -0.0115044
   44  -0.0034477   0.6762806  -0.1814593  -0.0392215  -0.0205318  -0.0264728
   45   0.2492916  -0.1814593   0.4061000  -0.0086527  -0.0123041   0.0104379
   46  -0.0037472  -0.0392215  -0.0086527   0.1452735   0.2272750   0.0671971
   47  -0.0253396  -0.0205318  -0.0123041   0.2272750   0.7877079   0.1322621
   48  -0.0115044  -0.0264728   0.0104379   0.0671971   0.1322621   0.0738125
   49   0.0017702   0.0017649  -0.0025738  -0.0000067  -0.0011506   0.0020859
   50   0.0032901  -0.0054569   0.0027116  -0.0046184  -0.0007049  -0.0035150
   51  -0.0016782  -0.0010724   0.0015513   0.0021302  -0.0004739  -0.0013956
   52   0.0042140  -0.0037329  -0.0005657  -0.0002337  -0.0006298   0.0004952
   53  -0.0124893  -0.0084492  -0.0219546  -0.0026151  -0.0006733  -0.0009127
   54   0.0016770   0.0086925   0.0102365   0.0015107  -0.0001468  -0.0000652
   55  -0.0751396   0.0551804  -0.0967608   0.0007537  -0.0013457   0.0026040
   56   0.0624210  -0.1577858   0.1327521   0.0006252  -0.0003851   0.0014374
   57  -0.1015776   0.1396604  -0.2044395   0.0003379  -0.0026040   0.0008985
           49          50          51          52          53          54
    1   0.0004462  -0.0000002  -0.0002584  -0.0012348  -0.0005178   0.0010111
    2   0.0000001   0.0003308  -0.0000003   0.0028358   0.0014131  -0.0022247
    3   0.0004484  -0.0000002  -0.0005786   0.0000237   0.0004540   0.0000704
    4  -0.0002675   0.0003645  -0.0001608  -0.0058049  -0.0003484   0.0043965
    5  -0.0004247  -0.0001146   0.0002834   0.0029847   0.0009361  -0.0022821
    6  -0.0000146  -0.0003869   0.0002590   0.0083916   0.0015794  -0.0071733
    7  -0.0002676  -0.0003644  -0.0001609  -0.0035267  -0.0012359   0.0033229
    8   0.0004247  -0.0001146  -0.0002828   0.0004869  -0.0014522   0.0010232
    9  -0.0000143   0.0003872   0.0002582   0.0047455   0.0012325  -0.0032449
   10   0.0004909   0.0001522  -0.0003599   0.0015694   0.0008418  -0.0022342
   11  -0.0002997   0.0001133   0.0002900  -0.0021431   0.0000373   0.0030319
   12   0.0000182  -0.0001836   0.0000996   0.0037145   0.0003443  -0.0008740
   13   0.0004913  -0.0001524  -0.0003600   0.0019924   0.0000844  -0.0021433
   14   0.0002993   0.0001135  -0.0002897   0.0017242   0.0002458  -0.0024109
   15   0.0000178   0.0001834   0.0001000  -0.0000790   0.0000989  -0.0000518
   16  -0.0000859  -0.0000628   0.0000417   0.0004305   0.0001790  -0.0002237
   17  -0.0000332   0.0000072   0.0000067  -0.0001504   0.0000138   0.0001828
   18  -0.0000004   0.0000131   0.0000388  -0.0004070  -0.0000324  -0.0000323
   19  -0.0000856   0.0000628   0.0000416  -0.0000572   0.0002617  -0.0001558
   20   0.0000331   0.0000071  -0.0000067  -0.0000029   0.0000547  -0.0000115
   21  -0.0000005  -0.0000131   0.0000388  -0.0000433  -0.0002304   0.0002005
   22   0.0000084   0.0000069  -0.0000009  -0.0000856   0.0000951   0.0002894
   23   0.0000045  -0.0000019  -0.0000007  -0.0000552   0.0001123   0.0000161
   24   0.0000300  -0.0000040  -0.0000135  -0.0002288  -0.0001625   0.0000141
   25   0.0000084  -0.0000069  -0.0000009  -0.0000509   0.0000284   0.0000145
   26  -0.0000045  -0.0000019   0.0000007   0.0000743  -0.0000280  -0.0000108
   27   0.0000300   0.0000040  -0.0000136   0.0000078  -0.0000359   0.0000263
   28  -0.0083765  -0.0225054  -0.0016208  -0.0047727   0.0009416   0.0022730
   29   0.0024677   0.0164178   0.0029177  -0.0183844   0.0087147  -0.0116994
   30  -0.0033482  -0.0174207  -0.0050403  -0.0144638   0.0096317  -0.0061749
   31  -0.2902090   0.0000747  -0.2276410  -0.0042164   0.0029811  -0.0023643
   32   0.0000728  -0.0765721   0.0000817   0.0017102   0.0013096  -0.0004297
   33  -0.2239983   0.0000790  -0.1867509  -0.0026493   0.0014115  -0.0011694
   34   0.0017655  -0.0032968  -0.0016761  -0.0754145  -0.0626465  -0.1018199
   35  -0.0017702  -0.0054539   0.0010728  -0.0554329  -0.1577797  -0.1395245
   36  -0.0025753  -0.0027091   0.0015498  -0.0970196  -0.1326333  -0.2042107
   37  -0.0000016   0.0046177   0.0021304   0.0007554  -0.0006274   0.0003402
   38   0.0011498  -0.0007092   0.0004726   0.0013476  -0.0003851   0.0026038
   39   0.0020891   0.0035132  -0.0013961   0.0026012  -0.0014398   0.0008959
   40  -0.0083618   0.0225254  -0.0016228   0.0018173   0.0047237  -0.0043057
   41  -0.0024471   0.0164030  -0.0029192   0.0005256  -0.0060081   0.0034727
   42  -0.0033352   0.0174214  -0.0050398  -0.0029600   0.0006284   0.0013592
   43   0.0017702   0.0032901  -0.0016782   0.0042140  -0.0124893   0.0016770
   44   0.0017649  -0.0054569  -0.0010724  -0.0037329  -0.0084492   0.0086925
   45  -0.0025738   0.0027116   0.0015513  -0.0005657  -0.0219546   0.0102365
   46  -0.0000067  -0.0046184   0.0021302  -0.0002337  -0.0026151   0.0015107
   47  -0.0011506  -0.0007049  -0.0004739  -0.0006298  -0.0006733  -0.0001468
   48   0.0020859  -0.0035150  -0.0013956   0.0004952  -0.0009127  -0.0000652
   49   0.3033828  -0.0000879   0.2316343  -0.0003506   0.0004909  -0.0002469
   50  -0.0000879   0.0543912  -0.0000807  -0.0013401   0.0006739  -0.0005261
   51   0.2316343  -0.0000807   0.1948758  -0.0002190  -0.0003170   0.0007290
   52  -0.0003506  -0.0013401  -0.0002190   0.0865618   0.0700156   0.0970113
   53   0.0004909   0.0006739  -0.0003170   0.0700156   0.1599168   0.1412927
   54  -0.0002469  -0.0005261   0.0007290   0.0970113   0.1412927   0.2106814
   55  -0.0003509   0.0013410  -0.0002184  -0.0015928  -0.0001627   0.0016473
   56  -0.0004898   0.0006724   0.0003177   0.0001670   0.0013476  -0.0010492
   57  -0.0002461   0.0005264   0.0007281   0.0016446   0.0010451  -0.0012168
           55          56          57
    1  -0.0012358   0.0005213   0.0010126
    2  -0.0028368   0.0014183   0.0022254
    3   0.0000216  -0.0004553   0.0000699
    4  -0.0035391   0.0012432   0.0033254
    5  -0.0004840  -0.0014558  -0.0010289
    6   0.0047516  -0.0012404  -0.0032438
    7  -0.0058171   0.0003569   0.0043973
    8  -0.0029829   0.0009393   0.0022775
    9   0.0083959  -0.0015909  -0.0071674
   10   0.0019970  -0.0000876  -0.0021420
   11  -0.0017332   0.0002503   0.0024136
   12  -0.0000725  -0.0001000  -0.0000575
   13   0.0015787  -0.0008461  -0.0022377
   14   0.0021521   0.0000313  -0.0030315
   15   0.0037084  -0.0003462  -0.0008686
   16  -0.0000570  -0.0002622  -0.0001561
   17   0.0000031   0.0000549   0.0000116
   18  -0.0000435   0.0002312   0.0002006
   19   0.0004312  -0.0001797  -0.0002236
   20   0.0001504   0.0000138  -0.0001829
   21  -0.0004072   0.0000329  -0.0000327
   22  -0.0000508  -0.0000282   0.0000143
   23  -0.0000743  -0.0000278   0.0000107
   24   0.0000078   0.0000359   0.0000264
   25  -0.0000858  -0.0000951   0.0002895
   26   0.0000548   0.0001125  -0.0000162
   27  -0.0002287   0.0001625   0.0000140
   28   0.0018149  -0.0047315  -0.0043031
   29  -0.0005304  -0.0060018  -0.0034668
   30  -0.0029631  -0.0006216   0.0013570
   31  -0.0042219  -0.0029746  -0.0023634
   32  -0.0017040   0.0013134   0.0004295
   33  -0.0026484  -0.0014083  -0.0011706
   34   0.0042260   0.0124630   0.0016687
   35   0.0037437  -0.0084710  -0.0086992
   36  -0.0005642   0.0219695   0.0102407
   37  -0.0002328   0.0026148   0.0015100
   38   0.0006310  -0.0006764   0.0001446
   39   0.0004961   0.0009111  -0.0000650
   40  -0.0047552  -0.0009250   0.0022786
   41   0.0183900   0.0086958   0.0117018
   42  -0.0144969  -0.0096211  -0.0061834
   43  -0.0751396   0.0624210  -0.1015776
   44   0.0551804  -0.1577858   0.1396604
   45  -0.0967608   0.1327521  -0.2044395
   46   0.0007537   0.0006252   0.0003379
   47  -0.0013457  -0.0003851  -0.0026040
   48   0.0026040   0.0014374   0.0008985
   49  -0.0003509  -0.0004898  -0.0002461
   50   0.0013410   0.0006724   0.0005264
   51  -0.0002184   0.0003177   0.0007281
   52  -0.0015928   0.0001670   0.0016446
   53  -0.0001627   0.0013476   0.0010451
   54   0.0016473  -0.0010492  -0.0012168
   55   0.0862773  -0.0697926   0.0967707
   56  -0.0697926   0.1599539  -0.1414173
   57   0.0967707  -0.1414173   0.2109100
 **********************************************************************
 **                                                                  **
 **                       VIBRATIONAL ANALYSIS                       **
 **                       --------------------                       **
 **                                                                  **
 **        VIBRATIONAL FREQUENCIES (CM**-1) AND NORMAL MODES         **
 **     FORCE CONSTANTS (mDYN/ANGSTROM) AND REDUCED MASSES (AMU)     **
 **                  INFRARED INTENSITIES (KM/MOL)                   **
 **                                                                  **
 **********************************************************************
 

 Mode:                 1                      2                      3
 Frequency:      -551.13                  79.62                 128.29
 Force Cnst:      1.9345                 0.0212                 0.1053
 Red. Mass:      10.8092                 5.6642                10.8564
 IR Active:          YES                    YES                    YES
 IR Intens:        4.417                  0.022                  2.178
 Raman Active:       YES                    YES                    YES
               X      Y      Z        X      Y      Z        X      Y      Z
 O         -0.004 -0.000  0.053    0.000  0.249 -0.000    0.251 -0.000 -0.112
 C          0.345  0.031 -0.310    0.033  0.105  0.218    0.168 -0.000 -0.068
 C          0.345 -0.031 -0.310   -0.032  0.105 -0.219    0.168 -0.000 -0.068
 C         -0.040  0.060 -0.042    0.030 -0.086  0.131    0.075  0.000  0.078
 C         -0.040 -0.060 -0.042   -0.030 -0.087 -0.131    0.076  0.000  0.078
 H         -0.017  0.016 -0.075    0.103  0.189  0.372    0.232 -0.002 -0.115
 H         -0.017 -0.016 -0.075   -0.103  0.189 -0.372    0.233  0.001 -0.114
 H         -0.094  0.033  0.047    0.058 -0.223  0.262    0.007 -0.000  0.157
 H         -0.094 -0.033  0.047   -0.058 -0.223 -0.261    0.008  0.001  0.158
 C         -0.031 -0.016  0.022    0.018 -0.049 -0.089   -0.073 -0.005 -0.036
 N         -0.015  0.000 -0.041   -0.000 -0.065  0.000    0.081  0.000 -0.260
 C         -0.296 -0.114  0.342    0.001 -0.015 -0.013    0.018  0.001 -0.170
 O          0.022 -0.003 -0.008    0.072 -0.056 -0.208   -0.311 -0.014  0.320
 C         -0.031  0.016  0.022   -0.018 -0.049  0.089   -0.074  0.006 -0.037
 C         -0.296  0.115  0.342   -0.002 -0.015  0.013    0.018 -0.001 -0.170
 O          0.022  0.003 -0.008   -0.073 -0.056  0.209   -0.311  0.014  0.320
 H          0.049  0.000 -0.116   -0.000 -0.096  0.000   -0.213  0.000  0.113
 H          0.144  0.074 -0.052   -0.085 -0.007  0.025    0.010 -0.016 -0.153
 H          0.144 -0.074 -0.052    0.085 -0.007 -0.025    0.010  0.015 -0.153
 TransDip  -0.028 -0.000 -0.061   -0.000  0.005  0.000    0.024  0.000 -0.041

 Mode:                 4                      5                      6
 Frequency:       141.51                 175.18                 232.24
 Force Cnst:      0.0693                 0.1425                 0.1861
 Red. Mass:       5.8736                 7.8803                 5.8565
 IR Active:          YES                    YES                    YES
 IR Intens:        0.135                  0.932                  0.418
 Raman Active:       YES                    YES                    YES
               X      Y      Z        X      Y      Z        X      Y      Z
 O         -0.000 -0.053  0.000    0.211 -0.000 -0.082    0.000  0.126  0.000
 C         -0.170  0.016  0.001    0.141  0.001 -0.042    0.244  0.128 -0.210
 C          0.170  0.016 -0.001    0.141 -0.001 -0.042   -0.243  0.128  0.210
 C         -0.107  0.201 -0.004    0.063  0.001  0.079    0.124  0.046 -0.104
 C          0.107  0.201  0.004    0.063 -0.001  0.079   -0.123  0.046  0.104
 H         -0.334 -0.025  0.009    0.175  0.001 -0.064    0.256  0.129 -0.210
 H          0.334 -0.026 -0.009    0.175 -0.001 -0.063   -0.255  0.129  0.210
 H         -0.216  0.307 -0.006    0.005 -0.001  0.149    0.257  0.020 -0.225
 H          0.216  0.307  0.006    0.005  0.001  0.149   -0.256  0.020  0.225
 C          0.092 -0.046  0.008   -0.110  0.004  0.038    0.038 -0.061  0.054
 N         -0.000  0.018  0.000   -0.387  0.000  0.428   -0.000 -0.054  0.000
 C          0.021 -0.157  0.038    0.012  0.000 -0.135   -0.086 -0.083  0.142
 O          0.268  0.002 -0.049   -0.020  0.003 -0.110    0.087 -0.062 -0.035
 C         -0.092 -0.046 -0.008   -0.110 -0.004  0.038   -0.038 -0.061 -0.054
 C         -0.021 -0.157 -0.037    0.012 -0.000 -0.135    0.086 -0.083 -0.142
 O         -0.268  0.002  0.049   -0.020 -0.003 -0.111   -0.087 -0.062  0.035
 H          0.000  0.082 -0.000   -0.368  0.000  0.401   -0.000  0.000  0.000
 H          0.046 -0.208  0.066    0.061 -0.011 -0.151   -0.021 -0.144  0.152
 H         -0.046 -0.208 -0.066    0.061  0.011 -0.150    0.021 -0.145 -0.152
 TransDip  -0.000  0.012  0.000   -0.012  0.000  0.029    0.000 -0.021 -0.000

 Mode:                 7                      8                      9
 Frequency:       271.38                 409.48                 459.36
 Force Cnst:      0.1911                 0.9338                 0.7197
 Red. Mass:       4.4050                 9.4527                 5.7890
 IR Active:          YES                    YES                    YES
 IR Intens:        2.439                 18.618                  0.312
 Raman Active:       YES                    YES                    YES
               X      Y      Z        X      Y      Z        X      Y      Z
 O         -0.046  0.000  0.181   -0.011  0.000  0.061    0.000  0.056 -0.000
 C          0.049  0.002  0.123   -0.000  0.001  0.056    0.023  0.071  0.018
 C          0.049 -0.002  0.123   -0.000 -0.001  0.056   -0.023  0.071 -0.018
 C          0.241  0.001 -0.149    0.065  0.003 -0.038    0.103  0.048 -0.094
 C          0.242 -0.001 -0.150    0.065 -0.003 -0.038   -0.103  0.048  0.094
 H          0.020  0.001  0.139   -0.006  0.005  0.070    0.105  0.066 -0.056
 H          0.020 -0.001  0.139   -0.007 -0.005  0.070   -0.105  0.066  0.056
 H          0.431 -0.001 -0.363    0.152  0.001 -0.134    0.193  0.025 -0.168
 H          0.432  0.000 -0.363    0.152 -0.001 -0.134   -0.193  0.025  0.168
 C         -0.059 -0.000 -0.022   -0.097  0.011 -0.109    0.100 -0.094 -0.124
 N         -0.039  0.000 -0.018   -0.276  0.000 -0.154    0.000 -0.092  0.000
 C         -0.053  0.007  0.032   -0.173 -0.026 -0.133    0.173  0.048 -0.270
 O         -0.114 -0.025 -0.061    0.298  0.204  0.221    0.083 -0.059  0.146
 C         -0.059  0.000 -0.022   -0.097 -0.011 -0.109   -0.100 -0.094  0.124
 C         -0.053 -0.007  0.032   -0.173  0.026 -0.133   -0.173  0.048  0.270
 O         -0.114  0.025 -0.061    0.298 -0.204  0.220   -0.083 -0.059 -0.146
 H         -0.044 -0.000 -0.012   -0.282  0.000 -0.152    0.000 -0.129 -0.000
 H         -0.114 -0.012  0.080   -0.283  0.016 -0.114    0.098  0.224 -0.377
 H         -0.114  0.013  0.080   -0.283 -0.015 -0.114   -0.098  0.225  0.378
 TransDip   0.047  0.000  0.018   -0.119  0.000 -0.071    0.000  0.018  0.000

 Mode:                10                     11                     12
 Frequency:       551.51                 577.42                 599.04
 Force Cnst:      0.2092                 0.7377                 1.2430
 Red. Mass:       1.1672                 3.7552                 5.8790
 IR Active:          YES                    YES                    YES
 IR Intens:       84.655                  0.946                 72.526
 Raman Active:       YES                    YES                    YES
               X      Y      Z        X      Y      Z        X      Y      Z
 O         -0.052  0.000  0.053   -0.000 -0.008  0.000    0.296 -0.000 -0.275
 C          0.015  0.001 -0.008    0.065  0.001 -0.095   -0.124 -0.015  0.072
 C          0.015 -0.001 -0.008   -0.065  0.001  0.095   -0.123  0.015  0.072
 C         -0.011  0.002  0.012   -0.118 -0.017  0.152    0.039 -0.012 -0.069
 C         -0.011 -0.002  0.012    0.118 -0.017 -0.152    0.038  0.012 -0.068
 H         -0.012 -0.001  0.006    0.126  0.004 -0.121   -0.052 -0.005  0.039
 H         -0.013  0.001  0.006   -0.126  0.004  0.121   -0.052  0.005  0.038
 H         -0.023  0.003  0.025   -0.235 -0.016  0.285    0.109 -0.023 -0.135
 H         -0.022 -0.003  0.024    0.235 -0.016 -0.284    0.107  0.022 -0.133
 C          0.014 -0.010 -0.020   -0.072 -0.050 -0.083   -0.092  0.061  0.123
 N          0.030 -0.000 -0.040   -0.000 -0.113  0.000    0.111 -0.000 -0.080
 C          0.011 -0.007 -0.011   -0.137  0.080 -0.027   -0.102  0.027  0.144
 O          0.011 -0.010 -0.012    0.105  0.041  0.082    0.027  0.078 -0.054
 C          0.014  0.010 -0.020    0.072 -0.050  0.083   -0.091 -0.062  0.124
 C          0.011  0.007 -0.011    0.138  0.079  0.027   -0.101 -0.026  0.144
 O          0.011  0.010 -0.012   -0.105  0.041 -0.082    0.026 -0.078 -0.054
 H         -0.615  0.000  0.774    0.001 -0.383 -0.002   -0.395 -0.002  0.556
 H          0.027  0.027 -0.049   -0.255  0.256 -0.112   -0.105 -0.016  0.187
 H          0.028 -0.027 -0.049    0.255  0.255  0.112   -0.103  0.018  0.187
 TransDip  -0.210  0.000  0.207    0.000 -0.031 -0.000   -0.180 -0.000  0.205

 Mode:                13                     14                     15
 Frequency:       609.88                 645.52                 708.79
 Force Cnst:      0.8661                 2.4137                 2.0767
 Red. Mass:       3.9519                 9.8311                 7.0161
 IR Active:          YES                    YES                    YES
 IR Intens:       17.033                 11.826                  8.104
 Raman Active:       YES                    YES                    YES
               X      Y      Z        X      Y      Z        X      Y      Z
 O         -0.001 -0.011  0.001   -0.122  0.000  0.105   -0.000 -0.014  0.000
 C         -0.085 -0.017  0.115    0.057  0.002 -0.050   -0.054 -0.027  0.033
 C          0.085 -0.017 -0.115    0.058 -0.002 -0.050    0.054 -0.027 -0.034
 C          0.117 -0.018 -0.165   -0.004 -0.002  0.036   -0.006 -0.028 -0.022
 C         -0.117 -0.018  0.166   -0.004  0.002  0.037    0.006 -0.028  0.022
 H         -0.156 -0.022  0.150    0.122 -0.009 -0.116   -0.080 -0.029  0.047
 H          0.156 -0.022 -0.150    0.122  0.009 -0.116    0.079 -0.029 -0.047
 H          0.265 -0.028 -0.324   -0.033  0.011  0.054   -0.013 -0.022 -0.023
 H         -0.265 -0.027  0.324   -0.033 -0.011  0.054    0.013 -0.022  0.023
 C         -0.163 -0.017 -0.015    0.010  0.350  0.004    0.032 -0.090  0.256
 N         -0.000 -0.077  0.000    0.194 -0.000  0.120    0.000 -0.045  0.000
 C         -0.154  0.014  0.016    0.007  0.041 -0.056    0.049  0.353  0.106
 O          0.075  0.078  0.022   -0.104  0.382 -0.058    0.113 -0.162 -0.004
 C          0.164 -0.017  0.014    0.010 -0.350  0.004   -0.032 -0.090 -0.256
 C          0.154  0.014 -0.016    0.008 -0.041 -0.056   -0.049  0.353 -0.107
 O         -0.075  0.079 -0.022   -0.105 -0.382 -0.058   -0.113 -0.162  0.004
 H          0.001 -0.385 -0.001    0.189 -0.000  0.116    0.000  0.369  0.000
 H         -0.259  0.080  0.017    0.249 -0.215  0.032   -0.030  0.380  0.133
 H          0.259  0.080 -0.018    0.250  0.214  0.032    0.030  0.380 -0.133
 TransDip   0.000 -0.132 -0.001    0.110 -0.000 -0.010    0.000  0.091  0.000

 Mode:                16                     17                     18
 Frequency:       753.26                 795.11                 798.07
 Force Cnst:      1.6350                 2.2121                 0.4608
 Red. Mass:       4.8907                 5.9389                 1.2280
 IR Active:          YES                    YES                    YES
 IR Intens:        1.834                  0.848                 84.695
 Raman Active:       YES                    YES                    YES
               X      Y      Z        X      Y      Z        X      Y      Z
 O         -0.069  0.000  0.071    0.000  0.003 -0.000    0.012  0.000  0.018
 C          0.034 -0.009 -0.028   -0.040 -0.034  0.029   -0.003  0.010  0.016
 C          0.034  0.009 -0.028    0.040 -0.034 -0.029   -0.003 -0.010  0.015
 C          0.023 -0.003  0.029   -0.001 -0.016 -0.048    0.051  0.007 -0.079
 C          0.023  0.003  0.029    0.000 -0.016  0.049    0.051 -0.008 -0.079
 H          0.057 -0.017 -0.060   -0.203 -0.014  0.187   -0.192  0.010  0.138
 H          0.058  0.017 -0.061    0.204 -0.014 -0.188   -0.191 -0.010  0.137
 H          0.000  0.006  0.047    0.027  0.026 -0.131   -0.379 -0.090  0.532
 H          0.001 -0.006  0.047   -0.023  0.026  0.126   -0.379  0.090  0.531
 C         -0.220 -0.032  0.272    0.275  0.001 -0.272   -0.007  0.004 -0.003
 N          0.039  0.000 -0.184    0.000  0.031  0.000   -0.010  0.000 -0.008
 C          0.059  0.005 -0.091   -0.109  0.075  0.186    0.009 -0.001  0.004
 O          0.061 -0.010 -0.064   -0.052 -0.050  0.080   -0.003  0.008 -0.001
 C         -0.220  0.032  0.272   -0.274  0.001  0.272   -0.007 -0.004 -0.003
 C          0.059 -0.005 -0.091    0.109  0.075 -0.186    0.009  0.001  0.003
 O          0.061  0.010 -0.064    0.052 -0.050 -0.080   -0.003 -0.008 -0.001
 H          0.063  0.000 -0.214    0.000  0.177  0.000   -0.004  0.000 -0.017
 H          0.448  0.023 -0.310   -0.307  0.143  0.234    0.000 -0.001  0.010
 H          0.448 -0.023 -0.310    0.308  0.142 -0.235    0.001  0.002  0.010
 TransDip  -0.036  0.000  0.024    0.001  0.029 -0.000   -0.233  0.000  0.181

 Mode:                19                     20                     21
 Frequency:       853.73                 876.44                 884.05
 Force Cnst:      0.6348                 0.7071                 1.1963
 Red. Mass:       1.4781                 1.5623                 2.5980
 IR Active:          YES                    YES                    YES
 IR Intens:        5.983                  1.479                  5.486
 Raman Active:       YES                    YES                    YES
               X      Y      Z        X      Y      Z        X      Y      Z
 O          0.108  0.000  0.069   -0.000 -0.015 -0.001    0.140 -0.000  0.185
 C         -0.019  0.043  0.024    0.084 -0.066 -0.020   -0.026  0.131 -0.035
 C         -0.019 -0.043  0.024   -0.084 -0.065  0.020   -0.027 -0.132 -0.035
 C         -0.063  0.021 -0.027    0.087  0.066  0.029   -0.078  0.003 -0.067
 C         -0.063 -0.021 -0.027   -0.086  0.066 -0.028   -0.079 -0.002 -0.068
 H         -0.339  0.031  0.209   -0.471 -0.051  0.396    0.092 -0.003 -0.449
 H         -0.338 -0.031  0.208    0.471 -0.051 -0.394    0.095  0.001 -0.451
 H          0.099 -0.041 -0.143   -0.037  0.007  0.243    0.039 -0.203  0.036
 H          0.099  0.041 -0.143    0.037  0.006 -0.244    0.039  0.203  0.033
 C          0.020  0.008 -0.029    0.001  0.001  0.011   -0.007 -0.007  0.040
 N         -0.004 -0.000  0.012   -0.000 -0.003 -0.000    0.039 -0.000  0.012
 C         -0.005 -0.023 -0.003   -0.018  0.005 -0.011   -0.009  0.008 -0.049
 O         -0.012  0.009  0.004   -0.002  0.003 -0.001    0.013 -0.015 -0.004
 C          0.020 -0.008 -0.029   -0.001  0.001 -0.011   -0.007  0.007  0.040
 C         -0.005  0.023 -0.003    0.018  0.005  0.011   -0.009 -0.008 -0.049
 O         -0.013 -0.009  0.004    0.002  0.003  0.001    0.013  0.015 -0.004
 H          0.025 -0.000 -0.024   -0.000 -0.001 -0.000    0.026  0.000  0.031
 H          0.399  0.125 -0.341    0.113  0.064 -0.128   -0.294 -0.178  0.251
 H          0.398 -0.125 -0.339   -0.113  0.063  0.127   -0.294  0.179  0.251
 TransDip  -0.024 -0.000 -0.074    0.000 -0.039  0.000   -0.027 -0.000 -0.070

 Mode:                22                     23                     24
 Frequency:       895.40                 927.65                 947.48
 Force Cnst:      1.2532                 1.5187                 0.7568
 Red. Mass:       2.6530                 2.9955                 1.4308
 IR Active:          YES                    YES                    YES
 IR Intens:        0.087                  8.882                  0.016
 Raman Active:       YES                    YES                    YES
               X      Y      Z        X      Y      Z        X      Y      Z
 O         -0.000 -0.110 -0.000   -0.024 -0.000 -0.028    0.000  0.004  0.000
 C          0.040 -0.061  0.113    0.038 -0.018 -0.007    0.021 -0.014  0.000
 C         -0.040 -0.061 -0.113    0.038  0.018 -0.007   -0.020 -0.014 -0.000
 C          0.116  0.143  0.116    0.009  0.015  0.014   -0.056  0.003  0.087
 C         -0.116  0.143 -0.116    0.010 -0.015  0.014    0.056  0.003 -0.087
 H          0.363 -0.179 -0.376   -0.330  0.039  0.382   -0.083  0.003  0.114
 H         -0.364 -0.179  0.378   -0.330 -0.039  0.382    0.082  0.003 -0.113
 H          0.254  0.049  0.076    0.021  0.065 -0.058    0.369  0.077 -0.491
 H         -0.254  0.048 -0.077    0.021 -0.065 -0.057   -0.369  0.078  0.491
 C          0.006  0.001 -0.010    0.029 -0.016  0.069    0.000 -0.015  0.017
 N         -0.000 -0.002 -0.000    0.180 -0.000  0.107   -0.000  0.067 -0.000
 C          0.003  0.013  0.026   -0.157 -0.037 -0.161   -0.052 -0.018 -0.035
 O          0.003 -0.005  0.003    0.021 -0.047  0.003   -0.001 -0.018 -0.004
 C         -0.006  0.001  0.010    0.029  0.016  0.069   -0.000 -0.015 -0.017
 C         -0.003  0.013 -0.026   -0.157  0.037 -0.161    0.053 -0.018  0.035
 O         -0.003 -0.005 -0.003    0.021  0.047  0.003    0.001 -0.019  0.004
 H         -0.000 -0.004 -0.000    0.180 -0.000  0.123   -0.000  0.257 -0.000
 H         -0.147 -0.046  0.154   -0.217 -0.278  0.050   -0.002  0.117 -0.176
 H          0.149 -0.047 -0.155   -0.216  0.278  0.049    0.001  0.118  0.178
 TransDip  -0.000  0.009  0.000    0.033  0.000  0.090   -0.000 -0.004  0.000

 Mode:                25                     26                     27
 Frequency:       952.92                 958.86                 999.34
 Force Cnst:      1.0424                 0.8491                 0.7369
 Red. Mass:       1.9484                 1.5674                 1.2524
 IR Active:          YES                    YES                    YES
 IR Intens:       30.320                 20.143                  5.768
 Raman Active:       YES                    YES                    YES
               X      Y      Z        X      Y      Z        X      Y      Z
 O         -0.000 -0.013  0.000    0.006 -0.000 -0.006    0.000 -0.000  0.000
[...]
 Red. Mass:       1.3863                 1.5165                 1.2580
 IR Active:          YES                    YES                    YES
 IR Intens:       15.601                  0.104                 17.606
 Raman Active:       YES                    YES                    YES
               X      Y      Z        X      Y      Z        X      Y      Z
 O          0.060  0.001  0.063   -0.001  0.061 -0.001    0.028 -0.000  0.045
 C         -0.020 -0.092  0.005    0.066 -0.101  0.045   -0.003 -0.035 -0.041
 C         -0.022  0.090  0.004   -0.066 -0.103 -0.045   -0.003  0.036 -0.041
 C          0.001  0.035 -0.019   -0.029  0.021 -0.047    0.016  0.019  0.015
 C          0.001 -0.035 -0.017    0.029  0.022  0.047    0.016 -0.019  0.015
 H          0.016 -0.139 -0.117    0.335  0.037  0.222   -0.222 -0.105 -0.059
 H          0.008  0.140 -0.122   -0.336  0.033 -0.219   -0.222  0.105 -0.059
 H         -0.323  0.472 -0.167   -0.340  0.406 -0.156   -0.086  0.196 -0.076
 H         -0.315 -0.463 -0.164    0.348  0.417  0.159   -0.086 -0.197 -0.076
 C          0.008  0.002 -0.004   -0.002  0.001  0.009   -0.014 -0.002  0.013
 N         -0.022  0.000 -0.012    0.000  0.003  0.000    0.033 -0.000  0.019
 C         -0.001 -0.035 -0.003   -0.004 -0.000 -0.014    0.018  0.062 -0.001
 O         -0.000 -0.006  0.001    0.001 -0.001 -0.002   -0.001  0.014 -0.003
 C          0.008 -0.002 -0.004    0.002  0.001 -0.008   -0.014  0.002  0.013
 C         -0.000  0.035 -0.003    0.004 -0.001  0.014    0.018 -0.062 -0.001
 O         -0.000  0.006  0.001   -0.001 -0.001  0.002   -0.001 -0.014 -0.003
 H         -0.026  0.000 -0.009    0.000  0.015  0.000    0.049 -0.000  0.001
 H          0.143 -0.266  0.105   -0.050  0.006  0.005   -0.358  0.476 -0.134
 H          0.144  0.266  0.105    0.045 -0.002 -0.008   -0.359 -0.475 -0.134
 TransDip  -0.103  0.000 -0.074    0.001  0.010  0.001   -0.027  0.000 -0.132

 Mode:                31                     32                     33
 Frequency:      1113.51                1174.88                1195.09
 Force Cnst:      1.1029                 1.9090                 2.9452
 Red. Mass:       1.5097                 2.3473                 3.5000
 IR Active:          YES                    YES                    YES
 IR Intens:        7.079                 32.225                  3.075
 Raman Active:       YES                    YES                    YES
               X      Y      Z        X      Y      Z        X      Y      Z
 O          0.003 -0.000 -0.008   -0.000 -0.012 -0.000   -0.061 -0.000 -0.078
 C          0.063  0.039  0.064    0.016  0.005 -0.001   -0.050  0.261 -0.005
 C          0.063 -0.038  0.064   -0.016  0.005  0.001   -0.050 -0.261 -0.004
 C         -0.083  0.005 -0.071   -0.000  0.002  0.000    0.110  0.135  0.073
 C         -0.083 -0.005 -0.071    0.000  0.002 -0.000    0.110 -0.135  0.073
 H          0.420  0.237  0.311    0.011  0.016  0.031   -0.097  0.222 -0.157
 H          0.420 -0.237  0.311   -0.012  0.016 -0.031   -0.097 -0.222 -0.157
 H         -0.235  0.185 -0.126   -0.025  0.033 -0.006   -0.133  0.522 -0.051
 H         -0.236 -0.186 -0.126    0.025  0.033  0.006   -0.133 -0.522 -0.050
 C         -0.017 -0.001  0.009   -0.146 -0.099 -0.130    0.001 -0.003 -0.009
 N          0.021 -0.000  0.007    0.000  0.085  0.000    0.001 -0.000  0.001
 C          0.014  0.014 -0.010    0.034  0.055  0.051   -0.012  0.010  0.008
 O          0.001  0.006 -0.003    0.023 -0.008  0.022    0.002 -0.003  0.002
 C         -0.017  0.001  0.009    0.146 -0.099  0.130    0.000  0.003 -0.009
 C          0.014 -0.014 -0.010   -0.034  0.055 -0.051   -0.012 -0.010  0.008
 O          0.001 -0.006 -0.003   -0.023 -0.008 -0.022    0.002  0.003  0.002
 H          0.021 -0.000  0.009    0.000  0.585  0.000   -0.006 -0.000  0.010
 H         -0.125  0.155 -0.049    0.422 -0.271  0.118    0.102 -0.026 -0.024
 H         -0.125 -0.155 -0.049   -0.423 -0.270 -0.119    0.103  0.026 -0.024
 TransDip  -0.037  0.000  0.077   -0.000 -0.182 -0.000   -0.042  0.000  0.037

 Mode:                34                     35                     36
 Frequency:      1257.65                1316.71                1335.81
 Force Cnst:      3.2387                 1.3751                 2.0675
 Red. Mass:       3.4754                 1.3461                 1.9666
 IR Active:          YES                    YES                    YES
 IR Intens:       35.127                  0.616                  2.420
 Raman Active:       YES                    YES                    YES
               X      Y      Z        X      Y      Z        X      Y      Z
 O          0.000  0.315 -0.000    0.000  0.009 -0.000    0.000  0.007 -0.000
 C         -0.084 -0.177 -0.067   -0.056 -0.059 -0.058   -0.007 -0.015 -0.019
 C          0.084 -0.177  0.067    0.056 -0.059  0.058    0.007 -0.015  0.019
 C          0.032  0.007  0.017   -0.023  0.061 -0.018    0.001  0.015 -0.004
 C         -0.032  0.007 -0.017    0.023  0.061  0.018   -0.001  0.015  0.004
 H         -0.173 -0.372 -0.464    0.353  0.219  0.342    0.077  0.045  0.069
 H          0.173 -0.372  0.465   -0.353  0.218 -0.342   -0.077  0.045 -0.070
 H          0.101 -0.079  0.039    0.244 -0.326  0.138    0.040 -0.050  0.031
 H         -0.101 -0.079 -0.039   -0.245 -0.326 -0.138   -0.040 -0.050 -0.031
 C         -0.012 -0.008 -0.010    0.007  0.004  0.002   -0.065 -0.035 -0.027
 N         -0.000  0.005 -0.000   -0.000 -0.009 -0.000    0.000  0.065  0.000
 C         -0.001 -0.000 -0.008   -0.016  0.010 -0.016    0.128 -0.065  0.115
 O          0.002  0.002  0.001    0.001 -0.001  0.000   -0.001  0.010 -0.003
 C          0.012 -0.008  0.010   -0.007  0.004 -0.002    0.065 -0.035  0.027
 C          0.001 -0.000  0.008    0.016  0.010  0.016   -0.128 -0.065 -0.115
 O         -0.002  0.002 -0.001   -0.001 -0.001 -0.000    0.001  0.011  0.003
 H          0.000  0.064 -0.000    0.000  0.031  0.000   -0.000 -0.104  0.000
 H          0.030 -0.027 -0.006    0.022 -0.087  0.041   -0.227  0.580 -0.212
 H         -0.030 -0.027  0.006   -0.022 -0.087 -0.041    0.228  0.580  0.212
 TransDip   0.000 -0.190  0.000    0.000 -0.025 -0.000   -0.000 -0.050  0.000

 Mode:                37                     38                     39
 Frequency:      1378.22                1378.91                1435.74
 Force Cnst:      9.4963                 2.1820                 4.0238
 Red. Mass:       8.4852                 1.9477                 3.3131
 IR Active:          YES                    YES                    YES
 IR Intens:      279.246                 32.360                 24.570
 Raman Active:       YES                    YES                    YES
               X      Y      Z        X      Y      Z        X      Y      Z
 O          0.015  0.000  0.025    0.000 -0.003  0.000    0.049  0.000  0.087
 C         -0.028  0.011 -0.040   -0.000  0.003  0.002   -0.080  0.003 -0.139
 C         -0.028 -0.011 -0.040   -0.000  0.003 -0.002   -0.080 -0.003 -0.139
 C          0.020 -0.038  0.006    0.000 -0.001 -0.000    0.055 -0.127  0.039
 C          0.020  0.038  0.006    0.000 -0.000  0.000    0.055  0.127  0.038
 H          0.102  0.141  0.170   -0.000  0.001 -0.003    0.153  0.299  0.385
 H          0.101 -0.140  0.170    0.002 -0.001  0.005    0.153 -0.298  0.385
 H         -0.042  0.037 -0.012   -0.002  0.002 -0.002   -0.085  0.075 -0.048
 H         -0.042 -0.037 -0.012    0.002  0.002  0.001   -0.085 -0.075 -0.048
 C          0.362  0.162  0.252    0.017  0.002  0.011   -0.045 -0.027 -0.058
 N         -0.301  0.008 -0.218   -0.002 -0.231 -0.002    0.026  0.000  0.028
 C         -0.109  0.100 -0.059    0.017 -0.024  0.009   -0.034  0.204  0.017
 O         -0.047 -0.043 -0.034   -0.015  0.083 -0.008    0.021 -0.020  0.017
 C          0.363 -0.162  0.252   -0.011 -0.001 -0.007   -0.045  0.027 -0.058
 C         -0.108 -0.098 -0.058   -0.019 -0.026 -0.010   -0.034 -0.204  0.017
 O         -0.048  0.037 -0.034    0.014  0.083  0.008    0.021  0.020  0.017
 H         -0.351 -0.032 -0.207   -0.002  0.939 -0.002    0.024 -0.000  0.036
 H         -0.082  0.114 -0.087   -0.102  0.112 -0.038    0.273 -0.135  0.167
 H         -0.089 -0.121 -0.089    0.101  0.110  0.036    0.273  0.135  0.167
 TransDip   0.522 -0.003  0.120    0.009  0.182  0.002   -0.002 -0.000 -0.159

 Mode:                40                     41                     42
 Frequency:      1476.08                1505.21                1553.69
 Force Cnst:      4.5298                 4.2169                 5.3302
 Red. Mass:       3.5287                 3.1590                 3.7477
 IR Active:          YES                    YES                    YES
 IR Intens:       11.475                 13.796                  0.969
 Raman Active:       YES                    YES                    YES
               X      Y      Z        X      Y      Z        X      Y      Z
 O         -0.048 -0.000 -0.068    0.000  0.009  0.000   -0.023 -0.000 -0.036
 C          0.138  0.006  0.117    0.153 -0.023  0.115    0.058  0.098  0.054
 C          0.138 -0.006  0.117   -0.153 -0.023 -0.115    0.058 -0.098  0.054
 C         -0.072  0.041 -0.044   -0.193  0.079 -0.130    0.018 -0.319  0.009
 C         -0.072 -0.041 -0.044    0.193  0.079  0.130    0.018  0.319  0.009
 H         -0.293 -0.306 -0.310   -0.174 -0.269 -0.176   -0.307 -0.113 -0.238
 H         -0.292  0.306 -0.310    0.174 -0.269  0.176   -0.307  0.113 -0.238
 H         -0.033 -0.022 -0.036    0.151 -0.486  0.097   -0.345  0.170 -0.239
 H         -0.033  0.022 -0.036   -0.151 -0.486 -0.097   -0.345 -0.170 -0.239
 C         -0.003  0.002 -0.015   -0.003 -0.003  0.000    0.004 -0.002  0.005
 N         -0.010  0.000 -0.004    0.000  0.002  0.000   -0.000 -0.000 -0.001
 C         -0.041  0.254 -0.011    0.008  0.001 -0.002   -0.002 -0.072  0.006
 O          0.016 -0.028  0.012   -0.000  0.001 -0.000   -0.005  0.008 -0.003
 C         -0.003 -0.002 -0.015    0.003 -0.003 -0.000    0.004  0.002  0.005
 C         -0.042 -0.254 -0.011   -0.008  0.001  0.002   -0.002  0.072  0.006
 O          0.016  0.028  0.012    0.000  0.001  0.000   -0.005 -0.008 -0.003
 H         -0.024 -0.000  0.012    0.000 -0.003  0.000    0.004  0.000 -0.006
 H          0.263 -0.111  0.164   -0.011  0.008  0.003   -0.027  0.026 -0.072
 H          0.263  0.110  0.164    0.011  0.008 -0.003   -0.027 -0.026 -0.072
 TransDip   0.056 -0.000  0.093   -0.000 -0.119  0.000    0.006 -0.000 -0.031

 Mode:                43                     44                     45
 Frequency:      1866.47                1904.10                3272.58
 Force Cnst:     20.1863                26.5456                 6.8776
 Red. Mass:       9.8348                12.4270                 1.0900
 IR Active:          YES                    YES                    YES
 IR Intens:      788.562                132.292                  1.745
 Raman Active:       YES                    YES                    YES
               X      Y      Z        X      Y      Z        X      Y      Z
 O         -0.000  0.002 -0.000    0.000 -0.000 -0.004   -0.000 -0.000  0.000
 C          0.006  0.000 -0.005   -0.000 -0.004  0.007   -0.000  0.000  0.000
 C         -0.006  0.000  0.005   -0.000  0.004  0.007    0.000  0.000 -0.000
 C         -0.001 -0.000 -0.002   -0.001  0.007 -0.004   -0.001 -0.001 -0.001
 C          0.001 -0.000  0.002   -0.001 -0.007 -0.004    0.001 -0.001  0.001
 H         -0.040 -0.002  0.018    0.032 -0.009 -0.019    0.000 -0.003  0.002
 H          0.040 -0.002 -0.018    0.032  0.009 -0.019   -0.000 -0.003 -0.002
 H         -0.001 -0.002 -0.001    0.002 -0.005  0.007    0.005  0.006  0.006
 H          0.001 -0.002  0.001    0.002  0.005  0.007   -0.005  0.006 -0.006
 C         -0.175  0.468 -0.103    0.175 -0.554  0.098   -0.001  0.001 -0.001
 N         -0.000 -0.113 -0.000   -0.015  0.000 -0.006    0.000 -0.000  0.000
 C          0.017 -0.049  0.011   -0.031  0.049 -0.012    0.024  0.035  0.044
 O          0.101 -0.287  0.060   -0.108  0.328 -0.064    0.000 -0.000  0.000
 C          0.175  0.468  0.103    0.175  0.554  0.098    0.001  0.001  0.001
 C         -0.017 -0.049 -0.011   -0.031 -0.049 -0.012   -0.024  0.035 -0.044
 O         -0.101 -0.286 -0.060   -0.108 -0.329 -0.064   -0.000 -0.000 -0.000
 H          0.000  0.484 -0.000   -0.001  0.000  0.003    0.000  0.000  0.000
 H         -0.076  0.092 -0.037    0.086 -0.123  0.036   -0.265 -0.408 -0.503
 H          0.076  0.092  0.037    0.087  0.123  0.036    0.267 -0.413  0.510
 TransDip   0.000  0.899 -0.000    0.367 -0.000  0.033   -0.000  0.042 -0.000

 Mode:                46                     47                     48
 Frequency:      3282.36                3286.48                3292.52
 Force Cnst:      6.9090                 6.9959                 7.0036
 Red. Mass:       1.0884                 1.0993                 1.0965
 IR Active:          YES                    YES                    YES
 IR Intens:        0.210                  0.172                  0.090
 Raman Active:       YES                    YES                    YES
               X      Y      Z        X      Y      Z        X      Y      Z
 O         -0.000  0.000 -0.000   -0.000  0.000  0.000   -0.000  0.000  0.000
 C         -0.008  0.029 -0.012   -0.001  0.004 -0.001    0.013 -0.047  0.018
 C          0.008  0.029  0.012   -0.001 -0.004 -0.001    0.013  0.047  0.018
 C         -0.030 -0.031 -0.026   -0.001 -0.002 -0.001    0.019  0.025  0.017
 C          0.031 -0.031  0.027   -0.001  0.002 -0.001    0.019 -0.025  0.017
 H          0.093 -0.341  0.141    0.012 -0.042  0.017   -0.143  0.519 -0.216
 H         -0.094 -0.344 -0.141    0.012  0.042  0.016   -0.143 -0.517 -0.215
 H          0.351  0.363  0.305    0.019  0.019  0.015   -0.234 -0.249 -0.205
 H         -0.353  0.365 -0.307    0.018 -0.019  0.015   -0.232  0.247 -0.204
 C          0.000  0.000  0.000    0.002 -0.002  0.001    0.000 -0.000  0.000
 N         -0.000 -0.000 -0.000    0.001  0.000  0.000    0.000  0.000  0.000
 C         -0.000 -0.001 -0.001   -0.024 -0.041 -0.044   -0.002 -0.003 -0.003
 O         -0.000 -0.000  0.000   -0.000  0.001 -0.000   -0.000  0.000 -0.000
 C         -0.000  0.000 -0.000    0.002  0.002  0.001    0.000  0.000  0.000
 C          0.000 -0.001  0.001   -0.023  0.041 -0.044   -0.002  0.003 -0.003
 O          0.000 -0.000 -0.000   -0.000 -0.001 -0.000   -0.000 -0.000 -0.000
 H         -0.000 -0.000 -0.000    0.000 -0.000  0.000    0.000  0.000  0.000
 H          0.004  0.005  0.007    0.266  0.415  0.505    0.021  0.032  0.040
 H         -0.004  0.006 -0.007    0.262 -0.411  0.500    0.021 -0.032  0.040
 TransDip   0.000 -0.015 -0.000   -0.009 -0.000 -0.010    0.008  0.000 -0.006

 Mode:                49                     50                     51
 Frequency:      3297.65                3308.67                3699.94
 Force Cnst:      7.0335                 7.1531                 8.7103
 Red. Mass:       1.0978                 1.1090                 1.0799
 IR Active:          YES                    YES                    YES
 IR Intens:        0.143                  0.600                 81.436
 Raman Active:       YES                    YES                    YES
               X      Y      Z        X      Y      Z        X      Y      Z
 O         -0.000  0.001 -0.000    0.001  0.000  0.001    0.000 -0.000 -0.000
 C          0.016 -0.047  0.021    0.012 -0.034  0.014   -0.000 -0.000  0.000
 C         -0.016 -0.047 -0.021    0.012  0.034  0.014   -0.000  0.000  0.000
 C         -0.023 -0.018 -0.019   -0.033 -0.036 -0.028    0.000 -0.000  0.000
 C          0.023 -0.018  0.019   -0.033  0.036 -0.027    0.000  0.000  0.000
 H         -0.149  0.527 -0.222   -0.102  0.355 -0.150    0.000 -0.000  0.000
 H          0.149  0.529  0.222   -0.102 -0.353 -0.149    0.000  0.000  0.000
 H          0.228  0.231  0.198    0.346  0.358  0.301   -0.000  0.000  0.000
 H         -0.230  0.233 -0.200    0.344 -0.357  0.299   -0.000 -0.000  0.000
 C         -0.000 -0.000  0.000   -0.000 -0.000  0.000    0.001  0.002  0.001
 N         -0.000  0.000  0.000    0.000 -0.000  0.000   -0.059  0.000 -0.046
 C         -0.000  0.000 -0.000   -0.000  0.000 -0.000    0.001  0.000  0.000
 O          0.000  0.000 -0.000   -0.000  0.000 -0.000   -0.000 -0.000 -0.000
 C          0.000 -0.000 -0.000   -0.000  0.000  0.000    0.001 -0.002  0.001
 C          0.000  0.000  0.000   -0.000 -0.000 -0.000    0.001 -0.000  0.000
 O         -0.000  0.000  0.000   -0.000 -0.000 -0.000   -0.000  0.000 -0.000
 H         -0.000  0.000  0.000    0.000  0.000 -0.000    0.781 -0.000  0.620
 H          0.000  0.002  0.003   -0.000  0.001  0.002   -0.000  0.000  0.001
 H         -0.000  0.002 -0.003   -0.000 -0.001  0.002   -0.000 -0.000  0.001
 TransDip   0.000 -0.012 -0.000   -0.024 -0.000  0.004    0.244 -0.000  0.155

 STANDARD THERMODYNAMIC QUANTITIES AT   298.15 K  AND     1.00 ATM

   This Molecule has  1 Imaginary Frequencies
   Zero point vibrational energy:       89.728 kcal/mol

   Atom    1 Element O  Has Mass   15.99491
   Atom    2 Element C  Has Mass   12.00000
   Atom    3 Element C  Has Mass   12.00000
   Atom    4 Element C  Has Mass   12.00000
   Atom    5 Element C  Has Mass   12.00000
   Atom    6 Element H  Has Mass    1.00783
   Atom    7 Element H  Has Mass    1.00783
   Atom    8 Element H  Has Mass    1.00783
   Atom    9 Element H  Has Mass    1.00783
   Atom   10 Element C  Has Mass   12.00000
   Atom   11 Element N  Has Mass   14.00307
   Atom   12 Element C  Has Mass   12.00000
   Atom   13 Element O  Has Mass   15.99491
   Atom   14 Element C  Has Mass   12.00000
   Atom   15 Element C  Has Mass   12.00000
   Atom   16 Element O  Has Mass   15.99491
   Atom   17 Element H  Has Mass    1.00783
   Atom   18 Element H  Has Mass    1.00783
   Atom   19 Element H  Has Mass    1.00783
   Molecular Mass:   165.042610 amu
   Principal axes and moments of inertia in amu*Bohr^2:
                             1           2           3
    Eigenvalues --     1193.19346  1749.94447  2459.13753
          X               0.99794     0.00037     0.06419
          Y              -0.00037     1.00000     0.00006
          Z              -0.06419    -0.00008     0.99794
   Rotational Symmetry Number is   1
   The Molecule is an Asymmetric Top
   Translational Enthalpy:        0.889 kcal/mol
   Rotational Enthalpy:           0.889 kcal/mol
   Vibrational Enthalpy:         93.546 kcal/mol
   gas constant (RT):             0.592 kcal/mol
   Translational Entropy:        41.211  cal/mol.K
   Rotational Entropy:           30.019  cal/mol.K
   Vibrational Entropy:          22.143  cal/mol.K

   Total Enthalpy:               95.916 kcal/mol
   Total Entropy:                93.373  cal/mol.K
Archival summary:
1\1\nid12990\FREQ\ProcedureUnspecified\6-31G*\3187\ewcss\FriSep2716:31:112019FriSep2716:31:112019\0\\#,FREQ,ProcedureUnspecified,6-31G*,\\0,1\O\C,1,1.35755\H,2,1.08131,1,115.625\C,1,1.35756,2,104.313,3,179.334,0\H,4,1.08131,1,115.627,2,-179.307,0\C,2,1.41316,1,108.632,3,155.075,0\H,6,1.08071,2,125.523,1,-171.874,0\C,6,1.37519,2,105.784,1,15.9811,0\H,8,1.0807,6,128.154,2,171.888,0\C,2,2.16145,1,91.015,3,-107.023,0\H,10,1.08113,2,99.7071,1,-165.855,0\C,10,1.39841,2,99.9367,1,-36.4183,0\H,12,1.08111,10,125.995,2,-109.739,0\C,10,1.49707,2,97.0681,1,73.2372,0\O,14,1.2099,10,128.821,2,77.8636,0\N,14,1.39298,10,105.678,2,-101.091,0\H,16,1.00901,14,123.593,10,173.65,0\C,16,1.39294,14,112.725,10,-3.0654,0\O,18,1.2099,16,125.497,14,-177.947,0\\\@

 Total job time:  201.25s(wall), 3986.53s(cpu) 
 Fri Sep 27 16:31:11 2019

        *************************************************************
        *                                                           *
        *  Thank you very much for using Q-Chem.  Have a nice day.  *
        *                                                           *
        *************************************************************


