
Running Job 1 of 1 mol.qin
qchem mol.qin_58420.0 /tmp/qchem58420/ 1
srun -n 1 /global/common/cori/software/qchem/5.1beta/exe/qcprog.exe mol.qin_58420.0 /tmp/qchem58420/

Process 0 of 1 is on nid02301 - thread support 0
initial socket setup ...start
initial socket setup ...done 
now start server 0 ... 
Check license passed

                  Welcome to Q-Chem
     A Quantum Leap Into The Future Of Chemistry


 Q-Chem 5.1, Q-Chem, Inc., Pleasanton, CA (2018)

 Yihan Shao,  Zhengting Gan,  E. Epifanovsky,  A. T. B. Gilbert,  M. Wormit,  
 J. Kussmann,  A. W. Lange,  A. Behn,  Jia Deng,  Xintian Feng,  D. Ghosh,  
 M. Goldey,  P. R. Horn,  L. D. Jacobson,  I. Kaliman,  T. Kus,  A. Landau,  
 Jie Liu,  E. I. Proynov,  R. M. Richard,  R. P. Steele,  E. J. Sundstrom,  
 H. L. Woodcock III,  P. M. Zimmerman,  D. Zuev,  B. Albrecht,  E. Alguire,  
 S. A. Baeppler,  D. Barton,  Z. Benda,  Y. A. Bernard,  E. J. Berquist,  
 K. B. Bravaya,  H. Burton,  D. Casanova,  Chun-Min Chang,  Yunqing Chen,  
 A. Chien,  K. D. Closser,  M. P. Coons,  S. Coriani,  S. Dasgupta,  
 A. L. Dempwolff,  M. Diedenhofen,  Hainam Do,  R. G. Edgar,  Po-Tung Fang,  
 S. Faraji,  S. Fatehi,  Qingguo Feng,  K. D. Fenk,  J. Fosso-Tande,  
 Qinghui Ge,  A. Ghysels,  G. Gidofalvi,  J. Gomes,  J. Gonthier,  A. Gunina,  
 M. W. D. Hanson-Heine,  P. H. P. Harbach,  A. W. Hauser,  J. E. Herr,  
 E. G. Hohenstein,  Z. C. Holden,  Kerwin Hui,  T.-C. Jagau,  Hyunjun Ji,  
 B. Kaduk,  K. Khistyaev,  Jaehoon Kim,  P. Klunzinger,  K. Koh,  
 D. Kosenkov,  L. Koulias,  T. Kowalczyk,  C. M. Krauter,  A. Kunitsa,  
 Ka Un Lao,  A. Laurent,  K. V. Lawler,  Joonho Lee,  D. Lefrancois,  
 S. Lehtola,  D. S. Levine,  Yi-Pei Li,  You-Sheng Lin,  Fenglai Liu,  
 E. Livshits,  A. Luenser,  P. Manohar,  E. Mansoor,  S. F. Manzer,  
 Shan-Ping Mao,  Yuezhi Mao,  N. Mardirossian,  A. V. Marenich,  
 T. Markovich,  L. A. Martinez-Martinez,  S. A. Maurer,  N. J. Mayhall,  
 S. C. McKenzie,  J.-M. Mewes,  A. F. Morrison,  J. W. Mullinax,  K. Nanda,  
 T. S. Nguyen-Beck,  R. Olivares-Amaya,  J. A. Parkhill,  T. M. Perrine,  
 F. Plasser,  P. Pokhilko,  S. Prager,  A. Prociuk,  E. Ramos,  D. R. Rehn,  
 F. Rob,  M. Schneider,  N. Sergueev,  S. M. Sharada,  S. Sharma,  
 D. W. Small,  T. Stauch,  T. Stein,  Yu-Chuan Su,  A. J. W. Thom,  
 A. Tkatchenko,  T. Tsuchimochi,  N. M. Tubman,  L. Vogt,  M. L. Vidal,  
 O. Vydrov,  M. A. Watson,  J. Wenzel,  M. de Wergifosse,  T. A. Wesolowski,  
 A. White,  J. Witte,  A. Yamada,  Jun Yang,  K. Yao,  S. Yeganeh,  
 S. R. Yost,  Zhi-Qiang You,  A. Zech,  Igor Ying Zhang,  Xing Zhang,  
 Yan Zhao,  Ying Zhu,  B. R. Brooks,  G. K. L. Chan,  C. J. Cramer,  
 M. S. Gordon,  W. J. Hehre,  A. Klamt,  M. W. Schmidt,  C. D. Sherrill,  
 D. G. Truhlar,  A. Aspuru-Guzik,  R. Baer,  A. T. Bell,  N. A. Besley,  
 Jeng-Da Chai,  R. A. DiStasio Jr.,  A. Dreuw,  B. D. Dunietz,  
 T. R. Furlani,  Chao-Ping Hsu,  Yousung Jung,  Jing Kong,  D. S. Lambrecht,  
 WanZhen Liang,  C. Ochsenfeld,  V. A. Rassolov,  L. V. Slipchenko,  
 J. E. Subotnik,  T. Van Voorhis,  J. M. Herbert,  A. I. Krylov,  
 P. M. W. Gill,  M. Head-Gordon

 Contributors to earlier versions of Q-Chem not listed above: 
 R. D. Adamson,  B. Austin,  J. Baker,  G. J. O. Beran,  K. Brandhorst,  
 S. T. Brown,  E. F. C. Byrd,  A. K. Chakraborty,  C.-L. Cheng,  
 Siu Hung Chien,  D. M. Chipman,  D. L. Crittenden,  H. Dachsel,  
 R. J. Doerksen,  A. D. Dutoi,  L. Fusti-Molnar,  W. A. Goddard III,  
 A. Golubeva-Zadorozhnaya,  S. R. Gwaltney,  G. Hawkins,  A. Heyden,  
 S. Hirata,  G. Kedziora,  F. J. Keil,  C. Kelley,  Jihan Kim,  R. A. King,  
 R. Z. Khaliullin,  P. P. Korambath,  W. Kurlancheek,  A. M. Lee,  M. S. Lee,  
 S. V. Levchenko,  Ching Yeh Lin,  D. Liotard,  R. C. Lochan,  I. Lotan,  
 P. E. Maslen,  N. Nair,  D. P. O'Neill,  D. Neuhauser,  E. Neuscamman,  
 C. M. Oana,  R. Olson,  B. Peters,  R. Peverati,  P. A. Pieniazek,  
 Y. M. Rhee,  J. Ritchie,  M. A. Rohrdanz,  E. Rosta,  N. J. Russ,  
 H. F. Schaefer III,  N. E. Schultz,  N. Shenvi,  A. C. Simmonett,  A. Sodt,  
 D. Stuck,  K. S. Thanthiriwatte,  V. Vanovschi,  Tao Wang,  A. Warshel,  
 C. F. Williams,  Q. Wu,  X. Xu,  W. Zhang

 Please cite Q-Chem as follows:
 Y. Shao et al., Mol. Phys. 113, 184-215 (2015)
 DOI: 10.1080/00268976.2014.952696

 Q-Chem 5.1.0 for Intel X86 EM64T Linux

 Parts of Q-Chem use Armadillo 8.300.2 (Tropical Shenanigans).
 http://arma.sourceforge.net/

 Q-Chem begins on Mon Jul  9 16:50:58 2018  

Host: cori06
0

     Scratch files written to /tmp/qchem58420//
 Mar1918  _RNUM -1
 Parallel job on  1  processors
Processing $rem in /global/common/cori/software/qchem/5.1beta/config/preferences.
 MEM_TOTAL  2000 

Checking the input file for inconsistencies... 	...done.

--------------------------------------------------------------
User input:
--------------------------------------------------------------
$molecule
0 1
S     -1.1408748192      0.8527464235     -0.0736155869
O     -1.6237636360      1.8516556037     -1.0049437043
O     -0.9033934562      1.2359696697      1.3038265288
C     -2.5517437760     -0.3740075232      0.0238755927
F     -3.6088940040      0.2018451156      0.6082322384
N     -0.0000306574      0.0000138173     -0.7905593654
$end

$rem
job_type = opt
basis = 6-311++g*
max_scf_cycles = 200
gen_scfman = true
scf_algorithm = gdm
method = wb97xd
geom_opt_max_cycles = 200
$end
--------------------------------------------------------------
 ----------------------------------------------------------------
             Standard Nuclear Orientation (Angstroms)
    I     Atom           X                Y                Z
 ----------------------------------------------------------------
    1      S      -0.4872883756    -0.0502760276    -0.0260733677
    2      O      -0.5413572654     0.7007344166    -1.2635842120
    3      O      -0.3998466519    -1.4956939991    -0.0871067089
    4      C       1.1376550071     0.4799209312     0.7377532993
    5      F       2.1531440151     0.0371868494    -0.0128558953
    6      N      -1.5539972614     0.5642694099     0.9874120732
 ----------------------------------------------------------------
 Molecular Point Group                 C1    NOp =  1
 Largest Abelian Subgroup              C1    NOp =  1
 Nuclear Repulsion Energy =   306.4283414291 hartrees
 There are       27 alpha and       27 beta electrons
 Requested basis set is 6-311++G(d)
 There are 43 shells and 140 basis functions

 Total QAlloc Memory Limit   2000 MB
 Mega-Array Size       188 MB
 MEM_STATIC part       192 MB
 A cutoff of  1.0D-12 yielded    886 shell pairs
 There are      9647 function pairs (     10491 Cartesian)
 
 -------------------------------------------------------
 OpenMP Integral Computing Module                       
 Release: version 1.0, May 2013, Q-Chem Inc. Pittsburgh 
 -------------------------------------------------------
 Integral Job Info:
 Integral job number is                      11
 Integral operator is                         1
 short-range coefficients              22203600
 long-range coefficients              100000000
 Omega coefficients                         200
 if combine SR and LR in K                    1
 Integral screening is                        0
 Integral computing path is                   2
 max size of driver memory is            800000
 size of driver memory is                593474
 size of scratch memory is              4293864
 max col of scratch BK array               1296
 max len of scratch array in speh3          155
 max len of scratch index in speh4           18
 max int batch size is                      520
 min int batch size is                       52
 fixed nKL is                                52
 max L of basis functions is                  2
 order of int derivative is                   0
 number of shells is                         43
 number of basis is                         146
 number of cartesian basis is               146
 number of contracted shell pairs           886
 number of primitive shell pairs           2662
 maxK2 (contraction) of shell pair           36
 max number of K2 of shell pair               1
 max number of CS2 of shell pair            143
 max number of PS2 of shell pair            564
 mem total for path MDJ                  524700
 -------------------------------------------------------
 Smallest overlap matrix eigenvalue = 3.87E-04

 Scale SEOQF with 1.000000e-01/1.000000e-01/1.000000e-01

 Standard Electronic Orientation quadrupole field applied
 Nucleus-field energy     =     0.0000000020 hartrees
 Guess from superposition of atomic densities
 Warning:  Energy on first SCF cycle will be non-variational
 SAD guess density has 49.718071 electrons

 -----------------------------------------------------------------------
  General SCF calculation program by
  Eric Jon Sundstrom, Paul Horn, Yuezhi Mao, Dmitri Zuev, Alec White,
  David Stuck, Shaama M.S., Shane Yost, Joonho Lee, David Small,
  Daniel Levine, Susi Lehtola, Hugh Burton, Evgeny Epifanovsky
 -----------------------------------------------------------------------
 Exchange:     0.2220 Hartree-Fock + 1.0000 wB97X-D + LR-HF
 Correlation:  1.0000 wB97X-D
 Using SG-2 standard quadrature grid
 Dispersion:   Grimme D
 using 24 threads for integral computing
 -------------------------------------------------------
 OpenMP Integral computing Module                
 Release: version 1.0, May 2013, Q-Chem Inc. Pittsburgh 
 -------------------------------------------------------
 using 24 threads for integral computing
 -------------------------------------------------------
 OpenMP Integral computing Module                
 Release: version 1.0, May 2013, Q-Chem Inc. Pittsburgh 
 -------------------------------------------------------
 -------------------------------------------------------
 OpenMP BLAS3 based DFT computing Module                
 Release: version 1.0, May 2013, Q-Chem Inc. Pittsburgh 
 -------------------------------------------------------
 A restricted SCF calculation will be
 performed using Roothaan-Hall, GDM
 SCF converges when RMS gradient is below 1.0e-08
 ---------------------------------------
  Cycle       Energy         DIIS error
 ---------------------------------------
    1    -725.4984402017      4.02e-01  Roothaan Step
 ---------------------------------------
  Cycle       Energy        RMS Gradient
 ---------------------------------------
    1    -709.0061685061      2.14e+00   Descent step
    2    -714.1117545941      1.21e+00   Descent step
    3    -717.6625605564      1.43e+00   Descent step
    4    -720.7429373523      1.50e+00   Descent step
    5    -723.4037730410      1.35e+00   Descent step
    6    -725.8593217941      1.86e+00   Descent step
    7    -728.2386009307      4.04e+00   Descent step
    8    -730.6909892047      1.02e+00   Descent step
    9    -732.3067604381      4.76e-01   Descent step
   10    -733.6225872567      6.99e-01   Descent step
   11    -734.7871764051      4.97e-01   Descent step
   12    -735.7942770039      4.40e-01   Descent step
   13    -736.6381997531      3.83e-01   Descent step
   14    -737.3828087095      4.14e-01   Descent step
   15    -738.1889177361      1.24e+00   Descent step
   16    -739.1139325425      7.83e-01   Descent step
   17    -739.9014009503      3.40e-01   Descent step
   18    -740.3862883163      2.88e-01   Descent step
   19    -740.7052368996      8.73e-02   Descent step
   20    -740.8191696493      1.72e-01   Dog-leg BFGS step
   21    -740.7916444644      1.54e-01  Line search: overstep
   22    -740.8573587630      3.00e-02   Dog-leg BFGS step
   23    -740.8121623827      8.86e-02  Line search: overstep
   24    -740.8622417392      2.29e-02   Dog-leg BFGS step
   25    -740.8396748791      3.64e-02  Line search: overstep
   26    -740.8725862819      1.41e-02   Dog-leg BFGS step
   27    -740.7637570945      1.42e-01  Line search: overstep
   28    -740.8725881551      2.69e-02   Normal BFGS step
   29    -740.8712679910      3.00e-02  Line search: overstep
   30    -740.8747422545      1.31e-02   Dog-leg BFGS step
   31    -740.8002388332      8.59e-02  Line search: overstep
   32    -740.8749335355      1.36e-02   Normal BFGS step
   33    -740.8752135644      1.10e-02   Normal BFGS step
   34    -740.8759002748      1.28e-02   Normal BFGS step
   35    -740.8762134013      1.73e-02   Normal BFGS step
   36    -740.8773854938      1.73e-02   Normal BFGS step
   37    -740.8801334443      2.36e-02   Dog-leg BFGS step
   38    -740.8850376100      6.60e-02   Normal BFGS step
   39    -740.8957779423      2.83e-02   Normal BFGS step
   40    -740.9062821230      1.55e-02   Normal BFGS step
   41    -740.9089804564      1.84e-02   Normal BFGS step
   42    -740.9082757474      1.93e-02  Line search: overstep
   43    -740.9104898099      7.10e-03   Normal BFGS step
   44    -740.9112246657      1.05e-02   Normal BFGS step
   45    -740.9115866281      3.76e-03   Normal BFGS step
   46    -740.9116855841      2.51e-03   Normal BFGS step
   47    -740.9117383443      2.27e-03   Normal BFGS step
   48    -740.9117669452      2.33e-03   Normal BFGS step
   49    -740.9117919884      2.25e-03   Normal BFGS step
   50    -740.9118252429      2.08e-03   Normal BFGS step
   51    -740.9118666756      2.14e-03   Normal BFGS step
   52    -740.9119181726      1.47e-03   Normal BFGS step
   53    -740.9119671932      2.36e-03   Normal BFGS step
   54    -740.9120217693      1.25e-03   Normal BFGS step
   55    -740.9120329838      2.13e-03   Normal BFGS step
   56    -740.9120557723      1.06e-03   Normal BFGS step
   57    -740.9120640756      3.16e-04   Normal BFGS step
   58    -740.9120654450      2.04e-04   Normal BFGS step
   59    -740.9120658127      7.54e-05   Normal BFGS step
   60    -740.9120658586      2.70e-05   Normal BFGS step
   61    -740.9120658614      9.44e-06   Normal BFGS step
   62    -740.9120658623      1.08e-05   Normal BFGS step
   63    -740.9120658627      1.39e-06   Normal BFGS step
   64    -740.9120658627      8.33e-07   Normal BFGS step
   65    -740.9120658628      7.55e-07   Normal BFGS step
   66    -740.9120658628      6.47e-07   Normal BFGS step
   67    -740.9120658628      2.20e-07   Normal BFGS step
   68    -740.9120658628      9.59e-08   Normal BFGS step
   69    -740.9120658628      4.21e-08   Normal BFGS step
   70    -740.9120658628      1.45e-08   Normal BFGS step
   71    -740.9120658628      7.15e-09  Convergence criterion met
 ---------------------------------------
 SCF time:   CPU 911.58s  wall 41.00s 
 SCF   energy in the final basis set =     -740.9120658628
 
 --------------------------------------------------------------
 
                    Orbital Energies (a.u.)
 --------------------------------------------------------------
 
 Alpha MOs
 -- Occupied --
-89.281 -24.926 -19.344 -19.335 -14.590 -10.492  -8.305  -6.254
 -6.253  -6.251  -1.432  -1.311  -1.199  -1.050  -0.860  -0.746
 -0.685  -0.645  -0.636  -0.625  -0.602  -0.522  -0.503  -0.492
 -0.487  -0.438  -0.377
 -- Virtual --
 -0.199  -0.093   0.057   0.075   0.089   0.096   0.098   0.117
  0.129   0.132   0.135   0.142   0.169   0.183   0.200   0.222
  0.236   0.240   0.274   0.286   0.293   0.301   0.309   0.322
  0.337   0.347   0.351   0.362   0.381   0.399   0.414   0.427
  0.440   0.501   0.599   0.604   0.629   0.701   0.747   0.838
  0.844   0.887   0.905   0.915   0.958   1.038   1.070   1.128
  1.131   1.147   1.187   1.197   1.211   1.246   1.270   1.315
  1.353   1.383   1.492   1.517   1.573   1.625   1.665   1.804
  1.819   1.869   1.926   1.963   1.981   2.015   2.186   2.204
  2.622   2.705   2.771   2.816   2.831   2.841   2.880   2.914
  2.987   3.011   3.092   3.168   3.488   3.608   3.776   3.785
  3.858   3.862   3.980   3.993   4.081   4.672   5.013   5.022
  5.030   5.087   5.170   5.315   6.301   6.352   6.538   8.167
 17.362  17.448  17.513  23.488  35.335  49.900  49.931  66.797
189.385
 --------------------------------------------------------------
 
          Ground-State Mulliken Net Atomic Charges

     Atom                 Charge (a.u.)
  ----------------------------------------
      1 S                     0.205005
      2 O                    -0.131392
      3 O                    -0.079354
      4 C                    -0.016914
      5 F                     0.053723
      6 N                    -0.031068
  ----------------------------------------
  Sum of atomic charges =    -0.000000

 -----------------------------------------------------------------
                    Cartesian Multipole Moments
 -----------------------------------------------------------------
    Charge (ESU x 10^10)
                -0.0000
    Dipole Moment (Debye)
         X       0.5815      Y       0.1532      Z       0.4823
       Tot       0.7709
    Quadrupole Moments (Debye-Ang)
        XX     -40.9076     XY      -0.3239     YY     -42.9684
        XZ      -0.7134     YZ      -1.3301     ZZ     -42.7287
    Octopole Moments (Debye-Ang^2)
       XXX      12.2135    XXY      -2.9184    XYY       4.0860
       YYY       1.2411    XXZ      -5.1267    XYZ      -1.1800
       YYZ      -3.1609    XZZ       3.2398    YZZ      -8.1195
       ZZZ      -8.0580
    Hexadecapole Moments (Debye-Ang^3)
      XXXX    -345.7899   XXXY      -0.0064   XXYY     -79.3021
      XYYY      -4.8677   YYYY    -155.4079   XXXZ       3.1672
      XXYZ      -5.6681   XYYZ      -2.1668   YYYZ      -5.8310
      XXZZ     -83.8807   XYZZ       0.6468   YYZZ     -53.7030
      XZZZ      -5.6547   YZZZ      -9.0560   ZZZZ    -152.8345
 -----------------------------------------------------------------
 Calculating analytic gradient of the SCF energy
 Gradient of SCF Energy
            1           2           3           4           5           6
    1  -0.0440868   0.0180359   0.0185679  -0.0410699   0.0421306   0.0064224
    2   0.0114196  -0.0162809   0.0032906   0.0029350  -0.0094938   0.0081296
    3  -0.0048300   0.0049779  -0.0089533   0.0100397  -0.0172430   0.0160089
 Max gradient component =       4.409E-02
 RMS gradient           =       2.037E-02
 Gradient time:  CPU 26.87 s  wall 1.66 s
 Geometry Optimization Parameters
   NAtoms,    NIC,     NZ,  NCons,   NDum,   NFix, NCnnct, MaxDiis
        6      27       0       0       0       0       0       0


** GEOMETRY OPTIMIZATION IN DELOCALIZED INTERNAL COORDINATES **
   Searching for a Minimum

   Optimization Cycle:   1

                       Coordinates (Angstroms)
     ATOM                X               Y               Z
      1  S        -0.4872883756   -0.0502760276   -0.0260733677
      2  O        -0.5413572654    0.7007344166   -1.2635842120
      3  O        -0.3998466519   -1.4956939991   -0.0871067089
      4  C         1.1376550071    0.4799209312    0.7377532993
      5  F         2.1531440151    0.0371868494   -0.0128558953
      6  N        -1.5539972614    0.5642694099    0.9874120732
   Point Group: c1    Number of degrees of freedom:    12


   Energy is   -740.912065863


 Attempting to Generate Delocalized Internal Coordinates

 12 Hessian modes will be used to form the next step
  Hessian Eigenvalues:
     0.002000    0.167988    0.173645    0.211672    0.250000    0.250000
     0.250000    0.250000    0.522801    0.576215    0.962320    0.965780

 Minimum Search - Taking Simple RFO Step
 Searching for Lamda that Minimizes Along All modes
 Value Taken    Lamda =  -0.02459415
 Calculated Step too Large.  Step scaled by  0.991706
 Step Taken.  Stepsize is  0.300000

                             Maximum     Tolerance    Cnvgd?
         Gradient           0.049074      0.000300      NO
         Displacement       0.191225      0.001200      NO
         Energy change     *********      0.000001      NO


 New Cartesian Coordinates Obtained by Inverse Iteration

 Displacement from previous Coordinates is:  0.387728
 ----------------------------------------------------------------
             Standard Nuclear Orientation (Angstroms)
    I     Atom           X                Y                Z
 ----------------------------------------------------------------
    1      S      -0.3977823082    -0.0495004790    -0.0145385079
    2      O      -0.5947115780     0.7356039632    -1.2244193180
    3      O      -0.4586659211    -1.4981004028    -0.0489288202
    4      C       1.2176834682     0.5096956801     0.7696480572
    5      F       2.1174446953     0.0257404906    -0.0326359260
    6      N      -1.5756588884     0.5127023284     0.8864197035
 ----------------------------------------------------------------
 Molecular Point Group                 C1    NOp =  1
 Largest Abelian Subgroup              C1    NOp =  1
 Nuclear Repulsion Energy =   308.4378886795 hartrees
 There are       27 alpha and       27 beta electrons
 Applying Cartesian multipole field
    Component          Value
    ---------          -----
     (2,0,0)        1.00000E-11
     (0,2,0)        2.00000E-11
     (0,0,2)       -3.00000E-11
 Nucleus-field energy     =     0.0000000022 hartrees
 Requested basis set is 6-311++G(d)
 There are 43 shells and 140 basis functions
 A cutoff of  1.0D-12 yielded    884 shell pairs
 There are      9639 function pairs (     10483 Cartesian)
 Smallest overlap matrix eigenvalue = 3.67E-04
 Guess MOs from SCF MO coefficient file
 Reading MOs from coefficient file
 Reading MOs from coefficient file

 -----------------------------------------------------------------------
  General SCF calculation program by
  Eric Jon Sundstrom, Paul Horn, Yuezhi Mao, Dmitri Zuev, Alec White,
  David Stuck, Shaama M.S., Shane Yost, Joonho Lee, David Small,
  Daniel Levine, Susi Lehtola, Hugh Burton, Evgeny Epifanovsky
 -----------------------------------------------------------------------
 Exchange:     0.2220 Hartree-Fock + 1.0000 wB97X-D + LR-HF
 Correlation:  1.0000 wB97X-D
 Using SG-2 standard quadrature grid
 Dispersion:   Grimme D
 using 24 threads for integral computing
 -------------------------------------------------------
 OpenMP Integral computing Module                
 Release: version 1.0, May 2013, Q-Chem Inc. Pittsburgh 
 -------------------------------------------------------
 using 24 threads for integral computing
 -------------------------------------------------------
 OpenMP Integral computing Module                
 Release: version 1.0, May 2013, Q-Chem Inc. Pittsburgh 
 -------------------------------------------------------
 -------------------------------------------------------
 OpenMP BLAS3 based DFT computing Module                
 Release: version 1.0, May 2013, Q-Chem Inc. Pittsburgh 
 -------------------------------------------------------
 A restricted SCF calculation will be
 performed using Roothaan-Hall, GDM
 SCF converges when RMS gradient is below 1.0e-08
 ---------------------------------------
  Cycle       Energy         DIIS error
 ---------------------------------------
    1    -740.8912070674      2.78e-03  Roothaan Step
 ---------------------------------------
  Cycle       Energy        RMS Gradient
 ---------------------------------------
    1    -740.9217808940      1.13e-02   Normal BFGS step
    2    -740.9233757020      1.36e-02   Normal BFGS step
    3    -740.9245731352      7.22e-03   Normal BFGS step
    4    -740.9248387515      5.76e-03   Normal BFGS step
    5    -740.9249907998      4.39e-03   Normal BFGS step
    6    -740.9250822935      2.41e-03   Normal BFGS step
    7    -740.9251087370      1.82e-03   Normal BFGS step
    8    -740.9251240391      8.42e-04   Normal BFGS step
    9    -740.9251263298      4.23e-04   Normal BFGS step
   10    -740.9251278235      3.04e-04   Normal BFGS step
   11    -740.9251283937      2.78e-04   Normal BFGS step
   12    -740.9251287313      2.06e-04   Normal BFGS step
   13    -740.9251289817      1.42e-04   Normal BFGS step
   14    -740.9251291825      9.82e-05   Normal BFGS step
   15    -740.9251292487      4.83e-05   Normal BFGS step
   16    -740.9251292600      1.69e-05   Normal BFGS step
   17    -740.9251292619      9.16e-06   Normal BFGS step
   18    -740.9251292623      3.22e-06   Normal BFGS step
   19    -740.9251292624      1.12e-06   Normal BFGS step
   20    -740.9251292624      5.00e-07   Normal BFGS step
   21    -740.9251292624      1.44e-07   Normal BFGS step
   22    -740.9251292624      4.34e-08   Normal BFGS step
   23    -740.9251292624      6.07e-08   Normal BFGS step
   24    -740.9251292624      6.32e-09  Convergence criterion met
 ---------------------------------------
 SCF time:   CPU 324.31s  wall 16.00s 
 SCF   energy in the final basis set =     -740.9251292624
 
 --------------------------------------------------------------
 
                    Orbital Energies (a.u.)
 --------------------------------------------------------------
 
 Alpha MOs
 -- Occupied --
-89.273 -24.949 -19.339 -19.326 -14.572 -10.508  -8.298  -6.247
 -6.245  -6.243  -1.471  -1.304  -1.193  -1.031  -0.878  -0.764
 -0.682  -0.674  -0.654  -0.620  -0.590  -0.527  -0.502  -0.482
 -0.478  -0.420  -0.393
 -- Virtual --
 -0.176  -0.102   0.046   0.076   0.087   0.094   0.098   0.114
  0.124   0.127   0.134   0.172   0.183   0.191   0.199   0.220
  0.228   0.244   0.280   0.284   0.291   0.296   0.314   0.323
  0.344   0.349   0.352   0.372   0.384   0.398   0.414   0.432
  0.437   0.496   0.584   0.609   0.643   0.695   0.744   0.827
  0.842   0.883   0.905   0.911   0.955   1.039   1.083   1.131
  1.138   1.146   1.188   1.203   1.207   1.255   1.267   1.306
  1.322   1.370   1.467   1.508   1.581   1.617   1.663   1.792
  1.832   1.870   1.916   1.970   2.005   2.022   2.206   2.228
  2.628   2.702   2.783   2.826   2.832   2.857   2.888   2.912
  3.004   3.024   3.058   3.153   3.492   3.604   3.751   3.764
  3.873   3.884   3.995   4.017   4.107   4.669   5.019   5.032
  5.036   5.097   5.165   5.323   6.275   6.336   6.549   8.172
 17.394  17.424  17.517  23.521  35.351  49.903  49.937  66.775
189.389
 --------------------------------------------------------------
 
          Ground-State Mulliken Net Atomic Charges

     Atom                 Charge (a.u.)
  ----------------------------------------
      1 S                     0.330341
      2 O                    -0.173575
      3 O                    -0.131099
      4 C                    -0.038105
      5 F                     0.113335
      6 N                    -0.100897
  ----------------------------------------
  Sum of atomic charges =    -0.000000

 -----------------------------------------------------------------
                    Cartesian Multipole Moments
 -----------------------------------------------------------------
    Charge (ESU x 10^10)
                 0.0000
    Dipole Moment (Debye)
         X       1.8332      Y       0.2351      Z       0.5724
       Tot       1.9348
    Quadrupole Moments (Debye-Ang)
        XX     -40.7638     XY      -0.0332     YY     -43.2835
        XZ      -0.6821     YZ      -1.1937     ZZ     -42.4191
    Octopole Moments (Debye-Ang^2)
       XXX      14.2331    XXY      -3.1290    XYY       4.4004
       YYY       1.3395    XXZ      -4.7178    XYZ      -1.0033
       YYZ      -3.3082    XZZ       2.9803    YZZ      -8.0200
       ZZZ      -8.0531
    Hexadecapole Moments (Debye-Ang^3)
      XXXX    -343.4790   XXXY      -1.3453   XXYY     -80.2586
      XYYY      -5.9402   YYYY    -157.4948   XXXZ      -1.3136
      XXYZ      -5.6041   XYYZ      -2.8233   YYYZ      -3.3320
      XXZZ     -82.1350   XYZZ      -0.1205   YYZZ     -52.6893
      XZZZ      -9.0695   YZZZ      -6.7022   ZZZZ    -144.6989
 -----------------------------------------------------------------
 Calculating analytic gradient of the SCF energy
 Gradient of SCF Energy
            1           2           3           4           5           6
    1   0.0119189   0.0008839  -0.0061346  -0.0160620   0.0068060   0.0025877
    2   0.0151545  -0.0122721  -0.0009180   0.0078528  -0.0066331  -0.0031840
    3  -0.0026109   0.0010642  -0.0058134   0.0127126  -0.0102187   0.0048662
 Max gradient component =       1.606E-02
 RMS gradient           =       8.563E-03
 Gradient time:  CPU 26.80 s  wall 1.45 s
 Geometry Optimization Parameters
   NAtoms,    NIC,     NZ,  NCons,   NDum,   NFix, NCnnct, MaxDiis
        6      27       0       0       0       0       0       0

 Cartesian Hessian Update
 Hessian Updated using BFGS Update


** GEOMETRY OPTIMIZATION IN DELOCALIZED INTERNAL COORDINATES **
   Searching for a Minimum

   Optimization Cycle:   2

                       Coordinates (Angstroms)
     ATOM                X               Y               Z
      1  S        -0.3977823082   -0.0495004790   -0.0145385079
      2  O        -0.5947115780    0.7356039632   -1.2244193180
      3  O        -0.4586659211   -1.4981004028   -0.0489288202
      4  C         1.2176834682    0.5096956801    0.7696480572
      5  F         2.1174446953    0.0257404906   -0.0326359260
      6  N        -1.5756588884    0.5127023284    0.8864197035
   Point Group: c1    Number of degrees of freedom:    12


   Energy is   -740.925129262

 Hessian Updated using BFGS Update

 10 Hessian modes will be used to form the next step
  Hessian Eigenvalues:
     0.002001    0.145541    0.173183    0.208651    0.228601    0.370398
     0.523112    0.540357    0.960723    0.962740

 Minimum Search - Taking Simple RFO Step
 Searching for Lamda that Minimizes Along All modes
 Value Taken    Lamda =  -0.00372283
 Step Taken.  Stepsize is  0.140139

                             Maximum     Tolerance    Cnvgd?
         Gradient           0.014944      0.000300      NO
         Displacement       0.069500      0.001200      NO
         Energy change     -0.013063      0.000001      NO


 New Cartesian Coordinates Obtained by Inverse Iteration

 Displacement from previous Coordinates is:  0.199432
 ----------------------------------------------------------------
             Standard Nuclear Orientation (Angstroms)
    I     Atom           X                Y                Z
 ----------------------------------------------------------------
    1      S      -0.4030507797    -0.0635010432    -0.0096910034
    2      O      -0.6027847716     0.7765644232    -1.1882513968
    3      O      -0.4479681237    -1.5124879982    -0.0105149869
    4      C       1.2442767775     0.4870062455     0.7571423605
    5      F       2.1314535309     0.0334530484    -0.0470960838
    6      N      -1.6136171657     0.5151069047     0.8339562990
 ----------------------------------------------------------------
 Molecular Point Group                 C1    NOp =  1
 Largest Abelian Subgroup              C1    NOp =  1
 Nuclear Repulsion Energy =   307.8964555370 hartrees
 There are       27 alpha and       27 beta electrons
 Applying Cartesian multipole field
    Component          Value
    ---------          -----
     (2,0,0)        1.00000E-11
     (0,2,0)        2.00000E-11
     (0,0,2)       -3.00000E-11
 Nucleus-field energy     =     0.0000000025 hartrees
 Requested basis set is 6-311++G(d)
 There are 43 shells and 140 basis functions
 A cutoff of  1.0D-12 yielded    883 shell pairs
 There are      9635 function pairs (     10479 Cartesian)
 Smallest overlap matrix eigenvalue = 3.64E-04
 Guess MOs from SCF MO coefficient file
 Reading MOs from coefficient file
 Reading MOs from coefficient file

 -----------------------------------------------------------------------
  General SCF calculation program by
  Eric Jon Sundstrom, Paul Horn, Yuezhi Mao, Dmitri Zuev, Alec White,
  David Stuck, Shaama M.S., Shane Yost, Joonho Lee, David Small,
  Daniel Levine, Susi Lehtola, Hugh Burton, Evgeny Epifanovsky
 -----------------------------------------------------------------------
 Exchange:     0.2220 Hartree-Fock + 1.0000 wB97X-D + LR-HF
 Correlation:  1.0000 wB97X-D
 Using SG-2 standard quadrature grid
 Dispersion:   Grimme D
 using 24 threads for integral computing
 -------------------------------------------------------
 OpenMP Integral computing Module                
 Release: version 1.0, May 2013, Q-Chem Inc. Pittsburgh 
 -------------------------------------------------------
 using 24 threads for integral computing
 -------------------------------------------------------
 OpenMP Integral computing Module                
 Release: version 1.0, May 2013, Q-Chem Inc. Pittsburgh 
 -------------------------------------------------------
 -------------------------------------------------------
 OpenMP BLAS3 based DFT computing Module                
 Release: version 1.0, May 2013, Q-Chem Inc. Pittsburgh 
 -------------------------------------------------------
 A restricted SCF calculation will be
 performed using Roothaan-Hall, GDM
 SCF converges when RMS gradient is below 1.0e-08
 ---------------------------------------
  Cycle       Energy         DIIS error
 ---------------------------------------
    1    -740.9226176144      1.01e-03  Roothaan Step
 ---------------------------------------
  Cycle       Energy        RMS Gradient
 ---------------------------------------
    1    -740.9268869830      9.17e-03   Normal BFGS step
    2    -740.9265028192      2.06e-02  Line search: overstep
    3    -740.9274275182      7.64e-03   Normal BFGS step
    4    -740.9277429115      3.75e-03   Normal BFGS step
    5    -740.9278021885      2.16e-03   Normal BFGS step
    6    -740.9278358087      1.54e-03   Normal BFGS step
    7    -740.9278520589      1.15e-03   Normal BFGS step
    8    -740.9278616534      9.09e-04   Normal BFGS step
    9    -740.9278667361      5.29e-04   Normal BFGS step
   10    -740.9278696670      3.89e-04   Normal BFGS step
   11    -740.9278705834      3.47e-04   Normal BFGS step
   12    -740.9278710364      2.65e-04   Normal BFGS step
   13    -740.9278713487      1.26e-04   Normal BFGS step
   14    -740.9278714687      5.47e-05   Normal BFGS step
   15    -740.9278714942      1.49e-05   Normal BFGS step
   16    -740.9278714976      7.66e-06   Normal BFGS step
   17    -740.9278714979      4.09e-06   Normal BFGS step
   18    -740.9278714980      1.69e-06   Normal BFGS step
   19    -740.9278714980      5.93e-07   Normal BFGS step
   20    -740.9278714980      1.47e-07   Normal BFGS step
   21    -740.9278714980      7.41e-08   Normal BFGS step
   22    -740.9278714980      2.00e-08   Normal BFGS step
   23    -740.9278714980      1.28e-08   Normal BFGS step
   24    -740.9278714980      9.25e-09  Convergence criterion met
 ---------------------------------------
 SCF time:   CPU 324.44s  wall 15.00s 
 SCF   energy in the final basis set =     -740.9278714980
 
 --------------------------------------------------------------
 
                    Orbital Energies (a.u.)
 --------------------------------------------------------------
 
 Alpha MOs
 -- Occupied --
-89.271 -24.955 -19.340 -19.322 -14.571 -10.507  -8.296  -6.245
 -6.244  -6.241  -1.483  -1.302  -1.194  -1.025  -0.877  -0.769
 -0.684  -0.682  -0.658  -0.619  -0.588  -0.525  -0.504  -0.483
 -0.476  -0.418  -0.388
 -- Virtual --
 -0.168  -0.097   0.044   0.075   0.085   0.093   0.098   0.106
  0.124   0.128   0.132   0.172   0.183   0.194   0.199   0.222
  0.229   0.245   0.283   0.289   0.291   0.294   0.313   0.326
  0.341   0.349   0.354   0.373   0.385   0.402   0.416   0.430
  0.438   0.491   0.586   0.607   0.654   0.698   0.747   0.826
  0.837   0.884   0.911   0.916   0.956   1.031   1.091   1.129
  1.140   1.148   1.175   1.200   1.204   1.257   1.271   1.308
  1.315   1.365   1.466   1.504   1.577   1.609   1.648   1.785
  1.840   1.881   1.904   1.980   2.008   2.031   2.204   2.242
  2.625   2.703   2.777   2.831   2.833   2.862   2.887   2.919
  3.007   3.030   3.058   3.141   3.499   3.592   3.745   3.757
  3.873   3.887   4.009   4.029   4.111   4.670   5.020   5.036
  5.040   5.101   5.166   5.318   6.269   6.327   6.563   8.174
 17.380  17.426  17.530  23.543  35.352  49.901  49.937  66.770
189.387
 --------------------------------------------------------------
 
          Ground-State Mulliken Net Atomic Charges

     Atom                 Charge (a.u.)
  ----------------------------------------
      1 S                     0.360831
      2 O                    -0.189280
      3 O                    -0.135469
      4 C                    -0.052012
      5 F                     0.129541
      6 N                    -0.113613
  ----------------------------------------
  Sum of atomic charges =    -0.000000

 -----------------------------------------------------------------
                    Cartesian Multipole Moments
 -----------------------------------------------------------------
    Charge (ESU x 10^10)
                 0.0000
    Dipole Moment (Debye)
         X       1.9751      Y       0.1674      Z       0.4723
       Tot       2.0377
    Quadrupole Moments (Debye-Ang)
        XX     -40.4994     XY       0.1098     YY     -43.6656
        XZ      -0.8588     YZ      -1.1019     ZZ     -42.1297
    Octopole Moments (Debye-Ang^2)
       XXX      15.4211    XXY      -3.3508    XYY       4.9142
       YYY       1.7187    XXZ      -4.6876    XYZ      -1.0427
       YYZ      -3.3958    XZZ       2.5753    YZZ      -7.6970
       ZZZ      -8.0792
    Hexadecapole Moments (Debye-Ang^3)
      XXXX    -349.7463   XXXY      -0.0648   XXYY     -82.4701
      XYYY      -4.6552   YYYY    -161.6025   XXXZ      -1.9764
      XXYZ      -5.1579   XYYZ      -2.5302   YYYZ      -1.2583
      XXZZ     -82.0356   XYZZ       0.1043   YYZZ     -52.0016
      XZZZ     -10.0303   YZZZ      -4.2724   ZZZZ    -137.2888
 -----------------------------------------------------------------
 Calculating analytic gradient of the SCF energy
 Gradient of SCF Energy
            1           2           3           4           5           6
    1   0.0066812   0.0037613  -0.0057906  -0.0035238   0.0005295  -0.0016576
    2   0.0146330  -0.0079262  -0.0013822   0.0014576  -0.0010569  -0.0057253
    3  -0.0114367   0.0034784   0.0009994   0.0014907  -0.0008561   0.0063243
 Max gradient component =       1.463E-02
 RMS gradient           =       5.819E-03
 Gradient time:  CPU 26.78 s  wall 1.40 s
 Geometry Optimization Parameters
   NAtoms,    NIC,     NZ,  NCons,   NDum,   NFix, NCnnct, MaxDiis
        6      27       0       0       0       0       0       0

 Cartesian Hessian Update
 Hessian Updated using BFGS Update


** GEOMETRY OPTIMIZATION IN DELOCALIZED INTERNAL COORDINATES **
   Searching for a Minimum

   Optimization Cycle:   3

                       Coordinates (Angstroms)
     ATOM                X               Y               Z
      1  S        -0.4030507797   -0.0635010432   -0.0096910034
      2  O        -0.6027847716    0.7765644232   -1.1882513968
      3  O        -0.4479681237   -1.5124879982   -0.0105149869
      4  C         1.2442767775    0.4870062455    0.7571423605
      5  F         2.1314535309    0.0334530484   -0.0470960838
      6  N        -1.6136171657    0.5151069047    0.8339562990
   Point Group: c1    Number of degrees of freedom:    12


   Energy is   -740.927871498

 Hessian Updated using BFGS Update

 11 Hessian modes will be used to form the next step
  Hessian Eigenvalues:
     0.001969    0.058989    0.184046    0.213389    0.233479    0.278744
     0.370263    0.522787    0.589702    0.954174    0.962481

 Minimum Search - Taking Simple RFO Step
 Searching for Lamda that Minimizes Along All modes
 Value Taken    Lamda =  -0.00453523
 Step Taken.  Stepsize is  0.291140

                             Maximum     Tolerance    Cnvgd?
         Gradient           0.011975      0.000300      NO
         Displacement       0.201626      0.001200      NO
         Energy change     -0.002742      0.000001      NO


 New Cartesian Coordinates Obtained by Inverse Iteration

 Displacement from previous Coordinates is:  0.378043
 ----------------------------------------------------------------
             Standard Nuclear Orientation (Angstroms)
    I     Atom           X                Y                Z
 ----------------------------------------------------------------
    1      S      -0.4100359229    -0.1002078763     0.0186851895
    2      O      -0.6325563968     0.8269640059    -1.1055535494
    3      O      -0.4079163465    -1.5479092678     0.0292107944
    4      C       1.2823970330     0.4380419660     0.7579933481
    5      F       2.1354121000     0.0566116479    -0.0848665077
    6      N      -1.6589909990     0.5626411047     0.7200759137
 ----------------------------------------------------------------
 Molecular Point Group                 C1    NOp =  1
 Largest Abelian Subgroup              C1    NOp =  1
 Nuclear Repulsion Energy =   307.7556720111 hartrees
 There are       27 alpha and       27 beta electrons
 Applying Cartesian multipole field
    Component          Value
    ---------          -----
     (2,0,0)        1.00000E-11
     (0,2,0)        2.00000E-11
     (0,0,2)       -3.00000E-11
 Nucleus-field energy     =     0.0000000030 hartrees
 Requested basis set is 6-311++G(d)
 There are 43 shells and 140 basis functions
 A cutoff of  1.0D-12 yielded    885 shell pairs
 There are      9640 function pairs (     10484 Cartesian)
 Smallest overlap matrix eigenvalue = 3.60E-04
 Guess MOs from SCF MO coefficient file
 Reading MOs from coefficient file
 Reading MOs from coefficient file

 -----------------------------------------------------------------------
  General SCF calculation program by
  Eric Jon Sundstrom, Paul Horn, Yuezhi Mao, Dmitri Zuev, Alec White,
  David Stuck, Shaama M.S., Shane Yost, Joonho Lee, David Small,
  Daniel Levine, Susi Lehtola, Hugh Burton, Evgeny Epifanovsky
 -----------------------------------------------------------------------
 Exchange:     0.2220 Hartree-Fock + 1.0000 wB97X-D + LR-HF
 Correlation:  1.0000 wB97X-D
 Using SG-2 standard quadrature grid
 Dispersion:   Grimme D
 using 24 threads for integral computing
 -------------------------------------------------------
 OpenMP Integral computing Module                
 Release: version 1.0, May 2013, Q-Chem Inc. Pittsburgh 
 -------------------------------------------------------
 using 24 threads for integral computing
 -------------------------------------------------------
 OpenMP Integral computing Module                
 Release: version 1.0, May 2013, Q-Chem Inc. Pittsburgh 
 -------------------------------------------------------
 -------------------------------------------------------
 OpenMP BLAS3 based DFT computing Module                
 Release: version 1.0, May 2013, Q-Chem Inc. Pittsburgh 
 -------------------------------------------------------
 A restricted SCF calculation will be
 performed using Roothaan-Hall, GDM
 SCF converges when RMS gradient is below 1.0e-08
 ---------------------------------------
  Cycle       Energy         DIIS error
 ---------------------------------------
    1    -740.9077066091      2.00e-03  Roothaan Step
 ---------------------------------------
  Cycle       Energy        RMS Gradient
 ---------------------------------------
    1    -740.9252471613      3.19e-02   Normal BFGS step
    2    -740.9197852442      5.99e-02  Line search: overstep
    3    -740.9292278776      1.83e-02   Normal BFGS step
    4    -740.9312660567      1.16e-02   Normal BFGS step
    5    -740.9318290713      7.60e-03   Normal BFGS step
    6    -740.9320108012      6.11e-03   Normal BFGS step
    7    -740.9321524133      3.14e-03   Normal BFGS step
    8    -740.9321971794      2.09e-03   Normal BFGS step
    9    -740.9322176126      1.09e-03   Normal BFGS step
   10    -740.9322276914      6.58e-04   Normal BFGS step
   11    -740.9322307392      4.87e-04   Normal BFGS step
   12    -740.9322315290      2.93e-04   Normal BFGS step
   13    -740.9322318866      1.16e-04   Normal BFGS step
   14    -740.9322319977      5.52e-05   Normal BFGS step
   15    -740.9322320146      1.12e-05   Normal BFGS step
   16    -740.9322320165      5.66e-06   Normal BFGS step
   17    -740.9322320169      2.97e-06   Normal BFGS step
   18    -740.9322320169      9.13e-07   Normal BFGS step
   19    -740.9322320170      3.48e-07   Normal BFGS step
   20    -740.9322320170      1.80e-07   Normal BFGS step
   21    -740.9322320170      9.64e-08   Normal BFGS step
   22    -740.9322320170      6.25e-08   Normal BFGS step
   23    -740.9322320170      1.14e-08   Normal BFGS step
   24    -740.9322320170      5.82e-09  Convergence criterion met
 ---------------------------------------
 SCF time:   CPU 322.84s  wall 14.00s 
 SCF   energy in the final basis set =     -740.9322320170
 
 --------------------------------------------------------------
 
                    Orbital Energies (a.u.)
 --------------------------------------------------------------
 
 Alpha MOs
 -- Occupied --
-89.268 -24.963 -19.348 -19.316 -14.562 -10.507  -8.293  -6.242
 -6.240  -6.238  -1.499  -1.301  -1.196  -1.012  -0.878  -0.775
 -0.693  -0.689  -0.662  -0.619  -0.580  -0.525  -0.511  -0.485
 -0.470  -0.411  -0.383
 -- Virtual --
 -0.145  -0.091   0.039   0.066   0.082   0.090   0.096   0.100
  0.122   0.128   0.131   0.163   0.184   0.200   0.207   0.219
  0.235   0.248   0.283   0.288   0.293   0.297   0.313   0.330
  0.338   0.346   0.357   0.374   0.389   0.412   0.420   0.429
  0.444   0.483   0.586   0.605   0.672   0.703   0.751   0.823
  0.842   0.891   0.914   0.939   0.965   1.018   1.100   1.111
  1.137   1.139   1.170   1.195   1.206   1.259   1.270   1.306
  1.309   1.369   1.464   1.497   1.566   1.597   1.623   1.767
  1.849   1.888   1.917   1.991   2.017   2.075   2.212   2.261
  2.624   2.705   2.770   2.829   2.846   2.879   2.895   2.928
  3.009   3.039   3.053   3.127   3.498   3.582   3.737   3.749
  3.875   3.889   4.026   4.047   4.114   4.667   5.017   5.041
  5.053   5.109   5.172   5.307   6.262   6.317   6.581   8.181
 17.354  17.427  17.557  23.570  35.365  49.897  49.935  66.762
189.387
 --------------------------------------------------------------
 
          Ground-State Mulliken Net Atomic Charges

     Atom                 Charge (a.u.)
  ----------------------------------------
      1 S                     0.425339
      2 O                    -0.209894
      3 O                    -0.136729
      4 C                    -0.063781
      5 F                     0.150351
      6 N                    -0.165286
  ----------------------------------------
  Sum of atomic charges =     0.000000

 -----------------------------------------------------------------
                    Cartesian Multipole Moments
 -----------------------------------------------------------------
    Charge (ESU x 10^10)
                 0.0000
    Dipole Moment (Debye)
         X       2.2344      Y       0.0717      Z       0.3303
       Tot       2.2598
    Quadrupole Moments (Debye-Ang)
        XX     -40.3142     XY       0.6230     YY     -44.3015
        XZ      -1.2120     YZ      -1.0075     ZZ     -41.3845
    Octopole Moments (Debye-Ang^2)
       XXX      17.0834    XXY      -3.8953    XYY       6.0576
       YYY       2.7332    XXZ      -4.5835    XYZ      -1.0570
       YYZ      -3.6490    XZZ       1.4862    YZZ      -6.6149
       ZZZ      -8.7469
    Hexadecapole Moments (Debye-Ang^3)
      XXXX    -356.7216   XXXY       4.2283   XXYY     -86.0619
      XYYY      -0.2779   YYYY    -170.6346   XXXZ      -4.8240
      XXYZ      -4.4963   XYYZ      -2.1143   YYYZ       0.5893
      XXZZ     -80.5756   XYZZ       0.5857   YYZZ     -50.5426
      XZZZ     -13.1870   YZZZ      -1.6311   ZZZZ    -123.3105
 -----------------------------------------------------------------
 Calculating analytic gradient of the SCF energy
 Gradient of SCF Energy
            1           2           3           4           5           6
    1  -0.0033066   0.0112656  -0.0036581   0.0129370  -0.0100286  -0.0072093
    2   0.0188127  -0.0070007  -0.0032603  -0.0049671   0.0047948  -0.0083794
    3  -0.0278424   0.0090531   0.0085669  -0.0134181   0.0124615   0.0111790
 Max gradient component =       2.784E-02
 RMS gradient           =       1.153E-02
 Gradient time:  CPU 26.71 s  wall 1.44 s
 Geometry Optimization Parameters
   NAtoms,    NIC,     NZ,  NCons,   NDum,   NFix, NCnnct, MaxDiis
        6      27       0       0       0       0       0       0

 Cartesian Hessian Update
 Hessian Updated using BFGS Update


** GEOMETRY OPTIMIZATION IN DELOCALIZED INTERNAL COORDINATES **
   Searching for a Minimum

   Optimization Cycle:   4

                       Coordinates (Angstroms)
     ATOM                X               Y               Z
      1  S        -0.4100359229   -0.1002078763    0.0186851895
      2  O        -0.6325563968    0.8269640059   -1.1055535494
      3  O        -0.4079163465   -1.5479092678    0.0292107944
      4  C         1.2823970330    0.4380419660    0.7579933481
      5  F         2.1354121000    0.0566116479   -0.0848665077
      6  N        -1.6589909990    0.5626411047    0.7200759137
   Point Group: c1    Number of degrees of freedom:    12


   Energy is   -740.932232017

 Hessian Updated using BFGS Update

 12 Hessian modes will be used to form the next step
  Hessian Eigenvalues:
     0.001116    0.004270    0.180706    0.213933    0.235609    0.260161
     0.271944    0.450925    0.522444    0.893853    0.962321    1.985035

 Minimum Search - Taking Simple RFO Step
 Searching for Lamda that Minimizes Along All modes
 Value Taken    Lamda =  -0.01570500
 Calculated Step too Large.  Step scaled by  0.334992
 Step Taken.  Stepsize is  0.300000

                             Maximum     Tolerance    Cnvgd?
         Gradient           0.018918      0.000300      NO
         Displacement       0.227117      0.001200      NO
         Energy change     -0.004361      0.000001      NO


 New Cartesian Coordinates Obtained by Inverse Iteration

 Displacement from previous Coordinates is:  0.421068
 ----------------------------------------------------------------
             Standard Nuclear Orientation (Angstroms)
    I     Atom           X                Y                Z
 ----------------------------------------------------------------
    1      S      -0.4181214788    -0.1316543685     0.0533558178
    2      O      -0.6951538058     0.8823612840    -1.0038469766
    3      O      -0.3465959454    -1.5748528289     0.0601822603
    4      C       1.3217866535     0.4103829078     0.7457401613
    5      F       2.1428399623     0.0429081668    -0.1053697319
    6      N      -1.6964459181     0.6069964192     0.5854836577
 ----------------------------------------------------------------
 Molecular Point Group                 C1    NOp =  1
 Largest Abelian Subgroup              C1    NOp =  1
 Nuclear Repulsion Energy =   308.0694650881 hartrees
 There are       27 alpha and       27 beta electrons
 Applying Cartesian multipole field
    Component          Value
    ---------          -----
     (2,0,0)        1.00000E-11
     (0,2,0)        2.00000E-11
     (0,0,2)       -3.00000E-11
 Nucleus-field energy     =     0.0000000035 hartrees
 Requested basis set is 6-311++G(d)
 There are 43 shells and 140 basis functions
 A cutoff of  1.0D-12 yielded    886 shell pairs
 There are      9660 function pairs (     10508 Cartesian)
 Smallest overlap matrix eigenvalue = 3.68E-04
 Guess MOs from SCF MO coefficient file
 Reading MOs from coefficient file
 Reading MOs from coefficient file

 -----------------------------------------------------------------------
  General SCF calculation program by
  Eric Jon Sundstrom, Paul Horn, Yuezhi Mao, Dmitri Zuev, Alec White,
  David Stuck, Shaama M.S., Shane Yost, Joonho Lee, David Small,
  Daniel Levine, Susi Lehtola, Hugh Burton, Evgeny Epifanovsky
 -----------------------------------------------------------------------
 Exchange:     0.2220 Hartree-Fock + 1.0000 wB97X-D + LR-HF
 Correlation:  1.0000 wB97X-D
 Using SG-2 standard quadrature grid
 Dispersion:   Grimme D
 using 24 threads for integral computing
 -------------------------------------------------------
 OpenMP Integral computing Module                
 Release: version 1.0, May 2013, Q-Chem Inc. Pittsburgh 
 -------------------------------------------------------
 using 24 threads for integral computing
 -------------------------------------------------------
 OpenMP Integral computing Module                
 Release: version 1.0, May 2013, Q-Chem Inc. Pittsburgh 
 -------------------------------------------------------
 -------------------------------------------------------
 OpenMP BLAS3 based DFT computing Module                
 Release: version 1.0, May 2013, Q-Chem Inc. Pittsburgh 
 -------------------------------------------------------
 A restricted SCF calculation will be
 performed using Roothaan-Hall, GDM
 SCF converges when RMS gradient is below 1.0e-08
 ---------------------------------------
  Cycle       Energy         DIIS error
 ---------------------------------------
    1    -740.9073348521      2.24e-03  Roothaan Step
 ---------------------------------------
  Cycle       Energy        RMS Gradient
 ---------------------------------------
    1    -740.9298718382      2.81e-02   Normal BFGS step
    2    -740.9247470761      5.73e-02  Line search: overstep
    3    -740.9339236140      1.82e-02   Normal BFGS step
    4    -740.9359667006      9.24e-03   Normal BFGS step
    5    -740.9362207743      6.12e-03   Normal BFGS step
    6    -740.9363904751      2.46e-03   Normal BFGS step
    7    -740.9364286005      1.43e-03   Normal BFGS step
    8    -740.9364356871      9.21e-04   Normal BFGS step
    9    -740.9364396886      2.64e-04   Normal BFGS step
   10    -740.9364405683      1.81e-04   Normal BFGS step
   11    -740.9364408463      1.13e-04   Normal BFGS step
   12    -740.9364409023      5.25e-05   Normal BFGS step
   13    -740.9364409154      2.27e-05   Normal BFGS step
   14    -740.9364409192      1.08e-05   Normal BFGS step
   15    -740.9364409200      3.71e-06   Normal BFGS step
   16    -740.9364409201      2.47e-06   Normal BFGS step
   17    -740.9364409202      9.20e-07   Normal BFGS step
   18    -740.9364409202      2.75e-07   Normal BFGS step
   19    -740.9364409202      6.41e-08   Normal BFGS step
   20    -740.9364409202      2.81e-08   Normal BFGS step
   21    -740.9364409202      1.74e-08   Normal BFGS step
   22    -740.9364409202      1.31e-08   Normal BFGS step
   23    -740.9364409202      1.19e-09  Convergence criterion met
 ---------------------------------------
 SCF time:   CPU 310.67s  wall 14.00s 
 SCF   energy in the final basis set =     -740.9364409202
 
 --------------------------------------------------------------
 
                    Orbital Energies (a.u.)
 --------------------------------------------------------------
 
 Alpha MOs
 -- Occupied --
-89.262 -24.972 -19.353 -19.315 -14.544 -10.509  -8.288  -6.238
 -6.236  -6.233  -1.515  -1.306  -1.202  -0.989  -0.880  -0.782
 -0.705  -0.696  -0.665  -0.619  -0.567  -0.527  -0.522  -0.489
 -0.463  -0.396  -0.379
 -- Virtual --
 -0.100  -0.084   0.032   0.050   0.081   0.084   0.092   0.100
  0.119   0.127   0.129   0.153   0.185   0.203   0.213   0.222
  0.236   0.254   0.282   0.286   0.294   0.303   0.315   0.328
  0.340   0.343   0.358   0.374   0.396   0.413   0.422   0.434
  0.452   0.481   0.586   0.599   0.689   0.702   0.751   0.817
  0.864   0.898   0.917   0.946   0.973   1.021   1.103   1.121
  1.124   1.146   1.166   1.202   1.206   1.256   1.270   1.299
  1.313   1.378   1.460   1.487   1.552   1.584   1.607   1.750
  1.838   1.892   1.943   2.009   2.033   2.130   2.225   2.254
  2.639   2.706   2.764   2.830   2.849   2.879   2.936   2.941
  3.029   3.034   3.074   3.124   3.490   3.572   3.729   3.740
  3.887   3.903   4.040   4.064   4.120   4.662   5.017   5.040
  5.056   5.110   5.169   5.282   6.254   6.307   6.597   8.194
 17.326  17.426  17.589  23.595  35.395  49.906  49.932  66.754
189.393
 --------------------------------------------------------------
 
          Ground-State Mulliken Net Atomic Charges

     Atom                 Charge (a.u.)
  ----------------------------------------
      1 S                     0.484339
      2 O                    -0.198169
      3 O                    -0.140077
      4 C                    -0.074353
      5 F                     0.175297
      6 N                    -0.247037
  ----------------------------------------
  Sum of atomic charges =     0.000000

 -----------------------------------------------------------------
                    Cartesian Multipole Moments
 -----------------------------------------------------------------
    Charge (ESU x 10^10)
                 0.0000
    Dipole Moment (Debye)
         X       2.6051      Y      -0.0733      Z       0.1199
       Tot       2.6088
    Quadrupole Moments (Debye-Ang)
        XX     -40.2716     XY       1.1265     YY     -44.6564
        XZ      -1.3512     YZ      -0.9690     ZZ     -40.7510
    Octopole Moments (Debye-Ang^2)
       XXX      19.0456    XXY      -4.4278    XYY       6.5746
       YYY       3.3671    XXZ      -4.7026    XYZ      -1.2621
       YYZ      -3.8580    XZZ       1.1761    YZZ      -5.7055
       ZZZ      -9.7742
    Hexadecapole Moments (Debye-Ang^3)
      XXXX    -364.6806   XXXY       9.8619   XXYY     -89.4026
      XYYY       5.2884   YYYY    -179.1942   XXXZ      -8.5744
      XXYZ      -3.7380   XYYZ      -2.7280   YYYZ       2.3537
      XXZZ     -79.6610   XYZZ       1.6528   YYZZ     -48.7403
      XZZZ     -15.7571   YZZZ       0.5276   ZZZZ    -108.7802
 -----------------------------------------------------------------
 Calculating analytic gradient of the SCF energy
 Gradient of SCF Energy
            1           2           3           4           5           6
    1  -0.0117856   0.0151208   0.0016416   0.0269327  -0.0201952  -0.0117142
    2   0.0177348  -0.0109458  -0.0000310  -0.0127662   0.0108404  -0.0048322
    3  -0.0424944   0.0204387   0.0132831  -0.0283636   0.0264079   0.0107283
 Max gradient component =       4.249E-02
 RMS gradient           =       1.885E-02
 Gradient time:  CPU 27.03 s  wall 1.42 s
 Geometry Optimization Parameters
   NAtoms,    NIC,     NZ,  NCons,   NDum,   NFix, NCnnct, MaxDiis
        6      27       0       0       0       0       0       0

 Cartesian Hessian Update
 Hessian Updated using BFGS Update


** GEOMETRY OPTIMIZATION IN DELOCALIZED INTERNAL COORDINATES **
   Searching for a Minimum

   Optimization Cycle:   5

                       Coordinates (Angstroms)
     ATOM                X               Y               Z
      1  S        -0.4181214788   -0.1316543685    0.0533558178
      2  O        -0.6951538058    0.8823612840   -1.0038469766
      3  O        -0.3465959454   -1.5748528289    0.0601822603
      4  C         1.3217866535    0.4103829078    0.7457401613
      5  F         2.1428399623    0.0429081668   -0.1053697319
      6  N        -1.6964459181    0.6069964192    0.5854836577
   Point Group: c1    Number of degrees of freedom:    12


   Energy is   -740.936440920

 Hessian Updated using BFGS Update

 12 Hessian modes will be used to form the next step
  Hessian Eigenvalues:
     0.001594    0.028771    0.176294    0.213936    0.237480    0.259393
     0.266682    0.453377    0.521970    0.898962    0.974357    1.849399

 Minimum Search - Taking Simple RFO Step
 Searching for Lamda that Minimizes Along All modes
 Value Taken    Lamda =  -0.00514678
 Calculated Step too Large.  Step scaled by  0.955404
 Step Taken.  Stepsize is  0.300000

                             Maximum     Tolerance    Cnvgd?
         Gradient           0.031415      0.000300      NO
         Displacement       0.210455      0.001200      NO
         Energy change     -0.004209      0.000001      NO


 New Cartesian Coordinates Obtained by Inverse Iteration

 Displacement from previous Coordinates is:  0.424581
 ----------------------------------------------------------------
             Standard Nuclear Orientation (Angstroms)
    I     Atom           X                Y                Z
 ----------------------------------------------------------------
    1      S      -0.4306105723    -0.1529511086     0.1035649586
    2      O      -0.7684363263     0.9350810563    -0.9032778199
    3      O      -0.2782554762    -1.5888197400     0.0736460671
    4      C       1.3564615335     0.4140081197     0.7266281467
    5      F       2.1542021214    -0.0068917755    -0.1159870295
    6      N      -1.7250518124     0.6357150285     0.4509708655
 ----------------------------------------------------------------
 Molecular Point Group                 C1    NOp =  1
 Largest Abelian Subgroup              C1    NOp =  1
 Nuclear Repulsion Energy =   308.2271007575 hartrees
 There are       27 alpha and       27 beta electrons
 Applying Cartesian multipole field
    Component          Value
    ---------          -----
     (2,0,0)        1.00000E-11
     (0,2,0)        2.00000E-11
     (0,0,2)       -3.00000E-11
 Nucleus-field energy     =     0.0000000039 hartrees
 Requested basis set is 6-311++G(d)
 There are 43 shells and 140 basis functions
 A cutoff of  1.0D-12 yielded    881 shell pairs
 There are      9591 function pairs (     10435 Cartesian)
 Smallest overlap matrix eigenvalue = 3.97E-04
 Guess MOs from SCF MO coefficient file
 Reading MOs from coefficient file
 Reading MOs from coefficient file

 -----------------------------------------------------------------------
  General SCF calculation program by
  Eric Jon Sundstrom, Paul Horn, Yuezhi Mao, Dmitri Zuev, Alec White,
  David Stuck, Shaama M.S., Shane Yost, Joonho Lee, David Small,
  Daniel Levine, Susi Lehtola, Hugh Burton, Evgeny Epifanovsky
 -----------------------------------------------------------------------
 Exchange:     0.2220 Hartree-Fock + 1.0000 wB97X-D + LR-HF
 Correlation:  1.0000 wB97X-D
 Using SG-2 standard quadrature grid
 Dispersion:   Grimme D
 using 24 threads for integral computing
 -------------------------------------------------------
 OpenMP Integral computing Module                
 Release: version 1.0, May 2013, Q-Chem Inc. Pittsburgh 
 -------------------------------------------------------
 using 24 threads for integral computing
 -------------------------------------------------------
 OpenMP Integral computing Module                
 Release: version 1.0, May 2013, Q-Chem Inc. Pittsburgh 
 -------------------------------------------------------
 -------------------------------------------------------
 OpenMP BLAS3 based DFT computing Module                
 Release: version 1.0, May 2013, Q-Chem Inc. Pittsburgh 
 -------------------------------------------------------
 A restricted SCF calculation will be
 performed using Roothaan-Hall, GDM
 SCF converges when RMS gradient is below 1.0e-08
 ---------------------------------------
  Cycle       Energy         DIIS error
 ---------------------------------------
    1    -740.9035228002      2.66e-03  Roothaan Step
 ---------------------------------------
  Cycle       Energy        RMS Gradient
 ---------------------------------------
    1    -740.9327386395      2.13e-02   Normal BFGS step
    2    -740.9297613169      5.35e-02  Line search: overstep
    3    -740.9361015976      1.34e-02   Normal BFGS step
    4    -740.9376931688      4.72e-03   Normal BFGS step
    5    -740.9377965152      1.59e-03   Normal BFGS step
    6    -740.9378179134      1.33e-03   Normal BFGS step
    7    -740.9378303928      4.27e-04   Normal BFGS step
    8    -740.9378318948      2.04e-04   Normal BFGS step
    9    -740.9378324477      1.04e-04   Normal BFGS step
   10    -740.9378325133      6.38e-05   Normal BFGS step
   11    -740.9378325605      2.69e-05   Normal BFGS step
   12    -740.9378325665      1.23e-05   Normal BFGS step
   13    -740.9378325673      4.49e-06   Normal BFGS step
   14    -740.9378325675      2.11e-06   Normal BFGS step
   15    -740.9378325675      6.45e-07   Normal BFGS step
   16    -740.9378325675      3.91e-07   Normal BFGS step
   17    -740.9378325675      1.79e-07   Normal BFGS step
   18    -740.9378325675      6.71e-08   Normal BFGS step
   19    -740.9378325675      2.91e-08   Normal BFGS step
   20    -740.9378325675      3.63e-08   Normal BFGS step
   21    -740.9378325675      4.46e-09  Convergence criterion met
 ---------------------------------------
 SCF time:   CPU 285.31s  wall 14.00s 
 SCF   energy in the final basis set =     -740.9378325675
 
 --------------------------------------------------------------
 
                    Orbital Energies (a.u.)
 --------------------------------------------------------------
 
 Alpha MOs
 -- Occupied --
-89.256 -24.978 -19.353 -19.316 -14.524 -10.514  -8.284  -6.233
 -6.231  -6.229  -1.521  -1.314  -1.210  -0.959  -0.882  -0.788
 -0.710  -0.703  -0.665  -0.619  -0.561  -0.533  -0.527  -0.493
 -0.454  -0.387  -0.368
 -- Virtual --
 -0.090  -0.023   0.022   0.033   0.078   0.082   0.091   0.100
  0.116   0.126   0.128   0.147   0.185   0.203   0.208   0.222
  0.238   0.259   0.282   0.288   0.296   0.309   0.316   0.325
  0.337   0.346   0.360   0.375   0.403   0.405   0.425   0.433
  0.457   0.487   0.582   0.591   0.692   0.702   0.745   0.812
  0.878   0.899   0.916   0.943   0.967   1.010   1.104   1.119
  1.133   1.157   1.170   1.201   1.223   1.256   1.274   1.293
  1.315   1.388   1.457   1.482   1.558   1.598   1.607   1.730
  1.828   1.896   1.957   2.016   2.048   2.150   2.158   2.225
  2.687   2.704   2.758   2.849   2.866   2.879   2.906   2.939
  3.007   3.039   3.112   3.214   3.460   3.560   3.725   3.734
  3.916   3.975   4.040   4.065   4.169   4.654   5.022   5.034
  5.063   5.123   5.154   5.260   6.251   6.299   6.597   8.200
 17.300  17.423  17.612  23.593  35.422  49.920  49.936  66.748
189.395
 --------------------------------------------------------------
 
          Ground-State Mulliken Net Atomic Charges

     Atom                 Charge (a.u.)
  ----------------------------------------
      1 S                     0.514062
      2 O                    -0.157352
      3 O                    -0.147920
      4 C                    -0.073905
      5 F                     0.188784
      6 N                    -0.323670
  ----------------------------------------
  Sum of atomic charges =     0.000000

 -----------------------------------------------------------------
                    Cartesian Multipole Moments
 -----------------------------------------------------------------
    Charge (ESU x 10^10)
                 0.0000
    Dipole Moment (Debye)
         X       2.9101      Y      -0.2003      Z       0.0434
       Tot       2.9173
    Quadrupole Moments (Debye-Ang)
        XX     -40.4826     XY       1.4200     YY     -44.7666
        XZ      -1.1111     YZ      -1.1068     ZZ     -40.2711
    Octopole Moments (Debye-Ang^2)
       XXX      20.9029    XXY      -4.8812    XYY       6.3106
       YYY       3.5945    XXZ      -5.4505    XYZ      -1.3166
       YYZ      -4.1550    XZZ       1.6674    YZZ      -5.2783
       ZZZ     -10.6591
    Hexadecapole Moments (Debye-Ang^3)
      XXXX    -375.3636   XXXY      15.2369   XXYY     -92.1804
      XYYY      10.3588   YYYY    -185.7649   XXXZ     -10.3625
      XXYZ      -3.8853   XYYZ      -3.6458   YYYZ       3.5499
      XXZZ     -79.8278   XYZZ       3.2005   YYZZ     -47.4008
      XZZZ     -16.9283   YZZZ       1.6508   ZZZZ     -96.3033
 -----------------------------------------------------------------
 Calculating analytic gradient of the SCF energy
 Gradient of SCF Energy
            1           2           3           4           5           6
    1  -0.0217994   0.0067919   0.0078828   0.0272097  -0.0173274  -0.0027577
    2   0.0154881  -0.0150345   0.0038444  -0.0188440   0.0137351   0.0008109
    3  -0.0409464   0.0348021   0.0141341  -0.0301274   0.0270514  -0.0049136
 Max gradient component =       4.095E-02
 RMS gradient           =       2.029E-02
 Gradient time:  CPU 27.14 s  wall 1.69 s
 Geometry Optimization Parameters
   NAtoms,    NIC,     NZ,  NCons,   NDum,   NFix, NCnnct, MaxDiis
        6      27       0       0       0       0       0       0

 Cartesian Hessian Update
 Hessian Updated using BFGS Update


** GEOMETRY OPTIMIZATION IN DELOCALIZED INTERNAL COORDINATES **
   Searching for a Minimum

   Optimization Cycle:   6

                       Coordinates (Angstroms)
     ATOM                X               Y               Z
      1  S        -0.4306105723   -0.1529511086    0.1035649586
      2  O        -0.7684363263    0.9350810563   -0.9032778199
      3  O        -0.2782554762   -1.5888197400    0.0736460671
      4  C         1.3564615335    0.4140081197    0.7266281467
      5  F         2.1542021214   -0.0068917755   -0.1159870295
      6  N        -1.7250518124    0.6357150285    0.4509708655
   Point Group: c1    Number of degrees of freedom:    12


   Energy is   -740.937832568

 Hessian Updated using BFGS Update

 12 Hessian modes will be used to form the next step
  Hessian Eigenvalues:
     0.001612    0.081431    0.181015    0.214067    0.244529    0.257568
     0.281771    0.452802    0.524465    0.908430    0.971184    1.188134

 Minimum Search - Taking Simple RFO Step
 Searching for Lamda that Minimizes Along All modes
 Value Taken    Lamda =  -0.00590294
 Step Taken.  Stepsize is  0.125708

                             Maximum     Tolerance    Cnvgd?
         Gradient           0.031230      0.000300      NO
         Displacement       0.068526      0.001200      NO
         Energy change     -0.001392      0.000001      NO


 New Cartesian Coordinates Obtained by Inverse Iteration

 Displacement from previous Coordinates is:  0.181509
 ----------------------------------------------------------------
             Standard Nuclear Orientation (Angstroms)
    I     Atom           X                Y                Z
 ----------------------------------------------------------------
    1      S      -0.4337025101    -0.1493248761     0.1128487439
    2      O      -0.7342615402     0.9088375863    -0.9527954601
    3      O      -0.2854128343    -1.5860171798     0.0469634062
    4      C       1.3395014722     0.4291503727     0.7416946800
    5      F       2.1396419654    -0.0039466151    -0.1189381522
    6      N      -1.7174570852     0.6374422924     0.5057719708
 ----------------------------------------------------------------
 Molecular Point Group                 C1    NOp =  1
 Largest Abelian Subgroup              C1    NOp =  1
 Nuclear Repulsion Energy =   307.1319865288 hartrees
 There are       27 alpha and       27 beta electrons
 Applying Cartesian multipole field
    Component          Value
    ---------          -----
     (2,0,0)        1.00000E-11
     (0,2,0)        2.00000E-11
     (0,0,2)       -3.00000E-11
 Nucleus-field energy     =     0.0000000037 hartrees
 Requested basis set is 6-311++G(d)
 There are 43 shells and 140 basis functions
 A cutoff of  1.0D-12 yielded    883 shell pairs
 There are      9623 function pairs (     10467 Cartesian)
 Smallest overlap matrix eigenvalue = 3.96E-04
 Guess MOs from SCF MO coefficient file
 Reading MOs from coefficient file
 Reading MOs from coefficient file

 -----------------------------------------------------------------------
  General SCF calculation program by
  Eric Jon Sundstrom, Paul Horn, Yuezhi Mao, Dmitri Zuev, Alec White,
  David Stuck, Shaama M.S., Shane Yost, Joonho Lee, David Small,
  Daniel Levine, Susi Lehtola, Hugh Burton, Evgeny Epifanovsky
 -----------------------------------------------------------------------
 Exchange:     0.2220 Hartree-Fock + 1.0000 wB97X-D + LR-HF
 Correlation:  1.0000 wB97X-D
 Using SG-2 standard quadrature grid
 Dispersion:   Grimme D
 using 24 threads for integral computing
 -------------------------------------------------------
 OpenMP Integral computing Module                
 Release: version 1.0, May 2013, Q-Chem Inc. Pittsburgh 
 -------------------------------------------------------
 using 24 threads for integral computing
 -------------------------------------------------------
 OpenMP Integral computing Module                
 Release: version 1.0, May 2013, Q-Chem Inc. Pittsburgh 
 -------------------------------------------------------
 -------------------------------------------------------
 OpenMP BLAS3 based DFT computing Module                
 Release: version 1.0, May 2013, Q-Chem Inc. Pittsburgh 
 -------------------------------------------------------
 A restricted SCF calculation will be
 performed using Roothaan-Hall, GDM
 SCF converges when RMS gradient is below 1.0e-08
 ---------------------------------------
  Cycle       Energy         DIIS error
 ---------------------------------------
    1    -740.9354289810      1.19e-03  Roothaan Step
 ---------------------------------------
  Cycle       Energy        RMS Gradient
 ---------------------------------------
    1    -740.9408685631      7.69e-03   Normal BFGS step
    2    -740.9411708766      8.31e-03   Normal BFGS step
    3    -740.9413344514      4.49e-03   Normal BFGS step
    4    -740.9413851042      9.66e-04   Normal BFGS step
    5    -740.9413899267      7.49e-04   Normal BFGS step
    6    -740.9413961032      3.93e-04   Normal BFGS step
    7    -740.9413965709      2.27e-04   Normal BFGS step
    8    -740.9413970492      1.13e-04   Normal BFGS step
    9    -740.9413971171      2.99e-05   Normal BFGS step
   10    -740.9413971318      2.46e-05   Normal BFGS step
   11    -740.9413971356      7.64e-06   Normal BFGS step
   12    -740.9413971365      4.05e-06   Normal BFGS step
   13    -740.9413971366      1.40e-06   Normal BFGS step
   14    -740.9413971366      5.53e-07   Normal BFGS step
   15    -740.9413971366      2.46e-07   Normal BFGS step
   16    -740.9413971366      1.43e-07   Normal BFGS step
   17    -740.9413971366      7.44e-08   Normal BFGS step
   18    -740.9413971366      1.34e-08   Normal BFGS step
   19    -740.9413971366      7.27e-09  Convergence criterion met
 ---------------------------------------
 SCF time:   CPU 261.71s  wall 12.00s 
 SCF   energy in the final basis set =     -740.9413971366
 
 --------------------------------------------------------------
 
                    Orbital Energies (a.u.)
 --------------------------------------------------------------
 
 Alpha MOs
 -- Occupied --
-89.260 -24.971 -19.354 -19.317 -14.535 -10.514  -8.287  -6.237
 -6.234  -6.232  -1.507  -1.303  -1.204  -0.977  -0.878  -0.781
 -0.700  -0.694  -0.662  -0.619  -0.562  -0.529  -0.524  -0.491
 -0.461  -0.392  -0.377
 -- Virtual --
 -0.094  -0.058   0.025   0.037   0.080   0.083   0.092   0.100
  0.115   0.126   0.128   0.146   0.185   0.202   0.205   0.218
  0.236   0.258   0.282   0.286   0.296   0.303   0.315   0.326
  0.340   0.343   0.359   0.375   0.399   0.405   0.424   0.432
  0.454   0.483   0.581   0.590   0.692   0.697   0.743   0.812
  0.877   0.894   0.915   0.941   0.968   1.016   1.099   1.123
  1.131   1.154   1.168   1.193   1.218   1.254   1.273   1.298
  1.312   1.385   1.459   1.486   1.553   1.590   1.602   1.733
  1.838   1.892   1.955   2.009   2.039   2.144   2.198   2.224
  2.669   2.700   2.757   2.846   2.850   2.876   2.915   2.937
  3.012   3.034   3.100   3.151   3.444   3.563   3.732   3.741
  3.909   3.924   4.026   4.051   4.140   4.657   5.022   5.033
  5.056   5.111   5.139   5.270   6.258   6.309   6.580   8.182
 17.304  17.419  17.594  23.566  35.410  49.913  49.932  66.754
189.381
 --------------------------------------------------------------
 
          Ground-State Mulliken Net Atomic Charges

     Atom                 Charge (a.u.)
  ----------------------------------------
      1 S                     0.505150
      2 O                    -0.188738
      3 O                    -0.141302
      4 C                    -0.053223
      5 F                     0.166024
      6 N                    -0.287910
  ----------------------------------------
  Sum of atomic charges =     0.000000

 -----------------------------------------------------------------
                    Cartesian Multipole Moments
 -----------------------------------------------------------------
    Charge (ESU x 10^10)
                 0.0000
    Dipole Moment (Debye)
         X       2.6138      Y      -0.1949      Z       0.3386
       Tot       2.6428
    Quadrupole Moments (Debye-Ang)
        XX     -40.5932     XY       1.3358     YY     -44.8252
        XZ      -1.2503     YZ      -1.1469     ZZ     -40.3034
    Octopole Moments (Debye-Ang^2)
       XXX      19.3220    XXY      -4.8575    XYY       6.2285
       YYY       3.2255    XXZ      -5.0552    XYZ      -1.3538
       YYZ      -4.1913    XZZ       1.5580    YZZ      -5.3948
       ZZZ     -10.3542
    Hexadecapole Moments (Debye-Ang^3)
      XXXX    -371.5726   XXXY      13.6835   XXYY     -91.3592
      XYYY       9.1256   YYYY    -184.4524   XXXZ      -9.4889
      XXYZ      -4.0646   XYYZ      -3.3643   YYYZ       2.2618
      XXZZ     -79.6140   XYZZ       2.6318   YYZZ     -48.2557
      XZZZ     -15.9560   YZZZ       0.3527   ZZZZ    -101.5192
 -----------------------------------------------------------------
 Calculating analytic gradient of the SCF energy
 Gradient of SCF Energy
            1           2           3           4           5           6
    1  -0.0221567   0.0102901   0.0084402   0.0154552  -0.0059987  -0.0060301
    2   0.0090109  -0.0009793  -0.0012981  -0.0110366   0.0068874  -0.0025844
    3  -0.0205534   0.0082838   0.0096662  -0.0168282   0.0137873   0.0056444
 Max gradient component =       2.216E-02
 RMS gradient           =       1.137E-02
 Gradient time:  CPU 26.94 s  wall 1.39 s
 Geometry Optimization Parameters
   NAtoms,    NIC,     NZ,  NCons,   NDum,   NFix, NCnnct, MaxDiis
        6      27       0       0       0       0       0       0

 Cartesian Hessian Update
 Hessian Updated using BFGS Update


** GEOMETRY OPTIMIZATION IN DELOCALIZED INTERNAL COORDINATES **
   Searching for a Minimum

   Optimization Cycle:   7

                       Coordinates (Angstroms)
     ATOM                X               Y               Z
      1  S        -0.4337025101   -0.1493248761    0.1128487439
      2  O        -0.7342615402    0.9088375863   -0.9527954601
      3  O        -0.2854128343   -1.5860171798    0.0469634062
      4  C         1.3395014722    0.4291503727    0.7416946800
      5  F         2.1396419654   -0.0039466151   -0.1189381522
      6  N        -1.7174570852    0.6374422924    0.5057719708
   Point Group: c1    Number of degrees of freedom:    12


   Energy is   -740.941397137

 Hessian Updated using BFGS Update

 12 Hessian modes will be used to form the next step
  Hessian Eigenvalues:
     0.001613    0.087687    0.188134    0.216094    0.224969    0.263650
     0.268435    0.486715    0.536786    0.640328    0.950077    1.175328

 Minimum Search - Taking Simple RFO Step
 Searching for Lamda that Minimizes Along All modes
 Value Taken    Lamda =  -0.00368335
 Step Taken.  Stepsize is  0.112531

                             Maximum     Tolerance    Cnvgd?
         Gradient           0.029180      0.000300      NO
         Displacement       0.061494      0.001200      NO
         Energy change     -0.003565      0.000001      NO


 New Cartesian Coordinates Obtained by Inverse Iteration

 Displacement from previous Coordinates is:  0.141378
 ----------------------------------------------------------------
             Standard Nuclear Orientation (Angstroms)
    I     Atom           X                Y                Z
 ----------------------------------------------------------------
    1      S      -0.4219702630    -0.1643603603     0.1419525090
[...]
 Molecular Point Group                 C1    NOp =  1
 Largest Abelian Subgroup              C1    NOp =  1
 Nuclear Repulsion Energy =   294.9468469516 hartrees
 There are       27 alpha and       27 beta electrons
 Applying Cartesian multipole field
    Component          Value
    ---------          -----
     (2,0,0)        1.00000E-11
     (0,2,0)        2.00000E-11
     (0,0,2)       -3.00000E-11
 Nucleus-field energy     =     0.0000000033 hartrees
 Requested basis set is 6-311++G(d)
 There are 43 shells and 140 basis functions
 A cutoff of  1.0D-12 yielded    860 shell pairs
 There are      9426 function pairs (     10251 Cartesian)
 Smallest overlap matrix eigenvalue = 4.69E-04
 Guess MOs from SCF MO coefficient file
 Reading MOs from coefficient file
 Reading MOs from coefficient file

 -----------------------------------------------------------------------
  General SCF calculation program by
  Eric Jon Sundstrom, Paul Horn, Yuezhi Mao, Dmitri Zuev, Alec White,
  David Stuck, Shaama M.S., Shane Yost, Joonho Lee, David Small,
  Daniel Levine, Susi Lehtola, Hugh Burton, Evgeny Epifanovsky
 -----------------------------------------------------------------------
 Exchange:     0.2220 Hartree-Fock + 1.0000 wB97X-D + LR-HF
 Correlation:  1.0000 wB97X-D
 Using SG-2 standard quadrature grid
 Dispersion:   Grimme D
 using 24 threads for integral computing
 -------------------------------------------------------
 OpenMP Integral computing Module                
 Release: version 1.0, May 2013, Q-Chem Inc. Pittsburgh 
 -------------------------------------------------------
 using 24 threads for integral computing
 -------------------------------------------------------
 OpenMP Integral computing Module                
 Release: version 1.0, May 2013, Q-Chem Inc. Pittsburgh 
 -------------------------------------------------------
 -------------------------------------------------------
 OpenMP BLAS3 based DFT computing Module                
 Release: version 1.0, May 2013, Q-Chem Inc. Pittsburgh 
 -------------------------------------------------------
 A restricted SCF calculation will be
 performed using Roothaan-Hall, GDM
 SCF converges when RMS gradient is below 1.0e-08
 ---------------------------------------
  Cycle       Energy         DIIS error
 ---------------------------------------
    1    -741.0706194074      9.26e-04  Roothaan Step
 ---------------------------------------
  Cycle       Energy        RMS Gradient
 ---------------------------------------
    1    -741.0736210545      4.08e-03   Normal BFGS step
    2    -741.0737691923      3.22e-03   Normal BFGS step
    3    -741.0738916202      7.35e-04   Normal BFGS step
    4    -741.0738979028      6.12e-04   Normal BFGS step
    5    -741.0739004549      2.54e-04   Normal BFGS step
    6    -741.0739008493      2.15e-04   Normal BFGS step
    7    -741.0739010692      6.52e-05   Normal BFGS step
    8    -741.0739011010      4.30e-05   Normal BFGS step
    9    -741.0739011131      1.29e-05   Normal BFGS step
   10    -741.0739011150      4.42e-06   Normal BFGS step
   11    -741.0739011153      1.92e-06   Normal BFGS step
   12    -741.0739011153      4.46e-07   Normal BFGS step
   13    -741.0739011153      2.13e-07   Normal BFGS step
   14    -741.0739011153      8.29e-08   Normal BFGS step
   15    -741.0739011153      3.52e-08   Normal BFGS step
   16    -741.0739011153      8.69e-09  Convergence criterion met
 ---------------------------------------
 SCF time:   CPU 220.85s  wall 9.00s 
 SCF   energy in the final basis set =     -741.0739011153
 
 --------------------------------------------------------------
 
                    Orbital Energies (a.u.)
 --------------------------------------------------------------
 
 Alpha MOs
 -- Occupied --
-89.247 -24.865 -19.374 -19.329 -14.581 -10.436  -8.278  -6.227
 -6.224  -6.219  -1.387  -1.321  -1.229  -1.008  -0.863  -0.754
 -0.682  -0.637  -0.632  -0.605  -0.595  -0.559  -0.526  -0.480
 -0.456  -0.414  -0.360
 -- Virtual --
 -0.056   0.010   0.036   0.060   0.063   0.078   0.093   0.104
  0.122   0.127   0.132   0.138   0.169   0.215   0.225   0.242
  0.248   0.263   0.288   0.297   0.305   0.315   0.329   0.335
  0.342   0.354   0.355   0.377   0.402   0.404   0.428   0.444
  0.482   0.531   0.616   0.638   0.653   0.699   0.722   0.762
  0.815   0.892   0.907   0.957   0.976   1.035   1.087   1.106
  1.135   1.153   1.165   1.175   1.194   1.236   1.300   1.358
  1.400   1.495   1.541   1.553   1.587   1.683   1.697   1.779
  1.790   1.897   1.910   1.994   2.022   2.175   2.321   2.447
  2.677   2.816   2.836   2.841   2.862   2.973   2.977   3.002
  3.052   3.105   3.233   3.337   3.368   3.560   3.807   3.844
  3.898   4.044   4.099   4.179   4.523   4.880   4.977   5.022
  5.041   5.058   5.237   5.533   6.352   6.424   6.669   8.005
 17.265  17.354  17.477  23.746  35.468  49.906  49.949  66.862
189.234
 --------------------------------------------------------------
 
          Ground-State Mulliken Net Atomic Charges

     Atom                 Charge (a.u.)
  ----------------------------------------
      1 S                     0.675676
      2 O                     0.018609
      3 O                    -0.263140
      4 C                    -0.075132
      5 F                    -0.041286
      6 N                    -0.314727
  ----------------------------------------
  Sum of atomic charges =    -0.000000

 -----------------------------------------------------------------
                    Cartesian Multipole Moments
 -----------------------------------------------------------------
    Charge (ESU x 10^10)
                 0.0000
    Dipole Moment (Debye)
         X       0.4691      Y      -1.6215      Z      -2.1991
       Tot       2.7722
    Quadrupole Moments (Debye-Ang)
        XX     -42.4800     XY      -3.0203     YY     -45.6479
        XZ      -0.5206     YZ       0.9441     ZZ     -37.0738
    Octopole Moments (Debye-Ang^2)
       XXX       4.4896    XXY       4.9108    XYY       6.2392
       YYY       8.0261    XXZ      -0.4135    XYZ      -2.5486
       YYZ       0.5842    XZZ      -1.1884    YZZ       0.3154
       ZZZ       8.1107
    Hexadecapole Moments (Debye-Ang^3)
      XXXX    -298.9899   XXXY     -84.2218   XXYY    -108.5279
      XYYY     -99.5830   YYYY    -334.0180   XXXZ     -76.9093
      XXYZ     -17.9078   XYYZ     -27.7084   YYYZ     -56.6334
      XXZZ     -73.6652   XYZZ     -24.8348   YYZZ     -75.5108
      XZZZ     -70.1057   YZZZ     -48.1633   ZZZZ    -150.5697
 -----------------------------------------------------------------
 Calculating analytic gradient of the SCF energy
 Gradient of SCF Energy
            1           2           3           4           5           6
    1  -0.0029168  -0.0062751   0.0010577   0.0030791   0.0024663   0.0025887
    2   0.0005712   0.0022278  -0.0023428   0.0011934   0.0004304  -0.0020800
    3   0.0034565  -0.0073455  -0.0020371   0.0021789   0.0003406   0.0034065
 Max gradient component =       7.345E-03
 RMS gradient           =       3.114E-03
 Gradient time:  CPU 26.41 s  wall 1.37 s
 Geometry Optimization Parameters
   NAtoms,    NIC,     NZ,  NCons,   NDum,   NFix, NCnnct, MaxDiis
        6      27       0       0       0       0       0       0

 Cartesian Hessian Update
 Hessian Updated using BFGS Update


** GEOMETRY OPTIMIZATION IN DELOCALIZED INTERNAL COORDINATES **
   Searching for a Minimum

   Optimization Cycle: 199

                       Coordinates (Angstroms)
     ATOM                X               Y               Z
      1  S        -0.4531553658   -0.8455021381   -0.8463319394
      2  O        -1.0280474655    0.7525474630   -0.6139941836
      3  O        -1.2601996580   -1.8741799306   -0.2476977937
      4  C         0.9761183685    1.2600144373    0.6831417427
      5  F         2.0070816852    0.5405182994    1.1241481092
      6  N         0.0665119034    0.4027434495    0.2362792533
   Point Group: c1    Number of degrees of freedom:    12


   Energy is   -741.073901115

 Hessian Updated using BFGS Update

 10 Hessian modes will be used to form the next step
  Hessian Eigenvalues:
     0.022867    0.066602    0.257219    0.260443    0.412925    0.502049
     0.753502    1.124463    2.860566   50.002445
**WARNING** Magnitude of eigenvalue  10 too large.  Replaced by    25.000000

 Minimum Search - Taking Simple RFO Step
 Searching for Lamda that Minimizes Along All modes
 Value Taken    Lamda =  -0.00118709
 Step Taken.  Stepsize is  0.006891

                             Maximum     Tolerance    Cnvgd?
         Gradient           0.122776      0.000300      NO
         Displacement       0.004911      0.001200      NO
         Energy change      0.000108      0.000001      NO


 New Cartesian Coordinates Obtained by Inverse Iteration

 Displacement from previous Coordinates is:  0.125174
 ----------------------------------------------------------------
             Standard Nuclear Orientation (Angstroms)
    I     Atom           X                Y                Z
 ----------------------------------------------------------------
    1      S      -0.4432159649    -0.8532426649    -0.8644599732
    2      O      -1.0145514812     0.7372347908    -0.5781540799
    3      O      -1.2700661723    -1.8503033152    -0.2399328053
    4      C       0.9600729210     1.2593987280     0.6789771259
    5      F       1.9920330822     0.5458848631     1.1271969959
    6      N       0.0840370831     0.3971691786     0.2119179251
 ----------------------------------------------------------------
 Molecular Point Group                 C1    NOp =  1
 Largest Abelian Subgroup              C1    NOp =  1
 Nuclear Repulsion Energy =   296.4008216767 hartrees
 There are       27 alpha and       27 beta electrons
 Applying Cartesian multipole field
    Component          Value
    ---------          -----
     (2,0,0)        1.00000E-11
     (0,2,0)        2.00000E-11
     (0,0,2)       -3.00000E-11
 Nucleus-field energy     =     0.0000000032 hartrees
 Requested basis set is 6-311++G(d)
 There are 43 shells and 140 basis functions
 A cutoff of  1.0D-12 yielded    861 shell pairs
 There are      9427 function pairs (     10252 Cartesian)
 Smallest overlap matrix eigenvalue = 4.24E-04
 Guess MOs from SCF MO coefficient file
 Reading MOs from coefficient file
 Reading MOs from coefficient file

 -----------------------------------------------------------------------
  General SCF calculation program by
  Eric Jon Sundstrom, Paul Horn, Yuezhi Mao, Dmitri Zuev, Alec White,
  David Stuck, Shaama M.S., Shane Yost, Joonho Lee, David Small,
  Daniel Levine, Susi Lehtola, Hugh Burton, Evgeny Epifanovsky
 -----------------------------------------------------------------------
 Exchange:     0.2220 Hartree-Fock + 1.0000 wB97X-D + LR-HF
 Correlation:  1.0000 wB97X-D
 Using SG-2 standard quadrature grid
 Dispersion:   Grimme D
 using 24 threads for integral computing
 -------------------------------------------------------
 OpenMP Integral computing Module                
 Release: version 1.0, May 2013, Q-Chem Inc. Pittsburgh 
 -------------------------------------------------------
 using 24 threads for integral computing
 -------------------------------------------------------
 OpenMP Integral computing Module                
 Release: version 1.0, May 2013, Q-Chem Inc. Pittsburgh 
 -------------------------------------------------------
 -------------------------------------------------------
 OpenMP BLAS3 based DFT computing Module                
 Release: version 1.0, May 2013, Q-Chem Inc. Pittsburgh 
 -------------------------------------------------------
 A restricted SCF calculation will be
 performed using Roothaan-Hall, GDM
 SCF converges when RMS gradient is below 1.0e-08
 ---------------------------------------
  Cycle       Energy         DIIS error
 ---------------------------------------
    1    -741.0707099020      9.26e-04  Roothaan Step
 ---------------------------------------
  Cycle       Energy        RMS Gradient
 ---------------------------------------
    1    -741.0737234059      3.93e-03   Normal BFGS step
    2    -741.0738612644      3.75e-03   Normal BFGS step
    3    -741.0740012178      7.11e-04   Normal BFGS step
    4    -741.0740054165      5.63e-04   Normal BFGS step
    5    -741.0740083516      2.90e-04   Normal BFGS step
    6    -741.0740086471      1.96e-04   Normal BFGS step
    7    -741.0740089474      5.02e-05   Normal BFGS step
    8    -741.0740089621      3.37e-05   Normal BFGS step
    9    -741.0740089725      6.82e-06   Normal BFGS step
   10    -741.0740089733      3.97e-06   Normal BFGS step
   11    -741.0740089736      1.34e-06   Normal BFGS step
   12    -741.0740089736      4.93e-07   Normal BFGS step
   13    -741.0740089736      2.32e-07   Normal BFGS step
   14    -741.0740089736      7.51e-08   Normal BFGS step
   15    -741.0740089736      3.14e-08   Normal BFGS step
   16    -741.0740089736      7.40e-09  Convergence criterion met
 ---------------------------------------
 SCF time:   CPU 222.67s  wall 10.00s 
 SCF   energy in the final basis set =     -741.0740089736
 
 --------------------------------------------------------------
 
                    Orbital Energies (a.u.)
 --------------------------------------------------------------
 
 Alpha MOs
 -- Occupied --
-89.249 -24.860 -19.372 -19.329 -14.580 -10.430  -8.280  -6.229
 -6.225  -6.221  -1.384  -1.332  -1.232  -1.007  -0.866  -0.754
 -0.682  -0.640  -0.636  -0.603  -0.592  -0.558  -0.529  -0.478
 -0.459  -0.409  -0.358
 -- Virtual --
 -0.058   0.009   0.041   0.060   0.063   0.080   0.093   0.113
  0.123   0.132   0.133   0.138   0.168   0.216   0.227   0.244
  0.248   0.262   0.290   0.299   0.306   0.314   0.329   0.334
  0.344   0.356   0.357   0.381   0.401   0.406   0.432   0.446
  0.488   0.538   0.617   0.639   0.654   0.697   0.719   0.765
  0.813   0.896   0.914   0.957   0.978   1.035   1.089   1.102
  1.137   1.150   1.168   1.175   1.203   1.238   1.301   1.367
  1.407   1.494   1.541   1.548   1.591   1.682   1.700   1.781
  1.797   1.887   1.916   1.987   2.032   2.190   2.351   2.442
  2.684   2.815   2.838   2.843   2.869   2.978   2.994   3.011
  3.068   3.133   3.248   3.350   3.395   3.562   3.810   3.851
  3.905   4.050   4.116   4.189   4.548   4.888   4.975   5.024
  5.041   5.063   5.237   5.616   6.355   6.432   6.681   8.002
 17.262  17.360  17.468  23.771  35.483  49.907  49.954  66.868
189.232
 --------------------------------------------------------------
 
          Ground-State Mulliken Net Atomic Charges

     Atom                 Charge (a.u.)
  ----------------------------------------
      1 S                     0.687985
      2 O                     0.031995
      3 O                    -0.270509
      4 C                    -0.084487
      5 F                    -0.047892
      6 N                    -0.317092
  ----------------------------------------
  Sum of atomic charges =     0.000000

 -----------------------------------------------------------------
                    Cartesian Multipole Moments
 -----------------------------------------------------------------
    Charge (ESU x 10^10)
                 0.0000
    Dipole Moment (Debye)
         X       0.4516      Y      -1.7176      Z      -2.4012
       Tot       2.9866
    Quadrupole Moments (Debye-Ang)
        XX     -42.6157     XY      -3.0819     YY     -45.4308
        XZ      -0.6297     YZ       1.0034     ZZ     -36.9116
    Octopole Moments (Debye-Ang^2)
       XXX       4.1417    XXY       5.0637    XYY       6.2083
       YYY       7.7393    XXZ      -0.4333    XYZ      -2.5900
       YYZ       0.3051    XZZ      -1.4432    YZZ       0.0994
       ZZZ       7.9730
    Hexadecapole Moments (Debye-Ang^3)
      XXXX    -296.0676   XXXY     -84.2685   XXYY    -107.1819
      XYYY     -98.8591   YYYY    -330.3880   XXXZ     -75.9947
      XXYZ     -18.2530   XYYZ     -27.2474   YYYZ     -57.1306
      XXZZ     -73.3210   XYZZ     -24.8403   YYZZ     -74.8617
      XZZZ     -69.1919   YZZZ     -48.9646   ZZZZ    -150.6234
 -----------------------------------------------------------------
 Calculating analytic gradient of the SCF energy
 Gradient of SCF Energy
            1           2           3           4           5           6
    1   0.0032593   0.0062105  -0.0013624  -0.0025691  -0.0024670  -0.0030713
    2   0.0001985  -0.0024821   0.0017697  -0.0008029  -0.0003854   0.0017023
    3  -0.0011775   0.0070753   0.0004076  -0.0031902  -0.0003780  -0.0027372
 Max gradient component =       7.075E-03
 RMS gradient           =       2.940E-03
 Gradient time:  CPU 26.42 s  wall 1.66 s
 Geometry Optimization Parameters
   NAtoms,    NIC,     NZ,  NCons,   NDum,   NFix, NCnnct, MaxDiis
        6      27       0       0       0       0       0       0

 Cartesian Hessian Update
 Hessian Updated using BFGS Update


** GEOMETRY OPTIMIZATION IN DELOCALIZED INTERNAL COORDINATES **
   Searching for a Minimum

   Optimization Cycle: 200

                       Coordinates (Angstroms)
     ATOM                X               Y               Z
      1  S        -0.4432159649   -0.8532426649   -0.8644599732
      2  O        -1.0145514812    0.7372347908   -0.5781540799
      3  O        -1.2700661723   -1.8503033152   -0.2399328053
      4  C         0.9600729210    1.2593987280    0.6789771259
      5  F         1.9920330822    0.5458848631    1.1271969959
      6  N         0.0840370831    0.3971691786    0.2119179251
   Point Group: c1    Number of degrees of freedom:    12


   Energy is   -741.074008974

 Hessian Updated using BFGS Update

  9 Hessian modes will be used to form the next step
  Hessian Eigenvalues:
     0.066602    0.257219    0.260443    0.412925    0.502049    0.753502
     1.124463    2.860566   50.002458
**WARNING** Magnitude of eigenvalue   9 too large.  Replaced by    25.000000

 Minimum Search - Taking Simple RFO Step
 Searching for Lamda that Minimizes Along All modes
 Value Taken    Lamda =  -0.00118710
 Step Taken.  Stepsize is  0.006891

                             Maximum     Tolerance    Cnvgd?
         Gradient           0.122776      0.000300      NO
         Displacement       0.004911      0.001200      NO
         Energy change     -0.000108      0.000001      NO


 New Cartesian Coordinates Obtained by Inverse Iteration

 Displacement from previous Coordinates is:  0.125175
 ----------------------------------------------------------------
             Standard Nuclear Orientation (Angstroms)
    I     Atom           X                Y                Z
 ----------------------------------------------------------------
    1      S      -0.4531553147    -0.8455020271    -0.8463317112
    2      O      -1.0280475505     0.7525477106    -0.6139942658
    3      O      -1.2601996355    -1.8741799209    -0.2476977754
    4      C       0.9761185729     1.2600143445     0.6831417394
    5      F       2.0070817484     0.5405177904     1.1241477899
    6      N       0.0665116471     0.4027436829     0.2362794116
 ----------------------------------------------------------------
 Molecular Point Group                 C1    NOp =  1
 Largest Abelian Subgroup              C1    NOp =  1
 Nuclear Repulsion Energy =   294.9468463479 hartrees
 There are       27 alpha and       27 beta electrons

                       Distance Matrix (Angstroms)
             S (  1)   O (  2)   O (  3)   C (  4)   F (  5)
   O (  2)  1.714131
   O (  3)  1.438006  2.662286
   C (  4)  2.969059  2.440649  3.961156
   F (  5)  3.443342  3.504013  4.288106  1.332309
   N (  6)  1.732114  1.429471  2.679324  1.327397  2.138482
 


 *******************************************
 **  MAXIMUM OPTIMIZATION CYCLES REACHED  **
 *******************************************

 Q-Chem fatal error occurred in module 0, line  456, PE  0:

 Maximum optimization cycles reached

