<?xml version="1.0" encoding="ISO-8859-1"?>
<modeling>
 <generator>
  <i name="program" type="string">vasp </i>
  <i name="version" type="string">5.4.1  </i>
  <i name="subversion" type="string">24Jun15 (build Feb 01 2016 23:38:11) complex                          parallel </i>
  <i name="platform" type="string">IFC91_impi </i>
  <i name="date" type="string">2017 06 14 </i>
  <i name="time" type="string">10:12:04 </i>
 </generator>
 <incar>
  <i type="string" name="PREC">accurate</i>
  <i type="string" name="ALGO"> Fast</i>
  <i type="int" name="ISPIN">     2</i>
  <i type="int" name="ICHARG">     1</i>
  <i type="int" name="NELM">   100</i>
  <i type="int" name="IBRION">     2</i>
  <i name="EDIFF">      0.00020000</i>
  <i type="int" name="NSW">     2</i>
  <i type="int" name="ISIF">     0</i>
  <i name="ENCUT">    520.00000000</i>
  <v name="MAGMOM">      0.60000000      0.60000000      0.60000000      0.60000000</v>
  <i type="string" name="LREAL"> Auto</i>
  <i type="int" name="ISMEAR">    -5</i>
  <i name="SIGMA">      0.05000000</i>
  <i type="logical" name="LWAVE"> F  </i>
  <i type="logical" name="LORBIT"> F  </i>
  <v type="int" name="KPOINT_BSE">    -1     0     0     0</v>
  <i type="int" name="NELM">   100</i>
 </incar>
 <kpoints>
  <generation param="Monkhorst-Pack">
   <v type="int" name="divisions">       6        6        6 </v>
   <v name="usershift">      0.00000000       0.00000000       0.00000000 </v>
   <v name="genvec1">      0.16666667       0.00000000       0.00000000 </v>
   <v name="genvec2">      0.00000000       0.16666667       0.00000000 </v>
   <v name="genvec3">      0.00000000       0.00000000       0.16666667 </v>
   <v name="shift">      0.50000000       0.50000000       0.50000000 </v>
  </generation>
  <varray name="kpointlist" >
   <v>       0.08333333       0.08333333       0.08333333 </v>
   <v>       0.25000000       0.08333333       0.08333333 </v>
   <v>       0.41666667       0.08333333       0.08333333 </v>
   <v>      -0.41666667       0.08333333       0.08333333 </v>
   <v>      -0.25000000       0.08333333       0.08333333 </v>
   <v>      -0.08333333       0.08333333       0.08333333 </v>
   <v>       0.08333333       0.25000000       0.08333333 </v>
   <v>       0.25000000       0.25000000       0.08333333 </v>
   <v>       0.41666667       0.25000000       0.08333333 </v>
   <v>      -0.41666667       0.25000000       0.08333333 </v>
   <v>      -0.25000000       0.25000000       0.08333333 </v>
   <v>      -0.08333333       0.25000000       0.08333333 </v>
   <v>       0.08333333       0.41666667       0.08333333 </v>
   <v>       0.25000000       0.41666667       0.08333333 </v>
   <v>       0.41666667       0.41666667       0.08333333 </v>
   <v>      -0.41666667       0.41666667       0.08333333 </v>
   <v>      -0.25000000       0.41666667       0.08333333 </v>
   <v>      -0.08333333       0.41666667       0.08333333 </v>
   <v>       0.08333333      -0.41666667       0.08333333 </v>
   <v>       0.25000000      -0.41666667       0.08333333 </v>
   <v>       0.41666667      -0.41666667       0.08333333 </v>
   <v>      -0.41666667      -0.41666667       0.08333333 </v>
   <v>      -0.25000000      -0.41666667       0.08333333 </v>
   <v>      -0.08333333      -0.41666667       0.08333333 </v>
   <v>       0.08333333      -0.25000000       0.08333333 </v>
   <v>       0.25000000      -0.25000000       0.08333333 </v>
   <v>       0.41666667      -0.25000000       0.08333333 </v>
   <v>      -0.41666667      -0.25000000       0.08333333 </v>
   <v>      -0.25000000      -0.25000000       0.08333333 </v>
   <v>      -0.08333333      -0.25000000       0.08333333 </v>
   <v>       0.08333333      -0.08333333       0.08333333 </v>
   <v>       0.25000000      -0.08333333       0.08333333 </v>
   <v>       0.41666667      -0.08333333       0.08333333 </v>
   <v>      -0.41666667      -0.08333333       0.08333333 </v>
   <v>      -0.25000000      -0.08333333       0.08333333 </v>
   <v>      -0.08333333      -0.08333333       0.08333333 </v>
   <v>       0.08333333       0.08333333       0.25000000 </v>
   <v>       0.25000000       0.08333333       0.25000000 </v>
   <v>       0.41666667       0.08333333       0.25000000 </v>
   <v>      -0.41666667       0.08333333       0.25000000 </v>
   <v>      -0.25000000       0.08333333       0.25000000 </v>
   <v>      -0.08333333       0.08333333       0.25000000 </v>
   <v>       0.08333333       0.25000000       0.25000000 </v>
   <v>       0.25000000       0.25000000       0.25000000 </v>
   <v>       0.41666667       0.25000000       0.25000000 </v>
   <v>      -0.41666667       0.25000000       0.25000000 </v>
   <v>      -0.25000000       0.25000000       0.25000000 </v>
   <v>      -0.08333333       0.25000000       0.25000000 </v>
   <v>       0.08333333       0.41666667       0.25000000 </v>
   <v>       0.25000000       0.41666667       0.25000000 </v>
   <v>       0.41666667       0.41666667       0.25000000 </v>
   <v>      -0.41666667       0.41666667       0.25000000 </v>
   <v>      -0.25000000       0.41666667       0.25000000 </v>
   <v>      -0.08333333       0.41666667       0.25000000 </v>
   <v>       0.08333333      -0.41666667       0.25000000 </v>
   <v>       0.25000000      -0.41666667       0.25000000 </v>
   <v>       0.41666667      -0.41666667       0.25000000 </v>
   <v>      -0.41666667      -0.41666667       0.25000000 </v>
   <v>      -0.25000000      -0.41666667       0.25000000 </v>
   <v>      -0.08333333      -0.41666667       0.25000000 </v>
   <v>       0.08333333      -0.25000000       0.25000000 </v>
   <v>       0.25000000      -0.25000000       0.25000000 </v>
   <v>       0.41666667      -0.25000000       0.25000000 </v>
   <v>      -0.41666667      -0.25000000       0.25000000 </v>
   <v>      -0.25000000      -0.25000000       0.25000000 </v>
   <v>      -0.08333333      -0.25000000       0.25000000 </v>
   <v>       0.08333333      -0.08333333       0.25000000 </v>
   <v>       0.25000000      -0.08333333       0.25000000 </v>
   <v>       0.41666667      -0.08333333       0.25000000 </v>
   <v>      -0.41666667      -0.08333333       0.25000000 </v>
   <v>      -0.25000000      -0.08333333       0.25000000 </v>
   <v>      -0.08333333      -0.08333333       0.25000000 </v>
   <v>       0.08333333       0.08333333       0.41666667 </v>
   <v>       0.25000000       0.08333333       0.41666667 </v>
   <v>       0.41666667       0.08333333       0.41666667 </v>
   <v>      -0.41666667       0.08333333       0.41666667 </v>
   <v>      -0.25000000       0.08333333       0.41666667 </v>
   <v>      -0.08333333       0.08333333       0.41666667 </v>
   <v>       0.08333333       0.25000000       0.41666667 </v>
   <v>       0.25000000       0.25000000       0.41666667 </v>
   <v>       0.41666667       0.25000000       0.41666667 </v>
   <v>      -0.41666667       0.25000000       0.41666667 </v>
   <v>      -0.25000000       0.25000000       0.41666667 </v>
   <v>      -0.08333333       0.25000000       0.41666667 </v>
   <v>       0.08333333       0.41666667       0.41666667 </v>
   <v>       0.25000000       0.41666667       0.41666667 </v>
   <v>       0.41666667       0.41666667       0.41666667 </v>
   <v>      -0.41666667       0.41666667       0.41666667 </v>
   <v>      -0.25000000       0.41666667       0.41666667 </v>
   <v>      -0.08333333       0.41666667       0.41666667 </v>
   <v>       0.08333333      -0.41666667       0.41666667 </v>
   <v>       0.25000000      -0.41666667       0.41666667 </v>
   <v>       0.41666667      -0.41666667       0.41666667 </v>
   <v>      -0.41666667      -0.41666667       0.41666667 </v>
   <v>      -0.25000000      -0.41666667       0.41666667 </v>
   <v>      -0.08333333      -0.41666667       0.41666667 </v>
   <v>       0.08333333      -0.25000000       0.41666667 </v>
   <v>       0.25000000      -0.25000000       0.41666667 </v>
   <v>       0.41666667      -0.25000000       0.41666667 </v>
   <v>      -0.41666667      -0.25000000       0.41666667 </v>
   <v>      -0.25000000      -0.25000000       0.41666667 </v>
   <v>      -0.08333333      -0.25000000       0.41666667 </v>
   <v>       0.08333333      -0.08333333       0.41666667 </v>
   <v>       0.25000000      -0.08333333       0.41666667 </v>
   <v>       0.41666667      -0.08333333       0.41666667 </v>
   <v>      -0.41666667      -0.08333333       0.41666667 </v>
   <v>      -0.25000000      -0.08333333       0.41666667 </v>
   <v>      -0.08333333      -0.08333333       0.41666667 </v>
  </varray>
  <varray name="weights" >
   <v>       0.00925926 </v>
   <v>       0.00925926 </v>
   <v>       0.00925926 </v>
   <v>       0.00925926 </v>
   <v>       0.00925926 </v>
   <v>       0.00925926 </v>
   <v>       0.00925926 </v>
   <v>       0.00925926 </v>
   <v>       0.00925926 </v>
   <v>       0.00925926 </v>
   <v>       0.00925926 </v>
   <v>       0.00925926 </v>
   <v>       0.00925926 </v>
   <v>       0.00925926 </v>
   <v>       0.00925926 </v>
   <v>       0.00925926 </v>
   <v>       0.00925926 </v>
   <v>       0.00925926 </v>
   <v>       0.00925926 </v>
   <v>       0.00925926 </v>
   <v>       0.00925926 </v>
   <v>       0.00925926 </v>
   <v>       0.00925926 </v>
   <v>       0.00925926 </v>
   <v>       0.00925926 </v>
   <v>       0.00925926 </v>
   <v>       0.00925926 </v>
   <v>       0.00925926 </v>
   <v>       0.00925926 </v>
   <v>       0.00925926 </v>
   <v>       0.00925926 </v>
   <v>       0.00925926 </v>
   <v>       0.00925926 </v>
   <v>       0.00925926 </v>
   <v>       0.00925926 </v>
   <v>       0.00925926 </v>
   <v>       0.00925926 </v>
   <v>       0.00925926 </v>
   <v>       0.00925926 </v>
   <v>       0.00925926 </v>
   <v>       0.00925926 </v>
   <v>       0.00925926 </v>
   <v>       0.00925926 </v>
   <v>       0.00925926 </v>
   <v>       0.00925926 </v>
   <v>       0.00925926 </v>
   <v>       0.00925926 </v>
   <v>       0.00925926 </v>
   <v>       0.00925926 </v>
   <v>       0.00925926 </v>
   <v>       0.00925926 </v>
   <v>       0.00925926 </v>
   <v>       0.00925926 </v>
   <v>       0.00925926 </v>
   <v>       0.00925926 </v>
   <v>       0.00925926 </v>
   <v>       0.00925926 </v>
   <v>       0.00925926 </v>
   <v>       0.00925926 </v>
   <v>       0.00925926 </v>
   <v>       0.00925926 </v>
   <v>       0.00925926 </v>
   <v>       0.00925926 </v>
   <v>       0.00925926 </v>
   <v>       0.00925926 </v>
   <v>       0.00925926 </v>
   <v>       0.00925926 </v>
   <v>       0.00925926 </v>
   <v>       0.00925926 </v>
   <v>       0.00925926 </v>
   <v>       0.00925926 </v>
   <v>       0.00925926 </v>
   <v>       0.00925926 </v>
   <v>       0.00925926 </v>
   <v>       0.00925926 </v>
   <v>       0.00925926 </v>
   <v>       0.00925926 </v>
   <v>       0.00925926 </v>
   <v>       0.00925926 </v>
   <v>       0.00925926 </v>
   <v>       0.00925926 </v>
   <v>       0.00925926 </v>
   <v>       0.00925926 </v>
   <v>       0.00925926 </v>
   <v>       0.00925926 </v>
   <v>       0.00925926 </v>
   <v>       0.00925926 </v>
   <v>       0.00925926 </v>
   <v>       0.00925926 </v>
   <v>       0.00925926 </v>
   <v>       0.00925926 </v>
   <v>       0.00925926 </v>
   <v>       0.00925926 </v>
   <v>       0.00925926 </v>
   <v>       0.00925926 </v>
   <v>       0.00925926 </v>
   <v>       0.00925926 </v>
   <v>       0.00925926 </v>
   <v>       0.00925926 </v>
   <v>       0.00925926 </v>
   <v>       0.00925926 </v>
   <v>       0.00925926 </v>
   <v>       0.00925926 </v>
   <v>       0.00925926 </v>
   <v>       0.00925926 </v>
   <v>       0.00925926 </v>
   <v>       0.00925926 </v>
   <v>       0.00925926 </v>
  </varray>
  <varray name="tetrahedronlist"  type="int" >
   <v type="int" >        2        1        2        8       37 </v>
   <v type="int" >        2        1        7        8       37 </v>
   <v type="int" >        2        7        8       37       43 </v>
   <v type="int" >        2        2        8       37       38 </v>
   <v type="int" >        2        8       37       38       44 </v>
   <v type="int" >        2        8       37       43       44 </v>
   <v type="int" >        2        2        3        9       38 </v>
   <v type="int" >        2        2        8        9       38 </v>
   <v type="int" >        2        8        9       38       44 </v>
   <v type="int" >        2        3        9       38       39 </v>
   <v type="int" >        2        9       38       39       45 </v>
   <v type="int" >        2        9       38       44       45 </v>
   <v type="int" >        2        3        4       10       39 </v>
   <v type="int" >        2        3        9       10       39 </v>
   <v type="int" >        2        9       10       39       45 </v>
   <v type="int" >        2        4       10       39       40 </v>
   <v type="int" >        2       10       39       40       46 </v>
   <v type="int" >        2       10       39       45       46 </v>
   <v type="int" >        2        4        5       11       40 </v>
   <v type="int" >        2        4       10       11       40 </v>
   <v type="int" >        2       10       11       40       46 </v>
   <v type="int" >        2        5       11       40       41 </v>
   <v type="int" >        2       11       40       41       47 </v>
   <v type="int" >        2       11       40       46       47 </v>
   <v type="int" >        2        5        6       12       41 </v>
   <v type="int" >        2        5       11       12       41 </v>
   <v type="int" >        2       11       12       41       47 </v>
   <v type="int" >        2        6       12       41       42 </v>
   <v type="int" >        2       12       41       42       48 </v>
   <v type="int" >        2       12       41       47       48 </v>
   <v type="int" >        2        1        6        7       42 </v>
   <v type="int" >        2        6        7       12       42 </v>
   <v type="int" >        2        7       12       42       48 </v>
   <v type="int" >        2        1        7       37       42 </v>
   <v type="int" >        2        7       37       42       43 </v>
   <v type="int" >        2        7       42       43       48 </v>
   <v type="int" >        2        7        8       14       43 </v>
   <v type="int" >        2        7       13       14       43 </v>
   <v type="int" >        2       13       14       43       49 </v>
   <v type="int" >        2        8       14       43       44 </v>
   <v type="int" >        2       14       43       44       50 </v>
   <v type="int" >        2       14       43       49       50 </v>
   <v type="int" >        2        8        9       15       44 </v>
   <v type="int" >        2        8       14       15       44 </v>
   <v type="int" >        2       14       15       44       50 </v>
   <v type="int" >        2        9       15       44       45 </v>
   <v type="int" >        2       15       44       45       51 </v>
   <v type="int" >        2       15       44       50       51 </v>
   <v type="int" >        2        9       10       16       45 </v>
   <v type="int" >        2        9       15       16       45 </v>
   <v type="int" >        2       15       16       45       51 </v>
   <v type="int" >        2       10       16       45       46 </v>
   <v type="int" >        2       16       45       46       52 </v>
   <v type="int" >        2       16       45       51       52 </v>
   <v type="int" >        2       10       11       17       46 </v>
   <v type="int" >        2       10       16       17       46 </v>
   <v type="int" >        2       16       17       46       52 </v>
   <v type="int" >        2       11       17       46       47 </v>
   <v type="int" >        2       17       46       47       53 </v>
   <v type="int" >        2       17       46       52       53 </v>
   <v type="int" >        2       11       12       18       47 </v>
   <v type="int" >        2       11       17       18       47 </v>
   <v type="int" >        2       17       18       47       53 </v>
   <v type="int" >        2       12       18       47       48 </v>
   <v type="int" >        2       18       47       48       54 </v>
   <v type="int" >        2       18       47       53       54 </v>
   <v type="int" >        2        7       12       13       48 </v>
   <v type="int" >        2       12       13       18       48 </v>
   <v type="int" >        2       13       18       48       54 </v>
   <v type="int" >        2        7       13       43       48 </v>
   <v type="int" >        2       13       43       48       49 </v>
   <v type="int" >        2       13       48       49       54 </v>
   <v type="int" >        2       13       14       20       49 </v>
   <v type="int" >        2       13       19       20       49 </v>
   <v type="int" >        2       19       20       49       55 </v>
   <v type="int" >        2       14       20       49       50 </v>
   <v type="int" >        2       20       49       50       56 </v>
   <v type="int" >        2       20       49       55       56 </v>
   <v type="int" >        2       14       15       21       50 </v>
   <v type="int" >        2       14       20       21       50 </v>
   <v type="int" >        2       20       21       50       56 </v>
   <v type="int" >        2       15       21       50       51 </v>
   <v type="int" >        2       21       50       51       57 </v>
   <v type="int" >        2       21       50       56       57 </v>
   <v type="int" >        2       15       16       22       51 </v>
   <v type="int" >        2       15       21       22       51 </v>
   <v type="int" >        2       21       22       51       57 </v>
   <v type="int" >        2       16       22       51       52 </v>
   <v type="int" >        2       22       51       52       58 </v>
   <v type="int" >        2       22       51       57       58 </v>
   <v type="int" >        2       16       17       23       52 </v>
   <v type="int" >        2       16       22       23       52 </v>
   <v type="int" >        2       22       23       52       58 </v>
   <v type="int" >        2       17       23       52       53 </v>
   <v type="int" >        2       23       52       53       59 </v>
   <v type="int" >        2       23       52       58       59 </v>
   <v type="int" >        2       17       18       24       53 </v>
   <v type="int" >        2       17       23       24       53 </v>
   <v type="int" >        2       23       24       53       59 </v>
   <v type="int" >        2       18       24       53       54 </v>
   <v type="int" >        2       24       53       54       60 </v>
   <v type="int" >        2       24       53       59       60 </v>
   <v type="int" >        2       13       18       19       54 </v>
   <v type="int" >        2       18       19       24       54 </v>
   <v type="int" >        2       19       24       54       60 </v>
   <v type="int" >        2       13       19       49       54 </v>
   <v type="int" >        2       19       49       54       55 </v>
   <v type="int" >        2       19       54       55       60 </v>
   <v type="int" >        2       19       20       26       55 </v>
   <v type="int" >        2       19       25       26       55 </v>
   <v type="int" >        2       25       26       55       61 </v>
   <v type="int" >        2       20       26       55       56 </v>
   <v type="int" >        2       26       55       56       62 </v>
   <v type="int" >        2       26       55       61       62 </v>
   <v type="int" >        2       20       21       27       56 </v>
   <v type="int" >        2       20       26       27       56 </v>
   <v type="int" >        2       26       27       56       62 </v>
   <v type="int" >        2       21       27       56       57 </v>
   <v type="int" >        2       27       56       57       63 </v>
   <v type="int" >        2       27       56       62       63 </v>
   <v type="int" >        2       21       22       28       57 </v>
   <v type="int" >        2       21       27       28       57 </v>
   <v type="int" >        2       27       28       57       63 </v>
   <v type="int" >        2       22       28       57       58 </v>
   <v type="int" >        2       28       57       58       64 </v>
   <v type="int" >        2       28       57       63       64 </v>
   <v type="int" >        2       22       23       29       58 </v>
   <v type="int" >        2       22       28       29       58 </v>
   <v type="int" >        2       28       29       58       64 </v>
   <v type="int" >        2       23       29       58       59 </v>
   <v type="int" >        2       29       58       59       65 </v>
   <v type="int" >        2       29       58       64       65 </v>
   <v type="int" >        2       23       24       30       59 </v>
   <v type="int" >        2       23       29       30       59 </v>
   <v type="int" >        2       29       30       59       65 </v>
   <v type="int" >        2       24       30       59       60 </v>
   <v type="int" >        2       30       59       60       66 </v>
   <v type="int" >        2       30       59       65       66 </v>
   <v type="int" >        2       19       24       25       60 </v>
   <v type="int" >        2       24       25       30       60 </v>
   <v type="int" >        2       25       30       60       66 </v>
   <v type="int" >        2       19       25       55       60 </v>
   <v type="int" >        2       25       55       60       61 </v>
   <v type="int" >        2       25       60       61       66 </v>
   <v type="int" >        2       25       26       32       61 </v>
   <v type="int" >        2       25       31       32       61 </v>
   <v type="int" >        2       31       32       61       67 </v>
   <v type="int" >        2       26       32       61       62 </v>
   <v type="int" >        2       32       61       62       68 </v>
   <v type="int" >        2       32       61       67       68 </v>
   <v type="int" >        2       26       27       33       62 </v>
   <v type="int" >        2       26       32       33       62 </v>
   <v type="int" >        2       32       33       62       68 </v>
   <v type="int" >        2       27       33       62       63 </v>
   <v type="int" >        2       33       62       63       69 </v>
   <v type="int" >        2       33       62       68       69 </v>
   <v type="int" >        2       27       28       34       63 </v>
   <v type="int" >        2       27       33       34       63 </v>
   <v type="int" >        2       33       34       63       69 </v>
   <v type="int" >        2       28       34       63       64 </v>
   <v type="int" >        2       34       63       64       70 </v>
   <v type="int" >        2       34       63       69       70 </v>
   <v type="int" >        2       28       29       35       64 </v>
   <v type="int" >        2       28       34       35       64 </v>
   <v type="int" >        2       34       35       64       70 </v>
   <v type="int" >        2       29       35       64       65 </v>
   <v type="int" >        2       35       64       65       71 </v>
   <v type="int" >        2       35       64       70       71 </v>
   <v type="int" >        2       29       30       36       65 </v>
   <v type="int" >        2       29       35       36       65 </v>
   <v type="int" >        2       35       36       65       71 </v>
   <v type="int" >        2       30       36       65       66 </v>
   <v type="int" >        2       36       65       66       72 </v>
   <v type="int" >        2       36       65       71       72 </v>
   <v type="int" >        2       25       30       31       66 </v>
   <v type="int" >        2       30       31       36       66 </v>
   <v type="int" >        2       31       36       66       72 </v>
   <v type="int" >        2       25       31       61       66 </v>
   <v type="int" >        2       31       61       66       67 </v>
   <v type="int" >        2       31       66       67       72 </v>
   <v type="int" >        2        2       31       32       67 </v>
   <v type="int" >        2        1        2       31       67 </v>
   <v type="int" >        2        1        2       37       67 </v>
   <v type="int" >        2        2       32       67       68 </v>
   <v type="int" >        2        2       38       67       68 </v>
   <v type="int" >        2        2       37       38       67 </v>
   <v type="int" >        2        3       32       33       68 </v>
   <v type="int" >        2        2        3       32       68 </v>
   <v type="int" >        2        2        3       38       68 </v>
   <v type="int" >        2        3       33       68       69 </v>
   <v type="int" >        2        3       39       68       69 </v>
   <v type="int" >        2        3       38       39       68 </v>
   <v type="int" >        2        4       33       34       69 </v>
   <v type="int" >        2        3        4       33       69 </v>
   <v type="int" >        2        3        4       39       69 </v>
   <v type="int" >        2        4       34       69       70 </v>
   <v type="int" >        2        4       40       69       70 </v>
   <v type="int" >        2        4       39       40       69 </v>
   <v type="int" >        2        5       34       35       70 </v>
   <v type="int" >        2        4        5       34       70 </v>
   <v type="int" >        2        4        5       40       70 </v>
   <v type="int" >        2        5       35       70       71 </v>
   <v type="int" >        2        5       41       70       71 </v>
   <v type="int" >        2        5       40       41       70 </v>
   <v type="int" >        2        6       35       36       71 </v>
   <v type="int" >        2        5        6       35       71 </v>
   <v type="int" >        2        5        6       41       71 </v>
   <v type="int" >        2        6       36       71       72 </v>
   <v type="int" >        2        6       42       71       72 </v>
   <v type="int" >        2        6       41       42       71 </v>
   <v type="int" >        2        1       31       36       72 </v>
   <v type="int" >        2        1        6       36       72 </v>
   <v type="int" >        2        1        6       42       72 </v>
   <v type="int" >        2        1       31       67       72 </v>
   <v type="int" >        2        1       37       67       72 </v>
   <v type="int" >        2        1       37       42       72 </v>
   <v type="int" >        2       37       38       44       73 </v>
   <v type="int" >        2       37       43       44       73 </v>
   <v type="int" >        2       43       44       73       79 </v>
   <v type="int" >        2       38       44       73       74 </v>
   <v type="int" >        2       44       73       74       80 </v>
   <v type="int" >        2       44       73       79       80 </v>
   <v type="int" >        2       38       39       45       74 </v>
   <v type="int" >        2       38       44       45       74 </v>
   <v type="int" >        2       44       45       74       80 </v>
   <v type="int" >        2       39       45       74       75 </v>
   <v type="int" >        2       45       74       75       81 </v>
   <v type="int" >        2       45       74       80       81 </v>
   <v type="int" >        2       39       40       46       75 </v>
   <v type="int" >        2       39       45       46       75 </v>
   <v type="int" >        2       45       46       75       81 </v>
   <v type="int" >        2       40       46       75       76 </v>
   <v type="int" >        2       46       75       76       82 </v>
   <v type="int" >        2       46       75       81       82 </v>
   <v type="int" >        2       40       41       47       76 </v>
   <v type="int" >        2       40       46       47       76 </v>
   <v type="int" >        2       46       47       76       82 </v>
   <v type="int" >        2       41       47       76       77 </v>
   <v type="int" >        2       47       76       77       83 </v>
   <v type="int" >        2       47       76       82       83 </v>
   <v type="int" >        2       41       42       48       77 </v>
   <v type="int" >        2       41       47       48       77 </v>
   <v type="int" >        2       47       48       77       83 </v>
   <v type="int" >        2       42       48       77       78 </v>
   <v type="int" >        2       48       77       78       84 </v>
   <v type="int" >        2       48       77       83       84 </v>
   <v type="int" >        2       37       42       43       78 </v>
   <v type="int" >        2       42       43       48       78 </v>
   <v type="int" >        2       43       48       78       84 </v>
   <v type="int" >        2       37       43       73       78 </v>
   <v type="int" >        2       43       73       78       79 </v>
   <v type="int" >        2       43       78       79       84 </v>
   <v type="int" >        2       43       44       50       79 </v>
   <v type="int" >        2       43       49       50       79 </v>
   <v type="int" >        2       49       50       79       85 </v>
   <v type="int" >        2       44       50       79       80 </v>
   <v type="int" >        2       50       79       80       86 </v>
   <v type="int" >        2       50       79       85       86 </v>
   <v type="int" >        2       44       45       51       80 </v>
   <v type="int" >        2       44       50       51       80 </v>
   <v type="int" >        2       50       51       80       86 </v>
   <v type="int" >        2       45       51       80       81 </v>
   <v type="int" >        2       51       80       81       87 </v>
   <v type="int" >        2       51       80       86       87 </v>
   <v type="int" >        2       45       46       52       81 </v>
   <v type="int" >        2       45       51       52       81 </v>
   <v type="int" >        2       51       52       81       87 </v>
   <v type="int" >        2       46       52       81       82 </v>
   <v type="int" >        2       52       81       82       88 </v>
   <v type="int" >        2       52       81       87       88 </v>
   <v type="int" >        2       46       47       53       82 </v>
   <v type="int" >        2       46       52       53       82 </v>
   <v type="int" >        2       52       53       82       88 </v>
   <v type="int" >        2       47       53       82       83 </v>
   <v type="int" >        2       53       82       83       89 </v>
   <v type="int" >        2       53       82       88       89 </v>
   <v type="int" >        2       47       48       54       83 </v>
   <v type="int" >        2       47       53       54       83 </v>
   <v type="int" >        2       53       54       83       89 </v>
   <v type="int" >        2       48       54       83       84 </v>
   <v type="int" >        2       54       83       84       90 </v>
   <v type="int" >        2       54       83       89       90 </v>
   <v type="int" >        2       43       48       49       84 </v>
   <v type="int" >        2       48       49       54       84 </v>
   <v type="int" >        2       49       54       84       90 </v>
   <v type="int" >        2       43       49       79       84 </v>
   <v type="int" >        2       49       79       84       85 </v>
   <v type="int" >        2       49       84       85       90 </v>
   <v type="int" >        2       49       50       56       85 </v>
   <v type="int" >        2       49       55       56       85 </v>
   <v type="int" >        2       55       56       85       91 </v>
   <v type="int" >        2       50       56       85       86 </v>
   <v type="int" >        2       56       85       86       92 </v>
   <v type="int" >        2       56       85       91       92 </v>
   <v type="int" >        2       50       51       57       86 </v>
   <v type="int" >        2       50       56       57       86 </v>
   <v type="int" >        2       56       57       86       92 </v>
   <v type="int" >        2       51       57       86       87 </v>
   <v type="int" >        2       57       86       87       93 </v>
   <v type="int" >        2       57       86       92       93 </v>
   <v type="int" >        2       51       52       58       87 </v>
   <v type="int" >        2       51       57       58       87 </v>
   <v type="int" >        2       57       58       87       93 </v>
   <v type="int" >        2       52       58       87       88 </v>
   <v type="int" >        2       58       87       88       94 </v>
   <v type="int" >        2       58       87       93       94 </v>
   <v type="int" >        2       52       53       59       88 </v>
   <v type="int" >        2       52       58       59       88 </v>
   <v type="int" >        2       58       59       88       94 </v>
   <v type="int" >        2       53       59       88       89 </v>
   <v type="int" >        2       59       88       89       95 </v>
   <v type="int" >        2       59       88       94       95 </v>
   <v type="int" >        2       53       54       60       89 </v>
   <v type="int" >        2       53       59       60       89 </v>
   <v type="int" >        2       59       60       89       95 </v>
   <v type="int" >        2       54       60       89       90 </v>
   <v type="int" >        2       60       89       90       96 </v>
   <v type="int" >        2       60       89       95       96 </v>
   <v type="int" >        2       49       54       55       90 </v>
   <v type="int" >        2       54       55       60       90 </v>
   <v type="int" >        2       55       60       90       96 </v>
   <v type="int" >        2       49       55       85       90 </v>
   <v type="int" >        2       55       85       90       91 </v>
   <v type="int" >        2       55       90       91       96 </v>
   <v type="int" >        2       55       56       62       91 </v>
   <v type="int" >        2       55       61       62       91 </v>
   <v type="int" >        2       61       62       91       97 </v>
   <v type="int" >        2       56       62       91       92 </v>
   <v type="int" >        2       62       91       92       98 </v>
   <v type="int" >        2       62       91       97       98 </v>
   <v type="int" >        2       56       57       63       92 </v>
   <v type="int" >        2       56       62       63       92 </v>
   <v type="int" >        2       62       63       92       98 </v>
   <v type="int" >        2       57       63       92       93 </v>
   <v type="int" >        2       63       92       93       99 </v>
   <v type="int" >        2       63       92       98       99 </v>
   <v type="int" >        2       57       58       64       93 </v>
   <v type="int" >        2       57       63       64       93 </v>
   <v type="int" >        2       63       64       93       99 </v>
   <v type="int" >        2       58       64       93       94 </v>
   <v type="int" >        2       64       93       94      100 </v>
   <v type="int" >        2       64       93       99      100 </v>
   <v type="int" >        2       58       59       65       94 </v>
   <v type="int" >        2       58       64       65       94 </v>
   <v type="int" >        2       64       65       94      100 </v>
   <v type="int" >        2       59       65       94       95 </v>
   <v type="int" >        2       65       94       95      101 </v>
   <v type="int" >        2       65       94      100      101 </v>
   <v type="int" >        2       59       60       66       95 </v>
   <v type="int" >        2       59       65       66       95 </v>
   <v type="int" >        2       65       66       95      101 </v>
   <v type="int" >        2       60       66       95       96 </v>
   <v type="int" >        2       66       95       96      102 </v>
   <v type="int" >        2       66       95      101      102 </v>
   <v type="int" >        2       55       60       61       96 </v>
   <v type="int" >        2       60       61       66       96 </v>
   <v type="int" >        2       61       66       96      102 </v>
   <v type="int" >        2       55       61       91       96 </v>
   <v type="int" >        2       61       91       96       97 </v>
   <v type="int" >        2       61       96       97      102 </v>
   <v type="int" >        2       61       62       68       97 </v>
   <v type="int" >        2       61       67       68       97 </v>
   <v type="int" >        2       67       68       97      103 </v>
   <v type="int" >        2       62       68       97       98 </v>
   <v type="int" >        2       68       97       98      104 </v>
   <v type="int" >        2       68       97      103      104 </v>
   <v type="int" >        2       62       63       69       98 </v>
   <v type="int" >        2       62       68       69       98 </v>
   <v type="int" >        2       68       69       98      104 </v>
   <v type="int" >        2       63       69       98       99 </v>
   <v type="int" >        2       69       98       99      105 </v>
   <v type="int" >        2       69       98      104      105 </v>
   <v type="int" >        2       63       64       70       99 </v>
   <v type="int" >        2       63       69       70       99 </v>
   <v type="int" >        2       69       70       99      105 </v>
   <v type="int" >        2       64       70       99      100 </v>
   <v type="int" >        2       70       99      100      106 </v>
   <v type="int" >        2       70       99      105      106 </v>
   <v type="int" >        2       64       65       71      100 </v>
   <v type="int" >        2       64       70       71      100 </v>
   <v type="int" >        2       70       71      100      106 </v>
   <v type="int" >        2       65       71      100      101 </v>
   <v type="int" >        2       71      100      101      107 </v>
   <v type="int" >        2       71      100      106      107 </v>
   <v type="int" >        2       65       66       72      101 </v>
   <v type="int" >        2       65       71       72      101 </v>
   <v type="int" >        2       71       72      101      107 </v>
   <v type="int" >        2       66       72      101      102 </v>
   <v type="int" >        2       72      101      102      108 </v>
   <v type="int" >        2       72      101      107      108 </v>
   <v type="int" >        2       61       66       67      102 </v>
   <v type="int" >        2       66       67       72      102 </v>
   <v type="int" >        2       67       72      102      108 </v>
   <v type="int" >        2       61       67       97      102 </v>
   <v type="int" >        2       67       97      102      103 </v>
   <v type="int" >        2       67      102      103      108 </v>
   <v type="int" >        2       38       67       68      103 </v>
   <v type="int" >        2       37       38       67      103 </v>
   <v type="int" >        2       37       38       73      103 </v>
   <v type="int" >        2       38       68      103      104 </v>
   <v type="int" >        2       38       74      103      104 </v>
   <v type="int" >        2       38       73       74      103 </v>
   <v type="int" >        2       39       68       69      104 </v>
   <v type="int" >        2       38       39       68      104 </v>
   <v type="int" >        2       38       39       74      104 </v>
   <v type="int" >        2       39       69      104      105 </v>
   <v type="int" >        2       39       75      104      105 </v>
   <v type="int" >        2       39       74       75      104 </v>
   <v type="int" >        2       40       69       70      105 </v>
   <v type="int" >        2       39       40       69      105 </v>
   <v type="int" >        2       39       40       75      105 </v>
   <v type="int" >        2       40       70      105      106 </v>
   <v type="int" >        2       40       76      105      106 </v>
   <v type="int" >        2       40       75       76      105 </v>
   <v type="int" >        2       41       70       71      106 </v>
   <v type="int" >        2       40       41       70      106 </v>
   <v type="int" >        2       40       41       76      106 </v>
   <v type="int" >        2       41       71      106      107 </v>
   <v type="int" >        2       41       77      106      107 </v>
   <v type="int" >        2       41       76       77      106 </v>
   <v type="int" >        2       42       71       72      107 </v>
   <v type="int" >        2       41       42       71      107 </v>
   <v type="int" >        2       41       42       77      107 </v>
   <v type="int" >        2       42       72      107      108 </v>
   <v type="int" >        2       42       78      107      108 </v>
   <v type="int" >        2       42       77       78      107 </v>
   <v type="int" >        2       37       67       72      108 </v>
   <v type="int" >        2       37       42       72      108 </v>
   <v type="int" >        2       37       42       78      108 </v>
   <v type="int" >        2       37       67      103      108 </v>
   <v type="int" >        2       37       73      103      108 </v>
   <v type="int" >        2       37       73       78      108 </v>
   <v type="int" >        2       73       74       80      108 </v>
   <v type="int" >        2       73       79       80      108 </v>
   <v type="int" >        2       79       80      102      108 </v>
   <v type="int" >        2       74       80      107      108 </v>
   <v type="int" >        2       80      101      107      108 </v>
   <v type="int" >        2       80      101      102      108 </v>
   <v type="int" >        2       74       75       81      107 </v>
   <v type="int" >        2       74       80       81      107 </v>
   <v type="int" >        2       80       81      101      107 </v>
   <v type="int" >        2       75       81      106      107 </v>
   <v type="int" >        2       81      100      106      107 </v>
   <v type="int" >        2       81      100      101      107 </v>
   <v type="int" >        2       75       76       82      106 </v>
   <v type="int" >        2       75       81       82      106 </v>
   <v type="int" >        2       81       82      100      106 </v>
   <v type="int" >        2       76       82      105      106 </v>
   <v type="int" >        2       82       99      105      106 </v>
   <v type="int" >        2       82       99      100      106 </v>
   <v type="int" >        2       76       77       83      105 </v>
   <v type="int" >        2       76       82       83      105 </v>
   <v type="int" >        2       82       83       99      105 </v>
   <v type="int" >        2       77       83      104      105 </v>
   <v type="int" >        2       83       98      104      105 </v>
   <v type="int" >        2       83       98       99      105 </v>
   <v type="int" >        2       77       78       84      104 </v>
   <v type="int" >        2       77       83       84      104 </v>
   <v type="int" >        2       83       84       98      104 </v>
   <v type="int" >        2       78       84      103      104 </v>
   <v type="int" >        2       84       97      103      104 </v>
   <v type="int" >        2       84       97       98      104 </v>
   <v type="int" >        2       73       78       79      103 </v>
   <v type="int" >        2       78       79       84      103 </v>
   <v type="int" >        2       79       84       97      103 </v>
   <v type="int" >        2       73       79      103      108 </v>
   <v type="int" >        2       79      102      103      108 </v>
   <v type="int" >        2       79       97      102      103 </v>
   <v type="int" >        2       79       80       86      102 </v>
   <v type="int" >        2       79       85       86      102 </v>
   <v type="int" >        2       85       86       96      102 </v>
   <v type="int" >        2       80       86      101      102 </v>
   <v type="int" >        2       86       95      101      102 </v>
   <v type="int" >        2       86       95       96      102 </v>
   <v type="int" >        2       80       81       87      101 </v>
   <v type="int" >        2       80       86       87      101 </v>
   <v type="int" >        2       86       87       95      101 </v>
   <v type="int" >        2       81       87      100      101 </v>
   <v type="int" >        2       87       94      100      101 </v>
   <v type="int" >        2       87       94       95      101 </v>
   <v type="int" >        2       81       82       88      100 </v>
   <v type="int" >        2       81       87       88      100 </v>
   <v type="int" >        2       87       88       94      100 </v>
   <v type="int" >        2       82       88       99      100 </v>
   <v type="int" >        2       88       93       99      100 </v>
   <v type="int" >        2       88       93       94      100 </v>
   <v type="int" >        2       82       83       89       99 </v>
   <v type="int" >        2       82       88       89       99 </v>
   <v type="int" >        2       88       89       93       99 </v>
   <v type="int" >        2       83       89       98       99 </v>
   <v type="int" >        2       89       92       98       99 </v>
   <v type="int" >        2       89       92       93       99 </v>
   <v type="int" >        2       83       84       90       98 </v>
   <v type="int" >        2       83       89       90       98 </v>
   <v type="int" >        2       89       90       92       98 </v>
   <v type="int" >        2       84       90       97       98 </v>
   <v type="int" >        2       90       91       97       98 </v>
   <v type="int" >        2       90       91       92       98 </v>
   <v type="int" >        2       79       84       85       97 </v>
   <v type="int" >        2       84       85       90       97 </v>
   <v type="int" >        2       85       90       91       97 </v>
   <v type="int" >        2       79       85       97      102 </v>
   <v type="int" >        2       85       96       97      102 </v>
   <v type="int" >        2       85       91       96       97 </v>
   <v type="int" >        2       85       86       92       96 </v>
   <v type="int" >        2       85       91       92       96 </v>
   <v type="int" >        2       90       91       92       96 </v>
   <v type="int" >        2       86       92       95       96 </v>
   <v type="int" >        2       89       92       95       96 </v>
   <v type="int" >        2       89       90       92       96 </v>
   <v type="int" >        2       86       87       93       95 </v>
   <v type="int" >        2       86       92       93       95 </v>
   <v type="int" >        2       89       92       93       95 </v>
   <v type="int" >        2       87       93       94       95 </v>
   <v type="int" >        2       88       93       94       95 </v>
   <v type="int" >        2       88       89       93       95 </v>
   <v type="int" >        2       87       88       94       94 </v>
   <v type="int" >        2       87       93       94       94 </v>
   <v type="int" >        2       88       93       94       94 </v>
   <v type="int" >        2       85       90       91       91 </v>
   <v type="int" >        2       90       91       91       96 </v>
   <v type="int" >        2       85       91       91       96 </v>
   <v type="int" >        2       74       78      103      104 </v>
   <v type="int" >        2       73       74       78      103 </v>
   <v type="int" >        2       73       74       78      108 </v>
   <v type="int" >        2       74       77       78      104 </v>
   <v type="int" >        2       74       77       78      107 </v>
   <v type="int" >        2       74       78      107      108 </v>
   <v type="int" >        2       75       77      104      105 </v>
   <v type="int" >        2       74       75       77      104 </v>
   <v type="int" >        2       74       75       77      107 </v>
   <v type="int" >        2       75       76       77      105 </v>
   <v type="int" >        2       75       76       77      106 </v>
   <v type="int" >        2       75       77      106      107 </v>
   <v type="int" >        2       76       76      105      106 </v>
   <v type="int" >        2       75       76       76      105 </v>
   <v type="int" >        2       75       76       76      106 </v>
   <v type="int" >        2       73       73      103      108 </v>
   <v type="int" >        2       73       73       78      108 </v>
   <v type="int" >        2       73       73       78      103 </v>
   <v type="int" >        2        1       29       35       36 </v>
   <v type="int" >        2        1       29       30       36 </v>
   <v type="int" >        2        1        7       29       30 </v>
   <v type="int" >        2        1        2       29       35 </v>
   <v type="int" >        2        1        2        8       29 </v>
   <v type="int" >        2        1        7        8       29 </v>
   <v type="int" >        2        2       28       34       35 </v>
   <v type="int" >        2        2       28       29       35 </v>
   <v type="int" >        2        2        8       28       29 </v>
   <v type="int" >        2        2        3       28       34 </v>
   <v type="int" >        2        2        3        9       28 </v>
   <v type="int" >        2        2        8        9       28 </v>
   <v type="int" >        2        3       27       33       34 </v>
   <v type="int" >        2        3       27       28       34 </v>
   <v type="int" >        2        3        9       27       28 </v>
   <v type="int" >        2        3        4       27       33 </v>
   <v type="int" >        2        3        4       10       27 </v>
   <v type="int" >        2        3        9       10       27 </v>
   <v type="int" >        2        4       26       32       33 </v>
   <v type="int" >        2        4       26       27       33 </v>
   <v type="int" >        2        4       10       26       27 </v>
   <v type="int" >        2        4        5       26       32 </v>
   <v type="int" >        2        4        5       11       26 </v>
   <v type="int" >        2        4       10       11       26 </v>
   <v type="int" >        2        5       25       31       32 </v>
   <v type="int" >        2        5       25       26       32 </v>
   <v type="int" >        2        5       11       25       26 </v>
   <v type="int" >        2        5        6       25       31 </v>
   <v type="int" >        2        5        6       12       25 </v>
   <v type="int" >        2        5       11       12       25 </v>
   <v type="int" >        2        6       30       31       36 </v>
   <v type="int" >        2        6       25       30       31 </v>
   <v type="int" >        2        6       12       25       30 </v>
   <v type="int" >        2        1        6       30       36 </v>
   <v type="int" >        2        1        6        7       30 </v>
   <v type="int" >        2        6        7       12       30 </v>
   <v type="int" >        2        7       23       29       30 </v>
   <v type="int" >        2        7       23       24       30 </v>
   <v type="int" >        2        7       13       23       24 </v>
   <v type="int" >        2        7        8       23       29 </v>
   <v type="int" >        2        7        8       14       23 </v>
   <v type="int" >        2        7       13       14       23 </v>
   <v type="int" >        2        8       22       28       29 </v>
   <v type="int" >        2        8       22       23       29 </v>
   <v type="int" >        2        8       14       22       23 </v>
   <v type="int" >        2        8        9       22       28 </v>
   <v type="int" >        2        8        9       15       22 </v>
   <v type="int" >        2        8       14       15       22 </v>
   <v type="int" >        2        9       21       27       28 </v>
   <v type="int" >        2        9       21       22       28 </v>
   <v type="int" >        2        9       15       21       22 </v>
   <v type="int" >        2        9       10       21       27 </v>
   <v type="int" >        2        9       10       16       21 </v>
   <v type="int" >        2        9       15       16       21 </v>
   <v type="int" >        2       10       20       26       27 </v>
   <v type="int" >        2       10       20       21       27 </v>
   <v type="int" >        2       10       16       20       21 </v>
   <v type="int" >        2       10       11       20       26 </v>
   <v type="int" >        2       10       11       17       20 </v>
   <v type="int" >        2       10       16       17       20 </v>
   <v type="int" >        2       11       19       25       26 </v>
   <v type="int" >        2       11       19       20       26 </v>
   <v type="int" >        2       11       17       19       20 </v>
   <v type="int" >        2       11       12       19       25 </v>
   <v type="int" >        2       11       12       18       19 </v>
   <v type="int" >        2       11       17       18       19 </v>
   <v type="int" >        2       12       24       25       30 </v>
   <v type="int" >        2       12       19       24       25 </v>
   <v type="int" >        2       12       18       19       24 </v>
   <v type="int" >        2        7       12       24       30 </v>
   <v type="int" >        2        7       12       13       24 </v>
   <v type="int" >        2       12       13       18       24 </v>
   <v type="int" >        2       13       17       23       24 </v>
   <v type="int" >        2       13       17       18       24 </v>
   <v type="int" >        2       13       17       18       19 </v>
   <v type="int" >        2       13       14       17       23 </v>
   <v type="int" >        2       13       14       17       20 </v>
   <v type="int" >        2       13       17       19       20 </v>
   <v type="int" >        2       14       16       22       23 </v>
   <v type="int" >        2       14       16       17       23 </v>
   <v type="int" >        2       14       16       17       20 </v>
   <v type="int" >        2       14       15       16       22 </v>
   <v type="int" >        2       14       15       16       21 </v>
   <v type="int" >        2       14       16       20       21 </v>
   <v type="int" >        2       15       15       21       22 </v>
   <v type="int" >        2       15       15       16       22 </v>
   <v type="int" >        2       15       15       16       21 </v>
   <v type="int" >        2       18       18       19       24 </v>
   <v type="int" >        2       13       18       18       19 </v>
   <v type="int" >        2       13       18       18       24 </v>
   <v type="int" >        2        5        6       31       35 </v>
   <v type="int" >        2        6       31       35       36 </v>
   <v type="int" >        2        1       31       35       36 </v>
   <v type="int" >        2        5       31       32       35 </v>
   <v type="int" >        2        2       31       32       35 </v>
   <v type="int" >        2        1        2       31       35 </v>
   <v type="int" >        2        4        5       32       34 </v>
   <v type="int" >        2        5       32       34       35 </v>
   <v type="int" >        2        2       32       34       35 </v>
   <v type="int" >        2        4       32       33       34 </v>
   <v type="int" >        2        3       32       33       34 </v>
   <v type="int" >        2        2        3       32       34 </v>
   <v type="int" >        2        3        4       33       33 </v>
   <v type="int" >        2        4       33       33       34 </v>
   <v type="int" >        2        3       33       33       34 </v>
   <v type="int" >        2        1        6       36       36 </v>
   <v type="int" >        2        1       31       36       36 </v>
   <v type="int" >        2        6       31       36       36 </v>
  </varray>
  <i name="volumeweight">      0.00077160 </i>
 </kpoints>
 <parameters>
  <separator name="general" >
   <i type="string" name="SYSTEM">unknown system</i>
   <i type="logical" name="LCOMPAT"> F  </i>
  </separator>
  <separator name="electronic" >
   <i type="string" name="PREC">accura</i>
   <i name="ENMAX">    520.00000000</i>
   <i name="ENAUG">    412.49600000</i>
   <i name="EDIFF">      0.00020000</i>
   <i type="int" name="IALGO">    68</i>
   <i type="int" name="IWAVPR">    11</i>
   <i type="int" name="NBANDS">    32</i>
   <i name="NELECT">     44.00000000</i>
   <i type="int" name="TURBO">     0</i>
   <i type="int" name="IRESTART">     0</i>
   <i type="int" name="NREBOOT">     0</i>
   <i type="int" name="NMIN">     0</i>
   <i name="EREF">      0.00000000</i>
   <separator name="electronic smearing" >
    <i type="int" name="ISMEAR">    -5</i>
    <i name="SIGMA">      0.05000000</i>
    <i name="KSPACING">      0.50000000</i>
    <i type="logical" name="KGAMMA"> T  </i>
   </separator>
   <separator name="electronic projectors" >
    <i type="logical" name="LREAL"> T  </i>
    <v name="ROPT">     -0.00025000</v>
    <i type="int" name="LMAXPAW">  -100</i>
    <i type="int" name="LMAXMIX">     2</i>
    <i type="logical" name="NLSPLINE"> F  </i>
   </separator>
   <separator name="electronic startup" >
    <i type="int" name="ISTART">     0</i>
    <i type="int" name="ICHARG">     1</i>
    <i type="int" name="INIWAV">     1</i>
   </separator>
   <separator name="electronic spin" >
    <i type="int" name="ISPIN">     2</i>
    <i type="logical" name="LNONCOLLINEAR"> F  </i>
    <v name="MAGMOM">      0.60000000      0.60000000      0.60000000      0.60000000</v>
    <i name="NUPDOWN">     -1.00000000</i>
    <i type="logical" name="LSORBIT"> F  </i>
    <v name="SAXIS">      0.00000000      0.00000000      1.00000000</v>
    <i type="logical" name="LSPIRAL"> F  </i>
    <v name="QSPIRAL">      0.00000000      0.00000000      0.00000000</v>
    <i type="logical" name="LZEROZ"> F  </i>
   </separator>
   <separator name="electronic exchange-correlation" >
    <i type="logical" name="LASPH"> F  </i>
    <i type="logical" name="LMETAGGA"> F  </i>
   </separator>
   <separator name="electronic convergence" >
    <i type="int" name="NELM">   100</i>
    <i type="int" name="NELMDL">    -5</i>
    <i type="int" name="NELMIN">     2</i>
    <i name="ENINI">    520.00000000</i>
    <separator name="electronic convergence detail" >
     <i type="logical" name="LDIAG"> T  </i>
     <i type="logical" name="LSUBROT"> F  </i>
     <i name="WEIMIN">      0.00100000</i>
     <i name="EBREAK">      0.00000156</i>
     <i name="DEPER">      0.30000000</i>
     <i type="int" name="NRMM">     4</i>
     <i name="TIME">      0.40000000</i>
    </separator>
   </separator>
   <separator name="electronic mixer" >
    <i name="AMIX">      0.40000000</i>
    <i name="BMIX">      1.00000000</i>
    <i name="AMIN">      0.10000000</i>
    <i name="AMIX_MAG">      1.60000000</i>
    <i name="BMIX_MAG">      1.00000000</i>
    <separator name="electronic mixer details" >
     <i type="int" name="IMIX">     4</i>
     <i type="logical" name="MIXFIRST"> F  </i>
     <i type="int" name="MAXMIX">   -45</i>
     <i name="WC">    100.00000000</i>
     <i type="int" name="INIMIX">     1</i>
     <i type="int" name="MIXPRE">     1</i>
     <i type="int" name="MREMOVE">     5</i>
    </separator>
   </separator>
   <separator name="electronic dipolcorrection" >
    <i type="logical" name="LDIPOL"> F  </i>
    <i type="logical" name="LMONO"> F  </i>
    <i type="int" name="IDIPOL">     0</i>
    <i name="EPSILON">      1.00000000</i>
    <v name="DIPOL">   -100.00000000   -100.00000000   -100.00000000</v>
    <i name="EFIELD">      0.00000000</i>
   </separator>
  </separator>
  <separator name="grids" >
   <i type="int" name="NGX">    32</i>
   <i type="int" name="NGY">    32</i>
   <i type="int" name="NGZ">    32</i>
   <i type="int" name="NGXF">    64</i>
   <i type="int" name="NGYF">    64</i>
   <i type="int" name="NGZF">    64</i>
   <i type="logical" name="ADDGRID"> F  </i>
  </separator>
  <separator name="ionic" >
   <i type="int" name="NSW">     2</i>
   <i type="int" name="IBRION">     2</i>
   <i type="int" name="ISIF">     0</i>
   <i name="PSTRESS">      0.00000000</i>
   <i name="EDIFFG">      0.00200000</i>
   <i type="int" name="NFREE">     1</i>
   <i name="POTIM">      0.50000000</i>
   <i name="SMASS">     -3.00000000</i>
   <i name="SCALEE">      1.00000000</i>
  </separator>
  <separator name="ionic md" >
   <i name="TEBEG">      0.00010000</i>
   <i name="TEEND">      0.00010000</i>
   <i type="int" name="NBLOCK">     1</i>
   <i type="int" name="KBLOCK">     2</i>
   <i type="int" name="NPACO">   256</i>
   <i name="APACO">     16.00000000</i>
  </separator>
  <separator name="symmetry" >
   <i type="int" name="ISYM">     2</i>
   <i name="SYMPREC">      0.00001000</i>
  </separator>
  <separator name="dos" >
   <i type="logical" name="LORBIT"> F  </i>
   <v name="RWIGS">     -1.00000000</v>
   <i type="int" name="NEDOS">   301</i>
   <i name="EMIN">     10.00000000</i>
   <i name="EMAX">    -10.00000000</i>
   <i name="EFERMI">      0.00000000</i>
  </separator>
  <separator name="writing" >
   <i type="int" name="NWRITE">     2</i>
   <i type="logical" name="LWAVE"> F  </i>
   <i type="logical" name="LCHARG"> T  </i>
   <i type="logical" name="LPARD"> F  </i>
   <i type="logical" name="LVTOT"> F  </i>
   <i type="logical" name="LVHAR"> F  </i>
   <i type="logical" name="LELF"> F  </i>
   <i type="logical" name="LOPTICS"> F  </i>
   <v name="STM">      0.00000000      0.00000000      0.00000000      0.00000000      0.00000000      0.00000000      0.00000000</v>
  </separator>
  <separator name="performance" >
   <i type="int" name="NPAR">    16</i>
   <i type="int" name="NSIM">     4</i>
   <i type="int" name="NBLK">    -1</i>
   <i type="logical" name="LPLANE"> T  </i>
   <i type="logical" name="LSCALAPACK"> F  </i>
   <i type="logical" name="LSCAAWARE"> F  </i>
   <i type="logical" name="LSCALU"> F  </i>
   <i type="logical" name="LASYNC"> F  </i>
   <i type="logical" name="LORBITALREAL"> F  </i>
  </separator>
  <separator name="miscellaneous" >
   <i type="int" name="IDIOT">     3</i>
   <i type="logical" name="LMUSIC"> F  </i>
   <v name="POMASS">    107.86800000</v>
   <v name="DARWINR">      0.00000000</v>
   <v name="DARWINV">      1.00000000</v>
   <i type="logical" name="LCORR"> T  </i>
  </separator>
  <i type="logical" name="GGA_COMPAT"> T  </i>
  <i type="logical" name="LBERRY"> F  </i>
  <i type="int" name="ICORELEVEL">     0</i>
  <i type="logical" name="LDAU"> F  </i>
  <i type="int" name="I_CONSTRAINED_M">     0</i>
  <separator name="electronic exchange-correlation" >
   <i type="string" name="GGA">--</i>
   <i type="int" name="VOSKOWN">     0</i>
   <i type="logical" name="LHFCALC"> F  </i>
   <i type="string" name="PRECFOCK"></i>
   <i type="logical" name="LSYMGRAD"> F  </i>
   <i type="logical" name="LHFONE"> F  </i>
   <i type="logical" name="LRHFCALC"> F  </i>
   <i type="logical" name="LTHOMAS"> F  </i>
   <i type="logical" name="LMODELHF"> F  </i>
   <i name="ENCUT4O">     -1.00000000</i>
   <i type="int" name="EXXOEP">     0</i>
   <i type="int" name="FOURORBIT">     0</i>
   <i name="AEXX">      0.00000000</i>
   <i name="HFALPHA">      0.00000000</i>
   <i name="MCALPHA">      0.00000000</i>
   <i name="ALDAX">      1.00000000</i>
   <i name="AGGAX">      1.00000000</i>
   <i name="ALDAC">      1.00000000</i>
   <i name="AGGAC">      1.00000000</i>
   <i type="int" name="NKREDX">     1</i>
   <i type="int" name="NKREDY">     1</i>
   <i type="int" name="NKREDZ">     1</i>
   <i type="logical" name="SHIFTRED"> F  </i>
   <i type="logical" name="ODDONLY"> F  </i>
   <i type="logical" name="EVENONLY"> F  </i>
   <i type="int" name="LMAXFOCK">     0</i>
   <i type="int" name="NMAXFOCKAE">     0</i>
   <i type="logical" name="LFOCKAEDFT"> F  </i>
   <i name="HFSCREEN">      0.00000000</i>
   <i name="HFSCREENC">      0.00000000</i>
   <i type="int" name="NBANDSGWLOW">     0</i>
  </separator>
  <separator name="vdW DFT" >
   <i type="logical" name="LUSE_VDW"> F  </i>
   <i name="Zab_VDW">     -0.84910000</i>
   <i name="PARAM1">      0.12340000</i>
   <i name="PARAM2">      1.00000000</i>
   <i name="PARAM3">      0.00000000</i>
  </separator>
  <separator name="model GW" >
   <i type="int" name="MODEL_GW">     0</i>
   <i name="MODEL_EPS0">     10.80297031</i>
   <i name="MODEL_ALPHA">      1.00000000</i>
  </separator>
  <separator name="linear response parameters" >
   <i type="logical" name="LEPSILON"> F  </i>
   <i type="logical" name="LRPA"> F  </i>
   <i type="logical" name="LNABLA"> F  </i>
   <i type="logical" name="LVEL"> F  </i>
   <i type="int" name="KINTER">     0</i>
   <i name="CSHIFT">      0.10000000</i>
   <i name="OMEGAMAX">     -1.00000000</i>
   <i name="DEG_THRESHOLD">      0.00200000</i>
  </separator>
  <separator name="orbital magnetization" >
   <i type="logical" name="NUCIND"> F  </i>
   <v name="MAGPOS">      0.00000000      0.00000000      0.00000000</v>
   <i type="logical" name="LNICSALL"> T  </i>
   <i type="logical" name="ORBITALMAG"> F  </i>
   <i type="logical" name="LMAGBLOCH"> F  </i>
   <i type="logical" name="LCHIMAG"> F  </i>
   <i type="logical" name="LGAUGE"> T  </i>
   <i type="int" name="MAGATOM">     0</i>
   <v name="MAGDIPOL">      0.00000000      0.00000000      0.00000000</v>
   <v name="AVECCONST">      0.00000000      0.00000000      0.00000000</v>
  </separator>
  <separator name="response functions" >
   <i type="logical" name="LADDER"> F  </i>
   <i type="logical" name="LFXC"> F  </i>
   <i type="logical" name="LHARTREE"> T  </i>
   <i type="int" name="IBSE">     0</i>
   <v type="int" name="KPOINT">    -1     0     0     0</v>
   <i type="logical" name="LTCTE"> F  </i>
   <i type="logical" name="LTETE"> F  </i>
   <i type="logical" name="LTRIPLET"> F  </i>
   <i type="logical" name="LFXCEPS"> F  </i>
   <i type="logical" name="LFXHEG"> F  </i>
   <i type="int" name="NATURALO">     0</i>
   <i type="logical" name="L2ORDER"> F  </i>
   <i type="logical" name="LUSEW"> F  </i>
   <i name="ENCUTGW">     -2.00000000</i>
   <i name="ENCUTGWSOFT">     -2.00000000</i>
   <i name="ENCUTLF">     -1.00000000</i>
   <i type="int" name="LMAXMP2">    -1</i>
   <i name="SCISSOR">      0.00000000</i>
   <i type="int" name="NOMEGA">     0</i>
   <i type="int" name="NOMEGAR">     0</i>
   <i type="int" name="NBANDSGW">    -1</i>
   <i type="int" name="NBANDSO">    -1</i>
   <i type="int" name="NBANDSV">    -1</i>
   <i type="int" name="NELM">   100</i>
   <i type="int" name="NELMHF">     1</i>
   <i type="int" name="DIM">     3</i>
   <i type="int" name="ANTIRES">     0</i>
   <i name="OMEGAMAX">    -30.00000000</i>
   <i name="OMEGAMIN">    -30.00000000</i>
   <i name="OMEGATL">   -200.00000000</i>
   <i type="int" name="OMEGAGRID">     0</i>
   <i name="CSHIFT">     -0.10000000</i>
   <i type="logical" name="SELFENERGY"> F  </i>
   <i type="logical" name="LSPECTRAL"> F  </i>
   <i type="logical" name="LSPECTRALGW"> F  </i>
   <i type="logical" name="LSINGLES"> F  </i>
   <i type="logical" name="LFERMIGW"> F  </i>
   <i type="logical" name="ODDONLYGW"> F  </i>
   <i type="logical" name="EVENONLYGW"> F  </i>
   <i type="int" name="NKREDLFX">     1</i>
   <i type="int" name="NKREDLFY">     1</i>
   <i type="int" name="NKREDLFZ">     1</i>
   <i type="int" name="MAXMEM">  1800</i>
   <i type="int" name="TELESCOPE">     0</i>
   <i type="int" name="TAUPAR">     1</i>
   <i type="int" name="OMEGAPAR">    -1</i>
   <i name="LAMBDA">      1.00000000</i>
  </separator>
  <separator name="External order field" >
   <i name="OFIELD_KAPPA">      0.00000000</i>
   <v name="OFIELD_K">      0.00000000      0.00000000      0.00000000</v>
   <i name="OFIELD_Q6_NEAR">      0.00000000</i>
   <i name="OFIELD_Q6_FAR">      0.00000000</i>
   <i name="OFIELD_A">      0.00000000</i>
  </separator>
 </parameters>
 <atominfo>
  <atoms>       4 </atoms>
  <types>       1 </types>
  <array name="atoms" >
   <dimension dim="1">ion</dimension>
   <field type="string">element</field>
   <field type="int">atomtype</field>
   <set>
    <rc><c>Ag</c><c>   1</c></rc>
    <rc><c>Ag</c><c>   1</c></rc>
    <rc><c>Ag</c><c>   1</c></rc>
    <rc><c>Ag</c><c>   1</c></rc>
   </set>
  </array>
  <array name="atomtypes" >
   <dimension dim="1">type</dimension>
   <field type="int">atomspertype</field>
   <field type="string">element</field>
   <field>mass</field>
   <field>valence</field>
   <field type="string">pseudopotential</field>
   <set>
    <rc><c>   4</c><c>Ag</c><c>    107.86800000</c><c>     11.00000000</c><c> PAW_PBE Ag 06Sep2000                   </c></rc>
   </set>
  </array>
 </atominfo>
 <structure name="initialpos" >
  <crystal>
   <varray name="basis" >
    <v>       4.16054900       0.00000000       0.00000000 </v>
    <v>       0.00000000       4.16054900       0.00000000 </v>
    <v>       0.00000000       0.00000000       4.16054900 </v>
   </varray>
   <i name="volume">     72.01980208 </i>
   <varray name="rec_basis" >
    <v>       0.24035290       0.00000000       0.00000000 </v>
    <v>       0.00000000       0.24035290       0.00000000 </v>
    <v>       0.00000000       0.00000000       0.24035290 </v>
   </varray>
  </crystal>
  <varray name="positions" >
   <v>       0.99127500       0.02201100       0.95816500 </v>
   <v>       0.98989900       0.45312100       0.50332700 </v>
   <v>       0.49104400       0.04713800       0.49707100 </v>
   <v>       0.54128300       0.47897600       0.98717500 </v>
  </varray>
 </structure>
 <calculation>
  <scstep>
   <time name="dav">    7.80    7.90</time>
   <time name="total">    7.94    8.05</time>
   <energy>
    <i name="alphaZ">    394.50862759 </i>
    <i name="ewald">  -3792.76975234 </i>
    <i name="hartreedc">   -887.08782669 </i>
    <i name="XCdc">    -42.94406513 </i>
    <i name="pawpsdc">   3482.54927299 </i>
    <i name="pawaedc">  -3296.95993904 </i>
    <i name="eentropy">      0.00000000 </i>
    <i name="bandstr">    325.25917515 </i>
    <i name="atom">   4149.63472583 </i>
    <i name="e_fr_energy">    332.19021837 </i>
    <i name="e_wo_entrp">    332.19021837 </i>
    <i name="e_0_energy">    332.19021837 </i>
   </energy>
  </scstep>
  <scstep>
   <time name="dav">    7.79    7.90</time>
   <time name="total">    7.89    8.00</time>
   <energy>
    <i name="e_fr_energy">     -5.49402637 </i>
    <i name="e_wo_entrp">     -5.49402637 </i>
    <i name="e_0_energy">     -5.49402637 </i>
   </energy>
  </scstep>
  <scstep>
   <time name="dav">   10.31   10.39</time>
   <time name="total">   10.40   10.48</time>
   <energy>
    <i name="e_fr_energy">    -11.32447585 </i>
    <i name="e_wo_entrp">    -11.32447585 </i>
    <i name="e_0_energy">    -11.32447585 </i>
   </energy>
  </scstep>
  <scstep>
   <time name="dav">    8.34    8.35</time>
   <time name="total">    8.43    8.44</time>
   <energy>
    <i name="e_fr_energy">    -11.33534164 </i>
    <i name="e_wo_entrp">    -11.33534164 </i>
    <i name="e_0_energy">    -11.33534164 </i>
   </energy>
  </scstep>
  <scstep>
   <time name="dav">   10.94   10.97</time>
   <time name="total">   11.44   11.47</time>
   <energy>
    <i name="e_fr_energy">    -11.33539005 </i>
    <i name="e_wo_entrp">    -11.33539005 </i>
    <i name="e_0_energy">    -11.33539005 </i>
   </energy>
  </scstep>
  <scstep>
   <time name="diag">    0.99    1.00</time>
   <time name="diis">    3.77    3.79</time>
   <time name="orth">    0.10    0.10</time>
   <time name="total">    5.40    5.43</time>
   <energy>
    <i name="e_fr_energy">    -10.69234114 </i>
    <i name="e_wo_entrp">    -10.69234114 </i>
    <i name="e_0_energy">    -10.69234114 </i>
   </energy>
  </scstep>
  <scstep>
   <time name="diag">    0.99    0.99</time>
   <time name="diis">    3.78    3.80</time>
   <time name="orth">    0.10    0.10</time>
   <time name="total">    5.40    5.43</time>
   <energy>
    <i name="e_fr_energy">    -10.67429083 </i>
    <i name="e_wo_entrp">    -10.67429083 </i>
    <i name="e_0_energy">    -10.67429083 </i>
   </energy>
  </scstep>
  <scstep>
   <time name="diag">    0.99    0.99</time>
   <time name="diis">    3.79    3.80</time>
   <time name="orth">    0.10    0.10</time>
   <time name="total">    5.41    5.42</time>
   <energy>
    <i name="e_fr_energy">    -10.66373675 </i>
    <i name="e_wo_entrp">    -10.66373675 </i>
    <i name="e_0_energy">    -10.66373675 </i>
   </energy>
  </scstep>
  <scstep>
   <time name="diag">    0.99    0.99</time>
   <time name="diis">    3.75    3.76</time>
   <time name="orth">    0.10    0.10</time>
   <time name="total">    5.38    5.39</time>
   <energy>
    <i name="e_fr_energy">    -10.66002058 </i>
    <i name="e_wo_entrp">    -10.66002058 </i>
    <i name="e_0_energy">    -10.66002058 </i>
   </energy>
  </scstep>
  <scstep>
   <time name="diag">    0.99    0.99</time>
   <time name="diis">    2.97    2.97</time>
   <time name="orth">    0.10    0.10</time>
   <time name="total">    4.59    4.61</time>
   <energy>
    <i name="e_fr_energy">    -10.65967224 </i>
    <i name="e_wo_entrp">    -10.65967224 </i>
    <i name="e_0_energy">    -10.65967224 </i>
   </energy>
  </scstep>
  <scstep>
   <time name="diag">    1.00    1.00</time>
   <time name="diis">    2.78    2.78</time>
   <time name="orth">    0.10    0.10</time>
   <time name="total">    4.00    4.01</time>
   <energy>
    <i name="alphaZ">    394.50862759 </i>
    <i name="ewald">  -3792.76975234 </i>
    <i name="hartreedc">   -840.85542764 </i>
    <i name="XCdc">    -44.77431064 </i>
    <i name="pawpsdc">   3488.99610175 </i>
    <i name="pawaedc">  -3312.82180177 </i>
    <i name="eentropy">      0.00000000 </i>
    <i name="bandstr">    -52.57779339 </i>
    <i name="atom">   4149.63472583 </i>
    <i name="e_fr_energy">    -10.65963060 </i>
    <i name="e_wo_entrp">    -10.65963060 </i>
    <i name="e_0_energy">    -10.65963060 </i>
   </energy>
  </scstep>
  <structure>
   <crystal>
    <varray name="basis" >
     <v>       4.16054900       0.00000000       0.00000000 </v>
     <v>       0.00000000       4.16054900       0.00000000 </v>
     <v>       0.00000000       0.00000000       4.16054900 </v>
    </varray>
    <i name="volume">     72.01980208 </i>
    <varray name="rec_basis" >
     <v>       0.24035290       0.00000000       0.00000000 </v>
     <v>       0.00000000       0.24035290       0.00000000 </v>
     <v>       0.00000000       0.00000000       0.24035290 </v>
    </varray>
   </crystal>
   <varray name="positions" >
    <v>       0.99127500       0.02201100       0.95816500 </v>
    <v>       0.98989900       0.45312100       0.50332700 </v>
    <v>       0.49104400       0.04713800       0.49707100 </v>
    <v>       0.54128300       0.47897600       0.98717500 </v>
   </varray>
  </structure>
  <varray name="forces" >
   <v>       0.63762264      -1.52027191       1.09109913 </v>
   <v>       0.57208694       1.94235925      -0.94169254 </v>
   <v>      -0.14084990      -1.73672235      -0.56356936 </v>
   <v>      -1.06885968       1.31463501       0.41416276 </v>
  </varray>
  <energy>
   <i name="e_fr_energy">    -10.65963060 </i>
   <i name="e_wo_entrp">    -10.65963060 </i>
   <i name="e_0_energy">      0.00000000 </i>
  </energy>
  <time name="totalsc">   80.49   80.96</time>
 </calculation>
 <calculation>
  <scstep>
   <time name="dav">    7.79    7.81</time>
   <time name="total">    8.33    8.35</time>
   <energy>
    <i name="alphaZ">    394.50862759 </i>
    <i name="ewald">  -3829.31768643 </i>
    <i name="hartreedc">   -806.95131494 </i>
    <i name="XCdc">    -45.01949117 </i>
    <i name="pawpsdc">   3489.16690863 </i>
    <i name="pawaedc">  -3312.96630129 </i>
    <i name="eentropy">      0.00000000 </i>
    <i name="bandstr">    -50.08681792 </i>
    <i name="atom">   4149.63472583 </i>
    <i name="e_fr_energy">    -11.03134970 </i>
    <i name="e_wo_entrp">    -11.03134970 </i>
    <i name="e_0_energy">    -11.03134970 </i>
   </energy>
  </scstep>
  <scstep>
   <time name="diag">    1.00    1.00</time>
   <time name="diis">    3.79    3.80</time>
   <time name="orth">    0.10    0.10</time>
   <time name="total">    5.42    5.44</time>
   <energy>
    <i name="e_fr_energy">    -11.16254779 </i>
    <i name="e_wo_entrp">    -11.16254779 </i>
    <i name="e_0_energy">    -11.16254779 </i>
   </energy>
  </scstep>
  <scstep>
   <time name="diag">    1.00    1.00</time>
   <time name="diis">    3.78    3.79</time>
   <time name="orth">    0.10    0.10</time>
   <time name="total">    5.42    5.43</time>
   <energy>
    <i name="e_fr_energy">    -11.16068195 </i>
    <i name="e_wo_entrp">    -11.16068195 </i>
    <i name="e_0_energy">    -11.16068195 </i>
   </energy>
  </scstep>
  <scstep>
   <time name="diag">    1.00    1.00</time>
   <time name="diis">    3.80    3.81</time>
   <time name="orth">    0.10    0.10</time>
   <time name="total">    5.44    5.45</time>
   <energy>
    <i name="e_fr_energy">    -11.15753517 </i>
    <i name="e_wo_entrp">    -11.15753517 </i>
    <i name="e_0_energy">    -11.15753517 </i>
   </energy>
  </scstep>
  <scstep>
   <time name="diag">    1.15    1.17</time>
   <time name="diis">    3.84    3.85</time>
   <time name="orth">    0.10    0.10</time>
   <time name="total">    5.63    5.66</time>
   <energy>
    <i name="e_fr_energy">    -11.15733828 </i>
    <i name="e_wo_entrp">    -11.15733828 </i>
    <i name="e_0_energy">    -11.15733828 </i>
   </energy>
  </scstep>
  <scstep>
   <time name="diag">    1.00    1.00</time>
   <time name="diis">    3.41    3.42</time>
   <time name="orth">    0.10    0.10</time>
   <time name="total">    5.04    5.05</time>
   <energy>
    <i name="e_fr_energy">    -11.15700793 </i>
    <i name="e_wo_entrp">    -11.15700793 </i>
    <i name="e_0_energy">    -11.15700793 </i>
   </energy>
  </scstep>
  <scstep>
   <time name="diag">    1.00    1.00</time>
   <time name="diis">    2.92    2.92</time>
   <time name="orth">    0.10    0.10</time>
   <time name="total">    4.14    4.15</time>
   <energy>
    <i name="alphaZ">    394.50862759 </i>
    <i name="ewald">  -3829.31768643 </i>
    <i name="hartreedc">   -806.93607465 </i>
    <i name="XCdc">    -45.02407410 </i>
    <i name="pawpsdc">   3473.27860510 </i>
    <i name="pawaedc">  -3296.39124723 </i>
    <i name="eentropy">      0.00000000 </i>
    <i name="bandstr">    -50.90988228 </i>
    <i name="atom">   4149.63472583 </i>
    <i name="e_fr_energy">    -11.15700617 </i>
    <i name="e_wo_entrp">    -11.15700617 </i>
    <i name="e_0_energy">    -11.15700617 </i>
   </energy>
  </scstep>
  <structure>
   <crystal>
    <varray name="basis" >
     <v>       4.16054900       0.00000000       0.00000000 </v>
     <v>       0.00000000       4.16054900       0.00000000 </v>
     <v>       0.00000000       0.00000000       4.16054900 </v>
    </varray>
    <i name="volume">     72.01980208 </i>
    <varray name="rec_basis" >
     <v>       0.24035290       0.00000000       0.00000000 </v>
     <v>       0.00000000       0.24035290       0.00000000 </v>
     <v>       0.00000000       0.00000000       0.24035290 </v>
    </varray>
   </crystal>
   <varray name="positions" >
[...]
        <r>  0.0040  0.0002  0.0003  0.0003  0.0025  0.0755  0.0433  0.0091  0.0678 </r>
       </set>
       <set comment="band 18">
        <r>  0.0018  0.0005  0.0009  0.0001  0.0482  0.0702  0.0145  0.0155  0.1106 </r>
        <r>  0.0010  0.0002  0.0013  0.0001  0.0018  0.0781  0.0151  0.0132  0.0932 </r>
        <r>  0.0013  0.0003  0.0015  0.0002  0.0139  0.0721  0.0208  0.0137  0.1036 </r>
        <r>  0.0016  0.0004  0.0011  0.0001  0.0328  0.0611  0.0160  0.0130  0.1270 </r>
       </set>
       <set comment="band 19">
        <r>  0.0007  0.0002  0.0001  0.0002  0.1789  0.0073  0.0270  0.0013  0.0004 </r>
        <r>  0.0005  0.0002  0.0001  0.0004  0.1300  0.0309  0.0113  0.0012  0.0449 </r>
        <r>  0.0002  0.0000  0.0001  0.0001  0.1229  0.0576  0.0125  0.0072  0.0394 </r>
        <r>  0.0005  0.0002  0.0000  0.0000  0.1914  0.0531  0.0261  0.0174  0.0012 </r>
       </set>
       <set comment="band 20">
        <r>  0.0003  0.0002  0.0001  0.0000  0.1369  0.0432  0.0219  0.0078  0.0010 </r>
        <r>  0.0006  0.0001  0.0001  0.0003  0.1994  0.0310  0.0286  0.0098  0.0213 </r>
        <r>  0.0002  0.0003  0.0001  0.0004  0.2119  0.0156  0.0140  0.0101  0.0283 </r>
        <r>  0.0005  0.0002  0.0001  0.0001  0.1492  0.0046  0.0226  0.0039  0.0009 </r>
       </set>
       <set comment="band 21">
        <r>  0.0143  0.0002  0.0037  0.0017  0.0003  0.0078  0.0311  0.0910  0.0694 </r>
        <r>  0.0146  0.0003  0.0038  0.0015  0.0238  0.0005  0.0340  0.0946  0.0424 </r>
        <r>  0.0151  0.0002  0.0038  0.0016  0.0213  0.0009  0.0434  0.0921  0.0462 </r>
        <r>  0.0146  0.0001  0.0038  0.0019  0.0003  0.0103  0.0355  0.0844  0.0713 </r>
       </set>
       <set comment="band 22">
        <r>  0.0384  0.0005  0.0177  0.0037  0.0003  0.0053  0.0334  0.0651  0.0097 </r>
        <r>  0.0383  0.0006  0.0177  0.0036  0.0004  0.0036  0.0358  0.0670  0.0091 </r>
        <r>  0.0385  0.0006  0.0178  0.0036  0.0003  0.0039  0.0340  0.0673  0.0092 </r>
        <r>  0.0380  0.0006  0.0181  0.0038  0.0003  0.0052  0.0332  0.0666  0.0096 </r>
       </set>
       <set comment="band 23">
        <r>  0.0426  0.0010  0.0081  0.0342  0.0012  0.0000  0.0003  0.0399  0.0202 </r>
        <r>  0.0407  0.0010  0.0083  0.0351  0.0016  0.0000  0.0002  0.0392  0.0193 </r>
        <r>  0.0413  0.0010  0.0083  0.0347  0.0015  0.0000  0.0003  0.0395  0.0193 </r>
        <r>  0.0420  0.0009  0.0085  0.0340  0.0013  0.0000  0.0002  0.0398  0.0192 </r>
       </set>
       <set comment="band 24">
        <r>  0.0377  0.0033  0.0172  0.0303  0.0001  0.0001  0.0003  0.0336  0.0137 </r>
        <r>  0.0375  0.0032  0.0168  0.0315  0.0004  0.0001  0.0004  0.0330  0.0136 </r>
        <r>  0.0379  0.0030  0.0171  0.0310  0.0002  0.0001  0.0003  0.0329  0.0136 </r>
        <r>  0.0383  0.0030  0.0172  0.0313  0.0002  0.0001  0.0004  0.0328  0.0134 </r>
       </set>
       <set comment="band 25">
        <r>  0.0379  0.0533  0.0026  0.0005  0.0117  0.0244  0.0016  0.0020  0.0059 </r>
        <r>  0.0383  0.0509  0.0028  0.0008  0.0102  0.0253  0.0016  0.0015  0.0062 </r>
        <r>  0.0378  0.0518  0.0032  0.0012  0.0106  0.0247  0.0016  0.0015  0.0061 </r>
        <r>  0.0375  0.0538  0.0030  0.0007  0.0115  0.0240  0.0016  0.0018  0.0058 </r>
       </set>
       <set comment="band 26">
        <r>  0.0359  0.0445  0.0120  0.0027  0.0064  0.0221  0.0008  0.0018  0.0054 </r>
        <r>  0.0402  0.0427  0.0111  0.0032  0.0057  0.0226  0.0010  0.0015  0.0067 </r>
        <r>  0.0402  0.0427  0.0110  0.0038  0.0056  0.0224  0.0010  0.0014  0.0069 </r>
        <r>  0.0358  0.0455  0.0121  0.0032  0.0063  0.0213  0.0007  0.0017  0.0055 </r>
       </set>
       <set comment="band 27">
        <r>  0.0444  0.0237  0.0106  0.0069  0.0022  0.0081  0.0063  0.0007  0.0199 </r>
        <r>  0.0457  0.0420  0.0090  0.0094  0.0035  0.0057  0.0067  0.0002  0.0201 </r>
        <r>  0.0461  0.0437  0.0095  0.0086  0.0034  0.0052  0.0069  0.0002  0.0200 </r>
        <r>  0.0454  0.0232  0.0101  0.0063  0.0024  0.0094  0.0066  0.0006  0.0199 </r>
       </set>
       <set comment="band 28">
        <r>  0.0435  0.0432  0.0078  0.0113  0.0092  0.0096  0.0049  0.0025  0.0108 </r>
        <r>  0.0233  0.0395  0.0181  0.0137  0.0058  0.0094  0.0022  0.0024  0.0026 </r>
        <r>  0.0197  0.0393  0.0171  0.0138  0.0056  0.0092  0.0021  0.0023  0.0023 </r>
        <r>  0.0449  0.0390  0.0060  0.0093  0.0101  0.0100  0.0054  0.0025  0.0109 </r>
       </set>
       <set comment="band 29">
        <r>  0.0320  0.0343  0.0113  0.0246  0.0123  0.0096  0.0029  0.0039  0.0015 </r>
        <r>  0.0373  0.0257  0.0058  0.0135  0.0126  0.0122  0.0042  0.0052  0.0060 </r>
        <r>  0.0398  0.0235  0.0058  0.0132  0.0130  0.0137  0.0042  0.0065  0.0066 </r>
        <r>  0.0296  0.0386  0.0130  0.0264  0.0113  0.0087  0.0024  0.0039  0.0017 </r>
       </set>
       <set comment="band 30">
        <r>  0.0223  0.0128  0.0151  0.0276  0.0075  0.0087  0.0037  0.0117  0.0117 </r>
        <r>  0.0147  0.0142  0.0141  0.0325  0.0098  0.0060  0.0015  0.0063  0.0200 </r>
        <r>  0.0238  0.0142  0.0103  0.0238  0.0105  0.0060  0.0027  0.0105  0.0177 </r>
        <r>  0.0163  0.0143  0.0188  0.0344  0.0069  0.0080  0.0026  0.0077  0.0129 </r>
       </set>
       <set comment="band 31">
        <r>  0.0163  0.0100  0.0109  0.0331  0.0061  0.0049  0.0036  0.0075  0.0228 </r>
        <r>  0.0282  0.0100  0.0108  0.0281  0.0067  0.0057  0.0061  0.0126  0.0150 </r>
        <r>  0.0232  0.0106  0.0140  0.0350  0.0064  0.0056  0.0051  0.0081  0.0164 </r>
        <r>  0.0223  0.0102  0.0079  0.0250  0.0062  0.0045  0.0045  0.0123  0.0209 </r>
       </set>
       <set comment="band 32">
        <r>  0.0080  0.0011  0.0220  0.0499  0.0011  0.0009  0.0047  0.0084  0.0194 </r>
        <r>  0.0128  0.0020  0.0220  0.0498  0.0011  0.0005  0.0064  0.0087  0.0207 </r>
        <r>  0.0141  0.0026  0.0205  0.0466  0.0006  0.0002  0.0068  0.0093  0.0184 </r>
        <r>  0.0100  0.0010  0.0208  0.0441  0.0009  0.0008  0.0050  0.0095  0.0186 </r>
       </set>
      </set>
      <set comment="kpoint 108">
       <set comment="band 1">
        <r>  0.0717  0.0004  0.0108  0.0005  0.0067  0.0032  0.0312  0.0044  0.0000 </r>
        <r>  0.0739  0.0005  0.0103  0.0004  0.0046  0.0037  0.0351  0.0051  0.0006 </r>
        <r>  0.0748  0.0005  0.0104  0.0003  0.0030  0.0047  0.0345  0.0047  0.0009 </r>
        <r>  0.0716  0.0004  0.0105  0.0004  0.0065  0.0053  0.0295  0.0034  0.0001 </r>
       </set>
       <set comment="band 2">
        <r>  0.0159  0.0001  0.0035  0.0002  0.0801  0.0026  0.0820  0.0007  0.0008 </r>
        <r>  0.0174  0.0000  0.0029  0.0002  0.0840  0.0013  0.0863  0.0023  0.0015 </r>
        <r>  0.0155  0.0000  0.0035  0.0004  0.0850  0.0051  0.0902  0.0080  0.0011 </r>
        <r>  0.0155  0.0000  0.0034  0.0004  0.0774  0.0062  0.0788  0.0051  0.0012 </r>
       </set>
       <set comment="band 3">
        <r>  0.0060  0.0001  0.0014  0.0008  0.0826  0.0057  0.0291  0.0196  0.1080 </r>
        <r>  0.0006  0.0006  0.0045  0.0006  0.0171  0.0035  0.0485  0.0464  0.0393 </r>
        <r>  0.0069  0.0001  0.0007  0.0000  0.0222  0.0074  0.0089  0.0440  0.0479 </r>
        <r>  0.0035  0.0003  0.0013  0.0005  0.0749  0.0056  0.0479  0.0250  0.1087 </r>
       </set>
       <set comment="band 4">
        <r>  0.0053  0.0002  0.0056  0.0004  0.0236  0.0034  0.0467  0.0112  0.0046 </r>
        <r>  0.0043  0.0003  0.0007  0.0003  0.0764  0.0022  0.0188  0.0022  0.2106 </r>
        <r>  0.0021  0.0001  0.0019  0.0005  0.0720  0.0028  0.0320  0.0036  0.2137 </r>
        <r>  0.0098  0.0001  0.0032  0.0001  0.0246  0.0007  0.0165  0.0116  0.0049 </r>
       </set>
       <set comment="band 5">
        <r>  0.0029  0.0000  0.0009  0.0003  0.0205  0.0111  0.0069  0.0018  0.1985 </r>
        <r>  0.0061  0.0002  0.0032  0.0005  0.0439  0.0115  0.0070  0.0016  0.0836 </r>
        <r>  0.0019  0.0011  0.0051  0.0004  0.0410  0.0081  0.0295  0.0006  0.0680 </r>
        <r>  0.0005  0.0002  0.0033  0.0004  0.0214  0.0242  0.0213  0.0003  0.1964 </r>
       </set>
       <set comment="band 6">
        <r>  0.0003  0.0015  0.0013  0.0022  0.0474  0.0552  0.0005  0.0637  0.0546 </r>
        <r>  0.0032  0.0016  0.0023  0.0022  0.0673  0.0410  0.0025  0.0653  0.0170 </r>
        <r>  0.0024  0.0011  0.0010  0.0030  0.0642  0.0213  0.0008  0.0728  0.0189 </r>
        <r>  0.0002  0.0004  0.0010  0.0022  0.0615  0.0609  0.0003  0.0609  0.0492 </r>
       </set>
       <set comment="band 7">
        <r>  0.0020  0.0039  0.0009  0.0005  0.0153  0.1360  0.0023  0.0211  0.0149 </r>
        <r>  0.0006  0.0031  0.0004  0.0007  0.0338  0.1673  0.0035  0.0432  0.0270 </r>
        <r>  0.0003  0.0032  0.0018  0.0009  0.0254  0.1456  0.0010  0.0265  0.0275 </r>
        <r>  0.0009  0.0041  0.0018  0.0011  0.0037  0.1063  0.0002  0.0104  0.0170 </r>
       </set>
       <set comment="band 8">
        <r>  0.0011  0.0001  0.0001  0.0017  0.1433  0.0120  0.0025  0.0897  0.0054 </r>
        <r>  0.0001  0.0004  0.0009  0.0017  0.0993  0.0001  0.0026  0.0604  0.0057 </r>
        <r>  0.0007  0.0001  0.0003  0.0011  0.1158  0.0075  0.0000  0.0617  0.0017 </r>
        <r>  0.0025  0.0002  0.0002  0.0013  0.1540  0.0018  0.0012  0.0959  0.0016 </r>
       </set>
       <set comment="band 9">
        <r>  0.0000  0.0032  0.0001  0.0021  0.0024  0.0989  0.0028  0.0729  0.0002 </r>
        <r>  0.0016  0.0031  0.0004  0.0018  0.0105  0.0701  0.0369  0.0989  0.0025 </r>
        <r>  0.0032  0.0026  0.0004  0.0021  0.0023  0.1674  0.0161  0.0640  0.0022 </r>
        <r>  0.0043  0.0041  0.0002  0.0025  0.0113  0.0758  0.0492  0.0534  0.0027 </r>
       </set>
       <set comment="band 10">
        <r>  0.0031  0.0028  0.0003  0.0028  0.0171  0.0664  0.0267  0.0868  0.0008 </r>
        <r>  0.0006  0.0028  0.0003  0.0048  0.0003  0.1112  0.0098  0.0677  0.0004 </r>
        <r>  0.0003  0.0035  0.0000  0.0037  0.0019  0.0327  0.0110  0.1017  0.0013 </r>
        <r>  0.0004  0.0019  0.0000  0.0028  0.0032  0.1258  0.0038  0.1704  0.0007 </r>
       </set>
       <set comment="band 11">
        <r>  0.0013  0.0002  0.0008  0.0012  0.0005  0.1020  0.0722  0.1101  0.0011 </r>
        <r>  0.0036  0.0006  0.0004  0.0001  0.0047  0.0654  0.0564  0.0796  0.0013 </r>
        <r>  0.0034  0.0003  0.0002  0.0010  0.0072  0.0756  0.1036  0.0365  0.0003 </r>
        <r>  0.0011  0.0005  0.0006  0.0014  0.0038  0.0814  0.0559  0.0294  0.0024 </r>
       </set>
       <set comment="band 12">
        <r>  0.0006  0.0006  0.0002  0.0007  0.0022  0.0548  0.0055  0.1464  0.0200 </r>
        <r>  0.0020  0.0002  0.0004  0.0006  0.0049  0.1103  0.0109  0.0815  0.0204 </r>
        <r>  0.0003  0.0002  0.0005  0.0007  0.0024  0.0891  0.0028  0.1173  0.0127 </r>
        <r>  0.0023  0.0005  0.0006  0.0003  0.0000  0.0395  0.0217  0.1471  0.0249 </r>
       </set>
       <set comment="band 13">
        <r>  0.0102  0.0001  0.0023  0.0005  0.0061  0.0521  0.0437  0.0507  0.0273 </r>
        <r>  0.0059  0.0001  0.0028  0.0003  0.0015  0.0358  0.0638  0.1261  0.0074 </r>
        <r>  0.0061  0.0004  0.0038  0.0003  0.0075  0.0996  0.0198  0.1339  0.0003 </r>
        <r>  0.0066  0.0009  0.0026  0.0003  0.0024  0.0958  0.0335  0.0353  0.0055 </r>
       </set>
       <set comment="band 14">
        <r>  0.0001  0.0006  0.0005  0.0006  0.0038  0.1292  0.0270  0.0736  0.0265 </r>
        <r>  0.0003  0.0008  0.0006  0.0005  0.0109  0.0875  0.0078  0.0280  0.0487 </r>
        <r>  0.0011  0.0004  0.0002  0.0007  0.0005  0.0516  0.0290  0.0389  0.0714 </r>
        <r>  0.0036  0.0003  0.0001  0.0004  0.0005  0.0933  0.0927  0.0644  0.0379 </r>
       </set>
       <set comment="band 15">
        <r>  0.0060  0.0009  0.0041  0.0002  0.0035  0.0244  0.1456  0.0070  0.0056 </r>
        <r>  0.0126  0.0011  0.0010  0.0002  0.0069  0.0750  0.1738  0.0271  0.0093 </r>
        <r>  0.0145  0.0014  0.0015  0.0004  0.0083  0.0420  0.2029  0.0161  0.0260 </r>
        <r>  0.0040  0.0004  0.0049  0.0001  0.0004  0.0242  0.0060  0.0041  0.0188 </r>
       </set>
       <set comment="band 16">
        <r>  0.0032  0.0005  0.0011  0.0003  0.0101  0.0006  0.2984  0.0104  0.0810 </r>
        <r>  0.0016  0.0002  0.0005  0.0004  0.0021  0.0147  0.0428  0.0075  0.0535 </r>
        <r>  0.0003  0.0001  0.0002  0.0000  0.0001  0.0249  0.0392  0.0024  0.0006 </r>
        <r>  0.0001  0.0005  0.0002  0.0004  0.0089  0.0013  0.2427  0.0351  0.0508 </r>
       </set>
       <set comment="band 17">
        <r>  0.0057  0.0000  0.0004  0.0004  0.0016  0.0508  0.0029  0.0344  0.0008 </r>
        <r>  0.0026  0.0003  0.0031  0.0003  0.0005  0.0012  0.2105  0.0548  0.0055 </r>
        <r>  0.0018  0.0002  0.0022  0.0004  0.0044  0.0135  0.1801  0.0652  0.0194 </r>
        <r>  0.0092  0.0004  0.0002  0.0005  0.0031  0.0468  0.1172  0.0456  0.0302 </r>
       </set>
       <set comment="band 18">
        <r>  0.0000  0.0001  0.0000  0.0000  0.0018  0.0184  0.0184  0.0147  0.1477 </r>
        <r>  0.0001  0.0001  0.0000  0.0002  0.0051  0.0111  0.0362  0.0202  0.1830 </r>
        <r>  0.0005  0.0000  0.0001  0.0001  0.0012  0.0111  0.0569  0.0234  0.1933 </r>
        <r>  0.0002  0.0000  0.0001  0.0001  0.0007  0.0335  0.0261  0.0164  0.1387 </r>
       </set>
       <set comment="band 19">
        <r>  0.0000  0.0001  0.0000  0.0000  0.0023  0.0240  0.0071  0.0222  0.1828 </r>
        <r>  0.0000  0.0001  0.0000  0.0001  0.0015  0.0326  0.0020  0.0345  0.1627 </r>
        <r>  0.0000  0.0001  0.0000  0.0001  0.0002  0.0351  0.0000  0.0327  0.1733 </r>
        <r>  0.0000  0.0001  0.0000  0.0001  0.0004  0.0237  0.0108  0.0295  0.1904 </r>
       </set>
       <set comment="band 20">
        <r>  0.0019  0.0003  0.0008  0.0001  0.3751  0.0017  0.0086  0.0002  0.0009 </r>
        <r>  0.0014  0.0000  0.0009  0.0002  0.0732  0.0090  0.0020  0.0051  0.0005 </r>
        <r>  0.0015  0.0000  0.0010  0.0001  0.0693  0.0065  0.0025  0.0067  0.0009 </r>
        <r>  0.0017  0.0003  0.0008  0.0002  0.3823  0.0013  0.0047  0.0001  0.0009 </r>
       </set>
       <set comment="band 21">
        <r>  0.0008  0.0000  0.0002  0.0001  0.0735  0.0072  0.0023  0.0147  0.0007 </r>
        <r>  0.0003  0.0001  0.0004  0.0004  0.3621  0.0046  0.0034  0.0045  0.0014 </r>
        <r>  0.0002  0.0001  0.0003  0.0003  0.3808  0.0062  0.0033  0.0013  0.0012 </r>
        <r>  0.0009  0.0000  0.0001  0.0000  0.0764  0.0060  0.0053  0.0120  0.0007 </r>
       </set>
       <set comment="band 22">
        <r>  0.0378  0.0006  0.0178  0.0007  0.0052  0.0274  0.0551  0.0295  0.0003 </r>
        <r>  0.0382  0.0006  0.0178  0.0006  0.0137  0.0270  0.0570  0.0249  0.0005 </r>
        <r>  0.0389  0.0007  0.0178  0.0005  0.0100  0.0285  0.0532  0.0247  0.0001 </r>
        <r>  0.0372  0.0006  0.0184  0.0007  0.0071  0.0279  0.0518  0.0312  0.0000 </r>
       </set>
       <set comment="band 23">
        <r>  0.0237  0.0258  0.0044  0.0384  0.0021  0.0117  0.0012  0.0190  0.0111 </r>
        <r>  0.0172  0.0245  0.0039  0.0409  0.0021  0.0125  0.0009  0.0191  0.0126 </r>
        <r>  0.0271  0.0222  0.0064  0.0368  0.0012  0.0122  0.0011  0.0192  0.0064 </r>
        <r>  0.0276  0.0237  0.0067  0.0357  0.0015  0.0114  0.0012  0.0204  0.0060 </r>
       </set>
       <set comment="band 24">
        <r>  0.0259  0.0389  0.0031  0.0234  0.0012  0.0183  0.0012  0.0132  0.0066 </r>
        <r>  0.0307  0.0342  0.0042  0.0229  0.0011  0.0201  0.0014  0.0118  0.0051 </r>
        <r>  0.0204  0.0373  0.0019  0.0267  0.0021  0.0200  0.0012  0.0117  0.0109 </r>
        <r>  0.0208  0.0407  0.0019  0.0261  0.0018  0.0190  0.0012  0.0109  0.0106 </r>
       </set>
       <set comment="band 25">
        <r>  0.0348  0.0026  0.0076  0.0453  0.0006  0.0005  0.0011  0.0262  0.0070 </r>
        <r>  0.0494  0.0001  0.0114  0.0456  0.0010  0.0003  0.0017  0.0249  0.0046 </r>
        <r>  0.0472  0.0007  0.0110  0.0465  0.0011  0.0001  0.0017  0.0242  0.0046 </r>
        <r>  0.0334  0.0026  0.0078  0.0507  0.0008  0.0004  0.0014  0.0241  0.0067 </r>
       </set>
       <set comment="band 26">
        <r>  0.0446  0.0453  0.0122  0.0005  0.0010  0.0260  0.0011  0.0002  0.0045 </r>
        <r>  0.0354  0.0478  0.0073  0.0035  0.0007  0.0258  0.0010  0.0006  0.0084 </r>
        <r>  0.0374  0.0466  0.0082  0.0029  0.0005  0.0260  0.0009  0.0006  0.0084 </r>
        <r>  0.0459  0.0454  0.0125  0.0001  0.0009  0.0254  0.0010  0.0006  0.0042 </r>
       </set>
       <set comment="band 27">
        <r>  0.0692  0.0172  0.0032  0.0130  0.0006  0.0056  0.0092  0.0019  0.0167 </r>
        <r>  0.0709  0.0244  0.0034  0.0118  0.0008  0.0045  0.0100  0.0019  0.0167 </r>
        <r>  0.0717  0.0327  0.0058  0.0136  0.0006  0.0036  0.0097  0.0022  0.0099 </r>
        <r>  0.0714  0.0212  0.0056  0.0131  0.0007  0.0054  0.0096  0.0020  0.0118 </r>
       </set>
       <set comment="band 28">
        <r>  0.0642  0.0159  0.0064  0.0267  0.0008  0.0027  0.0095  0.0053  0.0145 </r>
        <r>  0.0554  0.0199  0.0062  0.0222  0.0007  0.0024  0.0080  0.0062  0.0144 </r>
        <r>  0.0556  0.0127  0.0036  0.0189  0.0008  0.0030  0.0085  0.0071  0.0217 </r>
        <r>  0.0641  0.0129  0.0038  0.0217  0.0008  0.0032  0.0089  0.0063  0.0195 </r>
       </set>
       <set comment="band 29">
        <r>  0.0106  0.0130  0.0259  0.0139  0.0003  0.0057  0.0009  0.0037  0.0444 </r>
        <r>  0.0099  0.0148  0.0394  0.0110  0.0001  0.0051  0.0009  0.0049  0.0307 </r>
        <r>  0.0151  0.0146  0.0404  0.0131  0.0003  0.0072  0.0009  0.0054  0.0260 </r>
        <r>  0.0095  0.0195  0.0292  0.0140  0.0001  0.0045  0.0005  0.0047  0.0401 </r>
       </set>
       <set comment="band 30">
        <r>  0.0080  0.0159  0.0405  0.0164  0.0001  0.0047  0.0006  0.0062  0.0282 </r>
        <r>  0.0064  0.0150  0.0274  0.0181  0.0003  0.0047  0.0005  0.0049  0.0410 </r>
        <r>  0.0031  0.0144  0.0251  0.0148  0.0000  0.0033  0.0005  0.0054  0.0447 </r>
        <r>  0.0087  0.0093  0.0349  0.0136  0.0004  0.0057  0.0011  0.0068  0.0334 </r>
       </set>
       <set comment="band 31">
        <r>  0.0167  0.0353  0.0038  0.0352  0.0115  0.0080  0.0020  0.0085  0.0003 </r>
        <r>  0.0176  0.0314  0.0040  0.0337  0.0111  0.0084  0.0022  0.0092  0.0000 </r>
        <r>  0.0168  0.0313  0.0047  0.0345  0.0112  0.0089  0.0022  0.0087  0.0000 </r>
        <r>  0.0164  0.0356  0.0041  0.0355  0.0111  0.0078  0.0019  0.0088  0.0003 </r>
       </set>
       <set comment="band 32">
        <r>  0.0134  0.0282  0.0059  0.0255  0.0118  0.0111  0.0016  0.0122  0.0002 </r>
        <r>  0.0131  0.0238  0.0080  0.0326  0.0127  0.0119  0.0038  0.0096  0.0000 </r>
        <r>  0.0134  0.0238  0.0074  0.0318  0.0157  0.0116  0.0031  0.0104  0.0000 </r>
        <r>  0.0128  0.0295  0.0065  0.0248  0.0128  0.0102  0.0013  0.0125  0.0001 </r>
       </set>
      </set>
     </set>
    </set>
   </array>
  </projected>
 </calculation>
 <structure name="finalpos" >
  <crystal>
   <varray name="basis" >
    <v>       4.16054900       0.00000000       0.00000000 </v>
    <v>       0.00000000       4.16054900       0.00000000 </v>
    <v>       0.00000000       0.00000000       4.16054900 </v>
   </varray>
   <i name="volume">     72.01980208 </i>
   <varray name="rec_basis" >
    <v>       0.24035290       0.00000000       0.00000000 </v>
    <v>       0.00000000       0.24035290       0.00000000 </v>
    <v>       0.00000000       0.00000000       0.24035290 </v>
   </varray>
  </crystal>
  <varray name="positions" >
   <v>       0.99866840       0.00438305       0.97081658 </v>
   <v>       0.99653250       0.47564316       0.49240783 </v>
   <v>       0.48941081       0.02700025       0.49053627 </v>
   <v>       0.52888929       0.49421954       0.99197733 </v>
  </varray>
 </structure>
</modeling>
