<?xml version="1.0" encoding="ISO-8859-1"?>
<modeling>
 <generator>
  <i name="program" type="string">vasp </i>
  <i name="version" type="string">5.4.4  </i>
  <i name="subversion" type="string">18Apr17 (build Jun 29 2017 14:33:36) complex                          parallel </i>
  <i name="platform" type="string">IFC17_CrayMPICH </i>
  <i name="date" type="string">2017 12 08 </i>
  <i name="time" type="string">10:16:40 </i>
 </generator>
 <incar>
  <i type="int" name="ISTART">     1</i>
  <i type="string" name="PREC">accurate</i>
  <i type="string" name="ALGO"> Normal</i>
  <i type="logical" name="ADDGRID"> T  </i>
  <i type="int" name="ISPIN">     2</i>
  <i name="BMIX">      0.00100000</i>
  <i name="AMIX_MAG">      0.80000000</i>
  <i name="BMIX_MAG">      0.00100000</i>
  <i type="int" name="ICHARG">     0</i>
  <i type="int" name="NELM">   100</i>
  <i type="int" name="NELMDL">    -6</i>
  <i type="int" name="IBRION">    -1</i>
  <i name="EDIFF">      0.00001000</i>
  <i name="EDIFFG">     -0.05000000</i>
  <i type="int" name="NSW">     0</i>
  <i type="int" name="ISIF">     3</i>
  <i name="ENCUT">    520.00000000</i>
  <v name="MAGMOM">      0.00000000      0.00000000</v>
  <i type="string" name="LREAL"> Auto</i>
  <i type="int" name="ISMEAR">    -5</i>
  <i name="SIGMA">      0.05000000</i>
  <i type="logical" name="LWAVE"> F  </i>
  <i type="logical" name="LCHARG"> T  </i>
  <i type="logical" name="LVHAR"> T  </i>
  <i type="int" name="LORBIT">    11</i>
  <i type="logical" name="LASPH"> T  </i>
  <i type="logical" name="LAECHG"> T  </i>
  <v type="int" name="KPOINT_BSE">    -1     0     0     0</v>
  <i type="int" name="NELM">   100</i>
  <i type="string" name="METAGGA"> Scan</i>
  <i type="logical" name="LASPH"> T  </i>
 </incar>
 <structure name="primitive_cell" >
  <crystal>
   <varray name="basis" >
    <v>       3.97062800      -0.01718700       2.52612800 </v>
    <v>       1.37824500       3.72379200       2.52612800 </v>
    <v>      -0.02480100      -0.01718700       4.70601700 </v>
   </varray>
   <i name="volume">     70.04059440 </i>
   <varray name="rec_basis" >
    <v>       0.25082090      -0.09349856       0.00098037 </v>
    <v>       0.00053491       0.26768039       0.00098042 </v>
    <v>      -0.13492449      -0.09349851       0.21144139 </v>
   </varray>
  </crystal>
  <varray name="positions" >
   <v>       0.23465600       0.23465600       0.23465600 </v>
   <v>      -0.23465600      -0.23465600      -0.23465600 </v>
  </varray>
 </structure>
 <varray name="primitive_index" >
  <v type="int" >        1 </v>
  <v type="int" >        2 </v>
 </varray>
 <kpoints>
  <generation param="Monkhorst-Pack">
   <v type="int" name="divisions">       8        8        8 </v>
   <v name="usershift">      0.00000000       0.00000000       0.00000000 </v>
   <v name="genvec1">      0.12500000       0.00000000       0.00000000 </v>
   <v name="genvec2">     -0.00000000       0.12500000      -0.00000000 </v>
   <v name="genvec3">     -0.00000000      -0.00000000       0.12500000 </v>
   <v name="shift">      0.50000000       0.50000000       0.50000000 </v>
  </generation>
  <varray name="kpointlist" >
   <v>       0.06250000       0.06250000       0.06250000 </v>
   <v>       0.18750000       0.06250000       0.06250000 </v>
   <v>       0.31250000       0.06250000       0.06250000 </v>
   <v>       0.43750000       0.06250000       0.06250000 </v>
   <v>      -0.43750000       0.06250000       0.06250000 </v>
   <v>      -0.31250000       0.06250000       0.06250000 </v>
   <v>      -0.18750000       0.06250000       0.06250000 </v>
   <v>      -0.06250000       0.06250000       0.06250000 </v>
   <v>       0.18750000       0.18750000       0.06250000 </v>
   <v>       0.31250000       0.18750000       0.06250000 </v>
   <v>       0.43750000       0.18750000       0.06250000 </v>
   <v>      -0.43750000       0.18750000       0.06250000 </v>
   <v>      -0.31250000       0.18750000       0.06250000 </v>
   <v>      -0.18750000       0.18750000       0.06250000 </v>
   <v>      -0.06250000       0.18750000       0.06250000 </v>
   <v>       0.31250000       0.31250000       0.06250000 </v>
   <v>       0.43750000       0.31250000       0.06250000 </v>
   <v>      -0.43750000       0.31250000       0.06250000 </v>
   <v>      -0.31250000       0.31250000       0.06250000 </v>
   <v>      -0.18750000       0.31250000       0.06250000 </v>
   <v>      -0.06250000       0.31250000       0.06250000 </v>
   <v>       0.43750000       0.43750000       0.06250000 </v>
   <v>      -0.43750000       0.43750000       0.06250000 </v>
   <v>      -0.31250000       0.43750000       0.06250000 </v>
   <v>      -0.18750000       0.43750000       0.06250000 </v>
   <v>      -0.06250000       0.43750000       0.06250000 </v>
   <v>      -0.43750000      -0.43750000       0.06250000 </v>
   <v>      -0.31250000      -0.43750000       0.06250000 </v>
   <v>      -0.18750000      -0.43750000       0.06250000 </v>
   <v>      -0.31250000      -0.31250000       0.06250000 </v>
   <v>      -0.18750000      -0.31250000       0.06250000 </v>
   <v>      -0.18750000      -0.18750000       0.06250000 </v>
   <v>       0.18750000       0.18750000       0.18750000 </v>
   <v>       0.31250000       0.18750000       0.18750000 </v>
   <v>       0.43750000       0.18750000       0.18750000 </v>
   <v>      -0.43750000       0.18750000       0.18750000 </v>
   <v>      -0.31250000       0.18750000       0.18750000 </v>
   <v>      -0.18750000       0.18750000       0.18750000 </v>
   <v>       0.31250000       0.31250000       0.18750000 </v>
   <v>       0.43750000       0.31250000       0.18750000 </v>
   <v>      -0.43750000       0.31250000       0.18750000 </v>
   <v>      -0.31250000       0.31250000       0.18750000 </v>
   <v>      -0.18750000       0.31250000       0.18750000 </v>
   <v>       0.43750000       0.43750000       0.18750000 </v>
   <v>      -0.43750000       0.43750000       0.18750000 </v>
   <v>      -0.31250000       0.43750000       0.18750000 </v>
   <v>      -0.18750000       0.43750000       0.18750000 </v>
   <v>      -0.43750000      -0.43750000       0.18750000 </v>
   <v>      -0.31250000      -0.43750000       0.18750000 </v>
   <v>      -0.31250000      -0.31250000       0.18750000 </v>
   <v>       0.31250000       0.31250000       0.31250000 </v>
   <v>       0.43750000       0.31250000       0.31250000 </v>
   <v>      -0.43750000       0.31250000       0.31250000 </v>
   <v>      -0.31250000       0.31250000       0.31250000 </v>
   <v>       0.43750000       0.43750000       0.31250000 </v>
   <v>      -0.43750000       0.43750000       0.31250000 </v>
   <v>      -0.31250000       0.43750000       0.31250000 </v>
   <v>      -0.43750000      -0.43750000       0.31250000 </v>
   <v>       0.43750000       0.43750000       0.43750000 </v>
   <v>      -0.43750000       0.43750000       0.43750000 </v>
  </varray>
  <varray name="weights" >
   <v>       0.00390625 </v>
   <v>       0.01171875 </v>
   <v>       0.01171875 </v>
   <v>       0.01171875 </v>
   <v>       0.01171875 </v>
   <v>       0.01171875 </v>
   <v>       0.01171875 </v>
   <v>       0.01171875 </v>
   <v>       0.01171875 </v>
   <v>       0.02343750 </v>
   <v>       0.02343750 </v>
   <v>       0.02343750 </v>
   <v>       0.02343750 </v>
   <v>       0.02343750 </v>
   <v>       0.02343750 </v>
   <v>       0.01171875 </v>
   <v>       0.02343750 </v>
   <v>       0.02343750 </v>
   <v>       0.02343750 </v>
   <v>       0.02343750 </v>
   <v>       0.02343750 </v>
   <v>       0.01171875 </v>
   <v>       0.02343750 </v>
   <v>       0.02343750 </v>
   <v>       0.02343750 </v>
   <v>       0.02343750 </v>
   <v>       0.01171875 </v>
   <v>       0.02343750 </v>
   <v>       0.02343750 </v>
   <v>       0.01171875 </v>
   <v>       0.02343750 </v>
   <v>       0.01171875 </v>
   <v>       0.00390625 </v>
   <v>       0.01171875 </v>
   <v>       0.01171875 </v>
   <v>       0.01171875 </v>
   <v>       0.01171875 </v>
   <v>       0.01171875 </v>
   <v>       0.01171875 </v>
   <v>       0.02343750 </v>
   <v>       0.02343750 </v>
   <v>       0.02343750 </v>
   <v>       0.02343750 </v>
   <v>       0.01171875 </v>
   <v>       0.02343750 </v>
   <v>       0.02343750 </v>
   <v>       0.02343750 </v>
   <v>       0.01171875 </v>
   <v>       0.02343750 </v>
   <v>       0.01171875 </v>
   <v>       0.00390625 </v>
   <v>       0.01171875 </v>
   <v>       0.01171875 </v>
   <v>       0.01171875 </v>
   <v>       0.01171875 </v>
   <v>       0.02343750 </v>
   <v>       0.02343750 </v>
   <v>       0.01171875 </v>
   <v>       0.00390625 </v>
   <v>       0.01171875 </v>
  </varray>
  <varray name="tetrahedronlist"  type="int" >
   <v type="int" >       12        1        2        9       33 </v>
   <v type="int" >       12        2        9       10       34 </v>
   <v type="int" >       12        2        3       10       34 </v>
   <v type="int" >       12        2        9       33       34 </v>
   <v type="int" >       12        3       10       11       35 </v>
   <v type="int" >       12        3        4       11       35 </v>
   <v type="int" >       12        3       10       34       35 </v>
   <v type="int" >       12        4       11       12       36 </v>
   <v type="int" >       12        4        5       12       36 </v>
   <v type="int" >       12        4       11       35       36 </v>
   <v type="int" >       12        5       12       13       37 </v>
   <v type="int" >       12        5        6       13       37 </v>
   <v type="int" >       12        5       12       36       37 </v>
   <v type="int" >       12        6       13       14       38 </v>
   <v type="int" >       12        6        7       14       38 </v>
   <v type="int" >       12        6       13       37       38 </v>
   <v type="int" >       12        7       14       15       32 </v>
   <v type="int" >       12        7        8       15       32 </v>
   <v type="int" >       12        7       14       32       38 </v>
   <v type="int" >       12        2        8        9       15 </v>
   <v type="int" >       12        1        2        8        9 </v>
   <v type="int" >       12        8        9       15       32 </v>
   <v type="int" >       12        9       10       16       39 </v>
   <v type="int" >       12        9       10       34       39 </v>
   <v type="int" >       12        9       33       34       39 </v>
   <v type="int" >       12       10       16       17       40 </v>
   <v type="int" >       12       10       11       17       40 </v>
   <v type="int" >       12       10       11       35       40 </v>
   <v type="int" >       12       10       16       39       40 </v>
   <v type="int" >       12       10       34       39       40 </v>
   <v type="int" >       12       10       34       35       40 </v>
   <v type="int" >       12       11       17       18       41 </v>
   <v type="int" >       12       11       12       18       41 </v>
   <v type="int" >       12       11       12       36       41 </v>
   <v type="int" >       12       11       17       40       41 </v>
   <v type="int" >       12       11       35       40       41 </v>
   <v type="int" >       12       11       35       36       41 </v>
   <v type="int" >       12       12       18       19       42 </v>
   <v type="int" >       12       12       13       19       42 </v>
   <v type="int" >       12       12       13       37       42 </v>
   <v type="int" >       12       12       18       41       42 </v>
   <v type="int" >       12       12       36       41       42 </v>
   <v type="int" >       12       12       36       37       42 </v>
   <v type="int" >       12       13       19       20       43 </v>
   <v type="int" >       12       13       14       20       43 </v>
   <v type="int" >       12       13       14       38       43 </v>
   <v type="int" >       12       13       19       42       43 </v>
   <v type="int" >       12       13       37       42       43 </v>
   <v type="int" >       12       13       37       38       43 </v>
   <v type="int" >       12       14       20       21       31 </v>
   <v type="int" >       12       14       15       21       31 </v>
   <v type="int" >       12       14       15       31       32 </v>
   <v type="int" >       12       14       20       31       43 </v>
   <v type="int" >       12       14       31       38       43 </v>
   <v type="int" >       12       14       31       32       38 </v>
   <v type="int" >       12        3       10       15       21 </v>
   <v type="int" >       12        2        3       10       15 </v>
   <v type="int" >       12        2        9       10       15 </v>
   <v type="int" >       12       10       15       21       31 </v>
   <v type="int" >       12       10       15       31       32 </v>
   <v type="int" >       12        9       10       15       32 </v>
   <v type="int" >       12       16       17       22       44 </v>
   <v type="int" >       12       16       17       40       44 </v>
   <v type="int" >       12       16       39       40       44 </v>
   <v type="int" >       12       17       22       23       45 </v>
   <v type="int" >       12       17       18       23       45 </v>
   <v type="int" >       12       17       18       41       45 </v>
   <v type="int" >       12       17       22       44       45 </v>
   <v type="int" >       12       17       40       44       45 </v>
   <v type="int" >       12       17       40       41       45 </v>
   <v type="int" >       12       18       23       24       46 </v>
   <v type="int" >       12       18       19       24       46 </v>
   <v type="int" >       12       18       19       42       46 </v>
   <v type="int" >       12       18       23       45       46 </v>
   <v type="int" >       12       18       41       45       46 </v>
   <v type="int" >       12       18       41       42       46 </v>
   <v type="int" >       12       19       24       25       47 </v>
   <v type="int" >       12       19       20       25       47 </v>
   <v type="int" >       12       19       20       43       47 </v>
   <v type="int" >       12       19       24       46       47 </v>
   <v type="int" >       12       19       42       46       47 </v>
   <v type="int" >       12       19       42       43       47 </v>
   <v type="int" >       12       20       25       26       29 </v>
   <v type="int" >       12       20       21       26       29 </v>
   <v type="int" >       12       20       21       29       31 </v>
   <v type="int" >       12       20       25       29       47 </v>
   <v type="int" >       12       20       29       43       47 </v>
   <v type="int" >       12       20       29       31       43 </v>
   <v type="int" >       12        4       11       21       26 </v>
   <v type="int" >       12        3        4       11       21 </v>
   <v type="int" >       12        3       10       11       21 </v>
   <v type="int" >       12       11       21       26       29 </v>
   <v type="int" >       12       11       21       29       31 </v>
   <v type="int" >       12       10       11       21       31 </v>
   <v type="int" >       12       22       23       27       48 </v>
   <v type="int" >       12       22       23       45       48 </v>
   <v type="int" >       12       22       44       45       48 </v>
   <v type="int" >       12       23       27       28       49 </v>
   <v type="int" >       12       23       24       28       49 </v>
   <v type="int" >       12       23       24       46       49 </v>
   <v type="int" >       12       23       27       48       49 </v>
   <v type="int" >       12       23       45       48       49 </v>
   <v type="int" >       12       23       45       46       49 </v>
   <v type="int" >       12       24       28       29       47 </v>
   <v type="int" >       12       24       25       29       47 </v>
   <v type="int" >       12       24       25       47       47 </v>
   <v type="int" >       12       24       28       47       49 </v>
   <v type="int" >       12       24       46       47       49 </v>
   <v type="int" >       12       24       46       47       47 </v>
   <v type="int" >       12       25       25       26       29 </v>
   <v type="int" >        6       25       25       26       26 </v>
   <v type="int" >       12       25       25       29       47 </v>
   <v type="int" >        6       25       25       47       47 </v>
   <v type="int" >       12        5       12       26       26 </v>
   <v type="int" >       12        4        5       12       26 </v>
   <v type="int" >       12        4       11       12       26 </v>
   <v type="int" >       12       12       25       26       26 </v>
   <v type="int" >       12       12       25       26       29 </v>
   <v type="int" >       12       11       12       26       29 </v>
   <v type="int" >       12       27       28       30       50 </v>
   <v type="int" >       12       27       28       49       50 </v>
   <v type="int" >       12       27       48       49       50 </v>
   <v type="int" >       12       28       30       31       43 </v>
   <v type="int" >       12       28       29       31       43 </v>
   <v type="int" >       12       28       29       43       47 </v>
   <v type="int" >       12       28       30       43       50 </v>
   <v type="int" >       12       28       43       49       50 </v>
   <v type="int" >       12       28       43       47       49 </v>
   <v type="int" >       12        6       13       21       26 </v>
   <v type="int" >       12        5        6       13       26 </v>
   <v type="int" >       12        5       12       13       26 </v>
   <v type="int" >       12       13       20       21       26 </v>
   <v type="int" >       12       13       20       25       26 </v>
   <v type="int" >       12       12       13       25       26 </v>
   <v type="int" >       12       30       31       32       38 </v>
   <v type="int" >       12       30       31       38       43 </v>
   <v type="int" >       12       30       38       43       50 </v>
   <v type="int" >       12        7       14       15       21 </v>
   <v type="int" >       12        6        7       14       21 </v>
   <v type="int" >       12        6       13       14       21 </v>
   <v type="int" >       12       14       14       15       21 </v>
   <v type="int" >       12       14       14       20       21 </v>
   <v type="int" >       12       13       14       20       21 </v>
   <v type="int" >        6        8        8       15       15 </v>
   <v type="int" >       12        7        8       15       15 </v>
   <v type="int" >       12        7       14       15       15 </v>
   <v type="int" >        6       14       14       15       15 </v>
   <v type="int" >       12        1        2        8        8 </v>
   <v type="int" >       12        2        8        8       15 </v>
   <v type="int" >       12        2        7        8       15 </v>
   <v type="int" >       12       33       34       39       51 </v>
   <v type="int" >       12       34       39       40       52 </v>
   <v type="int" >       12       34       35       40       52 </v>
   <v type="int" >       12       34       39       51       52 </v>
   <v type="int" >       12       35       40       41       53 </v>
   <v type="int" >       12       35       36       41       53 </v>
   <v type="int" >       12       35       40       52       53 </v>
   <v type="int" >       12       36       41       42       54 </v>
   <v type="int" >       12       36       37       42       54 </v>
   <v type="int" >       12       36       41       53       54 </v>
   <v type="int" >       12       37       42       43       50 </v>
   <v type="int" >       12       37       38       43       50 </v>
   <v type="int" >       12       37       42       50       54 </v>
   <v type="int" >       12       10       16       31       32 </v>
   <v type="int" >       12        9       10       16       32 </v>
   <v type="int" >       12       16       30       31       32 </v>
   <v type="int" >       12       39       40       44       55 </v>
   <v type="int" >       12       39       40       52       55 </v>
   <v type="int" >       12       39       51       52       55 </v>
   <v type="int" >       12       40       44       45       56 </v>
   <v type="int" >       12       40       41       45       56 </v>
   <v type="int" >       12       40       41       53       56 </v>
   <v type="int" >       12       40       44       55       56 </v>
   <v type="int" >       12       40       52       55       56 </v>
   <v type="int" >       12       40       52       53       56 </v>
   <v type="int" >       12       41       45       46       57 </v>
   <v type="int" >       12       41       42       46       57 </v>
   <v type="int" >       12       41       42       54       57 </v>
   <v type="int" >       12       41       45       56       57 </v>
   <v type="int" >       12       41       53       56       57 </v>
   <v type="int" >       12       41       53       54       57 </v>
   <v type="int" >       12       42       46       47       49 </v>
   <v type="int" >       12       42       43       47       49 </v>
   <v type="int" >       12       42       43       49       50 </v>
   <v type="int" >       12       42       46       49       57 </v>
   <v type="int" >       12       42       49       54       57 </v>
   <v type="int" >       12       42       49       50       54 </v>
   <v type="int" >       12       11       17       29       31 </v>
   <v type="int" >       12       10       11       17       31 </v>
   <v type="int" >       12       10       16       17       31 </v>
   <v type="int" >       12       17       28       29       31 </v>
   <v type="int" >       12       17       28       30       31 </v>
   <v type="int" >       12       16       17       30       31 </v>
   <v type="int" >       12       44       45       48       58 </v>
   <v type="int" >       12       44       45       56       58 </v>
   <v type="int" >       12       44       55       56       58 </v>
   <v type="int" >       12       45       48       49       57 </v>
   <v type="int" >       12       45       46       49       57 </v>
   <v type="int" >       12       45       46       57       57 </v>
   <v type="int" >       12       45       48       57       58 </v>
   <v type="int" >       12       45       56       57       58 </v>
   <v type="int" >       12       45       56       57       57 </v>
   <v type="int" >       12       46       46       47       49 </v>
   <v type="int" >        6       46       46       47       47 </v>
   <v type="int" >       12       46       46       49       57 </v>
   <v type="int" >        6       46       46       57       57 </v>
   <v type="int" >       12       12       18       25       29 </v>
   <v type="int" >       12       11       12       18       29 </v>
   <v type="int" >       12       11       17       18       29 </v>
   <v type="int" >       12       18       24       25       29 </v>
   <v type="int" >       12       18       24       28       29 </v>
   <v type="int" >       12       17       18       28       29 </v>
   <v type="int" >       12       48       49       50       54 </v>
   <v type="int" >       12       48       49       54       57 </v>
   <v type="int" >       12       48       54       57       58 </v>
   <v type="int" >       12       13       19       20       25 </v>
   <v type="int" >       12       12       13       19       25 </v>
   <v type="int" >       12       12       18       19       25 </v>
   <v type="int" >       12       19       19       20       25 </v>
   <v type="int" >       12       19       19       24       25 </v>
   <v type="int" >       12       18       19       24       25 </v>
   <v type="int" >        6       14       14       20       20 </v>
   <v type="int" >       12       13       14       20       20 </v>
   <v type="int" >       12       13       19       20       20 </v>
   <v type="int" >        6       19       19       20       20 </v>
   <v type="int" >       12        2        3        7       15 </v>
   <v type="int" >       12        3        7       15       21 </v>
   <v type="int" >       12        3        6        7       21 </v>
   <v type="int" >       12       51       52       55       59 </v>
   <v type="int" >       12       52       55       56       60 </v>
   <v type="int" >       12       52       53       56       60 </v>
   <v type="int" >       12       52       55       59       60 </v>
   <v type="int" >       12       53       56       57       58 </v>
   <v type="int" >       12       53       54       57       58 </v>
   <v type="int" >       12       53       56       58       60 </v>
   <v type="int" >       12       17       22       28       30 </v>
   <v type="int" >       12       16       17       22       30 </v>
   <v type="int" >       12       22       27       28       30 </v>
   <v type="int" >       12       55       56       58       60 </v>
   <v type="int" >       12       55       56       60       60 </v>
   <v type="int" >       12       55       59       60       60 </v>
   <v type="int" >       12       56       56       57       58 </v>
   <v type="int" >        6       56       56       57       57 </v>
   <v type="int" >       12       56       56       58       60 </v>
   <v type="int" >        6       56       56       60       60 </v>
   <v type="int" >       12       18       23       24       28 </v>
   <v type="int" >       12       17       18       23       28 </v>
   <v type="int" >       12       17       22       23       28 </v>
   <v type="int" >       12       23       23       24       28 </v>
   <v type="int" >       12       23       23       27       28 </v>
   <v type="int" >       12       22       23       27       28 </v>
   <v type="int" >        6       19       19       24       24 </v>
   <v type="int" >       12       18       19       24       24 </v>
   <v type="int" >       12       18       23       24       24 </v>
   <v type="int" >        6       23       23       24       24 </v>
   <v type="int" >       12        3        4        6       21 </v>
   <v type="int" >       12        4        6       21       26 </v>
   <v type="int" >       12        4        5        6       26 </v>
   <v type="int" >        6       59       59       60       60 </v>
   <v type="int" >        6       23       23       27       27 </v>
   <v type="int" >       12       22       23       27       27 </v>
   <v type="int" >       12        4        5        5       26 </v>
   <v type="int" >        6        5        5       26       26 </v>
   <v type="int" >        6        1        1        8        8 </v>
  </varray>
  <i name="volumeweight">      0.00032552 </i>
 </kpoints>
 <parameters>
  <separator name="general" >
   <i type="string" name="SYSTEM">unknown system</i>
   <i type="logical" name="LCOMPAT"> F  </i>
  </separator>
  <separator name="electronic" >
   <i type="string" name="PREC">accura</i>
   <i name="ENMAX">    520.00000000</i>
   <i name="ENAUG">    265.42700000</i>
   <i name="EDIFF">      0.00001000</i>
   <i type="int" name="IALGO">    38</i>
   <i type="int" name="IWAVPR">    10</i>
   <i type="int" name="NBANDS">    16</i>
   <i name="NELECT">     10.00000000</i>
   <i type="int" name="TURBO">     0</i>
   <i type="int" name="IRESTART">     0</i>
   <i type="int" name="NREBOOT">     0</i>
   <i type="int" name="NMIN">     0</i>
   <i name="EREF">      0.00000000</i>
   <separator name="electronic smearing" >
    <i type="int" name="ISMEAR">    -5</i>
    <i name="SIGMA">      0.05000000</i>
    <i name="KSPACING">      0.50000000</i>
    <i type="logical" name="KGAMMA"> T  </i>
   </separator>
   <separator name="electronic projectors" >
    <i type="logical" name="LREAL"> T  </i>
    <v name="ROPT">     -0.00025000</v>
    <i type="int" name="LMAXPAW">  -100</i>
    <i type="int" name="LMAXMIX">     2</i>
    <i type="logical" name="NLSPLINE"> F  </i>
   </separator>
   <separator name="electronic startup" >
    <i type="int" name="ISTART">     0</i>
    <i type="int" name="ICHARG">     2</i>
    <i type="int" name="INIWAV">     1</i>
   </separator>
   <separator name="electronic spin" >
    <i type="int" name="ISPIN">     2</i>
    <i type="logical" name="LNONCOLLINEAR"> F  </i>
    <v name="MAGMOM">      0.00000000      0.00000000</v>
    <i name="NUPDOWN">     -1.00000000</i>
    <i type="logical" name="LSORBIT"> F  </i>
    <v name="SAXIS">      0.00000000      0.00000000      1.00000000</v>
    <i type="logical" name="LSPIRAL"> F  </i>
    <v name="QSPIRAL">      0.00000000      0.00000000      0.00000000</v>
    <i type="logical" name="LZEROZ"> F  </i>
   </separator>
   <separator name="electronic exchange-correlation" >
    <i type="logical" name="LASPH"> T  </i>
    <i type="logical" name="LMETAGGA"> F  </i>
   </separator>
   <separator name="electronic convergence" >
    <i type="int" name="NELM">   100</i>
    <i type="int" name="NELMDL">    -6</i>
    <i type="int" name="NELMIN">     2</i>
    <i name="ENINI">    520.00000000</i>
    <separator name="electronic convergence detail" >
     <i type="logical" name="LDIAG"> T  </i>
     <i type="logical" name="LSUBROT"> F  </i>
     <i name="WEIMIN">      0.00000000</i>
     <i name="EBREAK">      0.00000016</i>
     <i name="DEPER">      0.30000000</i>
     <i type="int" name="NRMM">     4</i>
     <i name="TIME">      0.40000000</i>
    </separator>
   </separator>
   <separator name="electronic mixer" >
    <i name="AMIX">      0.40000000</i>
    <i name="BMIX">      0.00100000</i>
    <i name="AMIN">      0.10000000</i>
    <i name="AMIX_MAG">      0.80000000</i>
    <i name="BMIX_MAG">      0.00100000</i>
    <separator name="electronic mixer details" >
     <i type="int" name="IMIX">     4</i>
     <i type="logical" name="MIXFIRST"> F  </i>
     <i type="int" name="MAXMIX">   -45</i>
     <i name="WC">    100.00000000</i>
     <i type="int" name="INIMIX">     1</i>
     <i type="int" name="MIXPRE">     1</i>
     <i type="int" name="MREMOVE">     5</i>
    </separator>
   </separator>
   <separator name="electronic dipolcorrection" >
    <i type="logical" name="LDIPOL"> F  </i>
    <i type="logical" name="LMONO"> F  </i>
    <i type="int" name="IDIPOL">     0</i>
    <i name="EPSILON">      1.00000000</i>
    <v name="DIPOL">   -100.00000000   -100.00000000   -100.00000000</v>
    <i name="EFIELD">      0.00000000</i>
   </separator>
  </separator>
  <separator name="grids" >
   <i type="int" name="NGX">    36</i>
   <i type="int" name="NGY">    36</i>
   <i type="int" name="NGZ">    36</i>
   <i type="int" name="NGXF">    72</i>
   <i type="int" name="NGYF">    72</i>
   <i type="int" name="NGZF">    72</i>
   <i type="logical" name="ADDGRID"> T  </i>
  </separator>
  <separator name="ionic" >
   <i type="int" name="NSW">     0</i>
   <i type="int" name="IBRION">    -1</i>
   <i type="int" name="MDALGO">     0</i>
   <i type="int" name="ISIF">     3</i>
   <i name="PSTRESS">      0.00000000</i>
   <i name="EDIFFG">     -0.05000000</i>
   <i type="int" name="NFREE">     0</i>
   <i name="POTIM">      0.50000000</i>
   <i name="SMASS">     -3.00000000</i>
   <i name="SCALEE">      1.00000000</i>
  </separator>
  <separator name="ionic md" >
   <i name="TEBEG">      0.00010000</i>
   <i name="TEEND">      0.00010000</i>
   <i type="int" name="NBLOCK">     1</i>
   <i type="int" name="KBLOCK">     1</i>
   <i type="int" name="NPACO">   256</i>
   <i name="APACO">     16.00000000</i>
  </separator>
  <separator name="symmetry" >
   <i type="int" name="ISYM">     2</i>
   <i name="SYMPREC">      0.00001000</i>
  </separator>
  <separator name="dos" >
   <i type="int" name="LORBIT">    11</i>
   <v name="RWIGS">     -1.00000000</v>
   <i type="int" name="NEDOS">   301</i>
   <i name="EMIN">     10.00000000</i>
   <i name="EMAX">    -10.00000000</i>
   <i name="EFERMI">      0.00000000</i>
  </separator>
  <separator name="writing" >
   <i type="int" name="NWRITE">     2</i>
   <i type="logical" name="LWAVE"> F  </i>
   <i type="logical" name="LDOWNSAMPLE"> F  </i>
   <i type="logical" name="LCHARG"> T  </i>
   <i type="logical" name="LPARD"> F  </i>
   <i type="logical" name="LVTOT"> F  </i>
   <i type="logical" name="LVHAR"> T  </i>
   <i type="logical" name="LELF"> F  </i>
   <i type="logical" name="LOPTICS"> F  </i>
   <v name="STM">      0.00000000      0.00000000      0.00000000      0.00000000      0.00000000      0.00000000      0.00000000</v>
  </separator>
  <separator name="performance" >
   <i type="int" name="NPAR">     8</i>
   <i type="int" name="NSIM">     4</i>
   <i type="int" name="NBLK">    -1</i>
   <i type="logical" name="LPLANE"> T  </i>
   <i type="logical" name="LSCALAPACK"> T  </i>
   <i type="logical" name="LSCAAWARE"> F  </i>
   <i type="logical" name="LSCALU"> F  </i>
   <i type="logical" name="LASYNC"> F  </i>
   <i type="logical" name="LORBITALREAL"> F  </i>
  </separator>
  <separator name="miscellaneous" >
   <i type="int" name="IDIOT">     3</i>
   <i type="int" name="ISPECIAL">     0</i>
   <i type="logical" name="LMUSIC"> F  </i>
   <v name="POMASS">    208.98000000</v>
   <v name="DARWINR">      0.00000000</v>
   <v name="DARWINV">      1.00000000</v>
   <i type="logical" name="LCORR"> T  </i>
  </separator>
  <i type="logical" name="GGA_COMPAT"> T  </i>
  <i type="logical" name="LBERRY"> F  </i>
  <i type="int" name="ICORELEVEL">     0</i>
  <i type="logical" name="LDAU"> F  </i>
  <i type="int" name="I_CONSTRAINED_M">     0</i>
  <separator name="electronic exchange-correlation" >
   <i type="string" name="GGA">--</i>
   <i type="int" name="VOSKOWN">     0</i>
   <i type="logical" name="LHFCALC"> F  </i>
   <i type="string" name="PRECFOCK"></i>
   <i type="logical" name="LSYMGRAD"> F  </i>
   <i type="logical" name="LHFONE"> F  </i>
   <i type="logical" name="LRHFCALC"> F  </i>
   <i type="logical" name="LTHOMAS"> F  </i>
   <i type="logical" name="LMODELHF"> F  </i>
   <i type="logical" name="LFOCKACE"> F  </i>
   <i name="ENCUT4O">     -1.00000000</i>
   <i type="int" name="EXXOEP">     0</i>
   <i type="int" name="FOURORBIT">     0</i>
   <i name="AEXX">      0.00000000</i>
   <i name="HFALPHA">      0.00000000</i>
   <i name="MCALPHA">      0.00000000</i>
   <i name="ALDAX">      1.00000000</i>
   <i name="AGGAX">      1.00000000</i>
   <i name="ALDAC">      1.00000000</i>
   <i name="AGGAC">      1.00000000</i>
   <i type="int" name="NKREDX">     1</i>
   <i type="int" name="NKREDY">     1</i>
   <i type="int" name="NKREDZ">     1</i>
   <i type="logical" name="SHIFTRED"> F  </i>
   <i type="logical" name="ODDONLY"> F  </i>
   <i type="logical" name="EVENONLY"> F  </i>
   <i type="int" name="LMAXFOCK">     0</i>
   <i type="int" name="NMAXFOCKAE">     0</i>
   <i type="logical" name="LFOCKAEDFT"> F  </i>
   <i name="HFSCREEN">      0.00000000</i>
   <i name="HFSCREENC">      0.00000000</i>
   <i type="int" name="NBANDSGWLOW">     0</i>
  </separator>
  <separator name="vdW DFT" >
   <i type="logical" name="LUSE_VDW"> F  </i>
   <i name="Zab_VDW">     -0.84910000</i>
   <i name="PARAM1">      0.12340000</i>
   <i name="PARAM2">      1.00000000</i>
   <i name="PARAM3">      0.00000000</i>
  </separator>
  <separator name="model GW" >
   <i type="int" name="MODEL_GW">     0</i>
   <i name="MODEL_EPS0">     21.01217832</i>
   <i name="MODEL_ALPHA">      1.00000000</i>
  </separator>
  <separator name="linear response parameters" >
   <i type="logical" name="LEPSILON"> F  </i>
   <i type="logical" name="LRPA"> F  </i>
   <i type="logical" name="LNABLA"> F  </i>
   <i type="logical" name="LVEL"> F  </i>
   <i type="int" name="KINTER">     0</i>
   <i name="CSHIFT">      0.10000000</i>
   <i name="OMEGAMAX">     -1.00000000</i>
   <i name="DEG_THRESHOLD">      0.00200000</i>
   <i name="RTIME">     -0.10000000</i>
   <i name="WPLASMAI">      0.00000000</i>
   <v name="DFIELD">      0.00000000      0.00000000      0.00000000</v>
   <v name="WPLASMA">      0.00000000      0.00000000      0.00000000      0.00000000      0.00000000      0.00000000      0.00000000      0.00000000      0.00000000</v>
  </separator>
  <separator name="orbital magnetization" >
   <i type="logical" name="NUCIND"> F  </i>
   <v name="MAGPOS">      0.00000000      0.00000000      0.00000000</v>
   <i type="logical" name="LNICSALL"> T  </i>
   <i type="logical" name="ORBITALMAG"> F  </i>
   <i type="logical" name="LMAGBLOCH"> F  </i>
   <i type="logical" name="LCHIMAG"> F  </i>
   <i type="logical" name="LGAUGE"> T  </i>
   <i type="int" name="MAGATOM">     0</i>
   <v name="MAGDIPOL">      0.00000000      0.00000000      0.00000000</v>
   <v name="AVECCONST">      0.00000000      0.00000000      0.00000000</v>
  </separator>
  <separator name="response functions" >
   <i type="logical" name="LADDER"> F  </i>
   <i type="logical" name="LRPAFORCE"> F  </i>
   <i type="logical" name="LFXC"> F  </i>
   <i type="logical" name="LHARTREE"> T  </i>
   <i type="int" name="IBSE">     0</i>
   <v type="int" name="KPOINT">    -1     0     0     0</v>
   <i type="logical" name="LTCTE"> F  </i>
   <i type="logical" name="LTETE"> F  </i>
   <i type="logical" name="LTRIPLET"> F  </i>
   <i type="logical" name="LFXCEPS"> F  </i>
   <i type="logical" name="LFXHEG"> F  </i>
   <i type="int" name="NATURALO">     2</i>
   <i type="logical" name="L2ORDER"> F  </i>
   <i type="logical" name="LMP2LT"> F  </i>
   <i type="logical" name="LUSEW"> F  </i>
   <i name="ENCUTGW">     -2.00000000</i>
   <i name="ENCUTGWSOFT">     -2.00000000</i>
   <i name="ENCUTLF">     -1.00000000</i>
   <i type="int" name="LMAXMP2">    -1</i>
   <i name="SCISSOR">      0.00000000</i>
   <i type="int" name="NOMEGA">     0</i>
   <i type="int" name="NOMEGAR">     0</i>
   <i type="int" name="NBANDSGW">    -1</i>
   <i type="int" name="NBANDSO">    -1</i>
   <i type="int" name="NBANDSV">    -1</i>
   <i type="int" name="NELM">   100</i>
   <i type="int" name="NELMHF">     1</i>
   <i type="int" name="DIM">     3</i>
   <i type="int" name="ANTIRES">     0</i>
   <i name="OMEGAMAX">    -30.00000000</i>
   <i name="OMEGAMIN">    -30.00000000</i>
   <i name="OMEGATL">   -200.00000000</i>
   <i type="int" name="OMEGAGRID">   140</i>
   <i name="CSHIFT">     -0.10000000</i>
   <i type="logical" name="SELFENERGY"> F  </i>
   <i type="logical" name="LSPECTRAL"> F  </i>
   <i type="logical" name="LSPECTRALGW"> F  </i>
   <i type="logical" name="LSINGLES"> F  </i>
   <i type="logical" name="LFERMIGW"> F  </i>
   <i type="logical" name="ODDONLYGW"> F  </i>
   <i type="logical" name="EVENONLYGW"> F  </i>
   <i type="int" name="NKREDLFX">     1</i>
   <i type="int" name="NKREDLFY">     1</i>
   <i type="int" name="NKREDLFZ">     1</i>
   <i type="int" name="MAXMEM">  2800</i>
   <i type="int" name="TELESCOPE">     0</i>
   <i type="int" name="TAUPAR">     1</i>
   <i type="int" name="OMEGAPAR">    -1</i>
   <i name="LAMBDA">      1.00000000</i>
  </separator>
  <separator name="External order field" >
   <i name="OFIELD_KAPPA">      0.00000000</i>
   <v name="OFIELD_K">      0.00000000      0.00000000      0.00000000</v>
   <i name="OFIELD_Q6_NEAR">      0.00000000</i>
   <i name="OFIELD_Q6_FAR">      0.00000000</i>
   <i name="OFIELD_A">      0.00000000</i>
  </separator>
 </parameters>
 <atominfo>
  <atoms>       2 </atoms>
  <types>       1 </types>
  <array name="atoms" >
   <dimension dim="1">ion</dimension>
   <field type="string">element</field>
   <field type="int">atomtype</field>
   <set>
    <rc><c>Bi</c><c>   1</c></rc>
    <rc><c>Bi</c><c>   1</c></rc>
   </set>
  </array>
  <array name="atomtypes" >
   <dimension dim="1">type</dimension>
   <field type="int">atomspertype</field>
   <field type="string">element</field>
   <field>mass</field>
   <field>valence</field>
   <field type="string">pseudopotential</field>
   <set>
    <rc><c>   2</c><c>Bi</c><c>    208.98000000</c><c>      5.00000000</c><c> PAW_PBE Bi 08Apr2002                   </c></rc>
   </set>
  </array>
 </atominfo>
 <structure name="initialpos" >
  <crystal>
   <varray name="basis" >
    <v>       3.97062800      -0.01718700       2.52612800 </v>
    <v>       1.37824500       3.72379200       2.52612800 </v>
    <v>      -0.02480100      -0.01718700       4.70601700 </v>
   </varray>
   <i name="volume">     70.04059440 </i>
   <varray name="rec_basis" >
    <v>       0.25082090      -0.09349856       0.00098037 </v>
    <v>       0.00053491       0.26768039       0.00098042 </v>
    <v>      -0.13492449      -0.09349851       0.21144139 </v>
   </varray>
  </crystal>
  <varray name="positions" >
   <v>       0.23465600       0.23465600       0.23465600 </v>
   <v>       0.76534400       0.76534400       0.76534400 </v>
  </varray>
 </structure>
 <calculation>
  <scstep>
   <time name="dav">   15.21    1.94</time>
   <time name="total">   22.93    7.44</time>
   <energy>
    <i name="alphaZ">      3.42601119 </i>
    <i name="ewald">   -310.71786193 </i>
    <i name="hartreedc">    -12.71669924 </i>
    <i name="XCdc">   -237.53852469 </i>
    <i name="pawpsdc">    377.06337611 </i>
    <i name="pawaedc">   -268.17759008 </i>
    <i name="eentropy">      0.00000000 </i>
    <i name="bandstr">     16.44199140 </i>
    <i name="atom">    301.62628180 </i>
    <i name="e_fr_energy">   -130.59301544 </i>
    <i name="e_wo_entrp">   -130.59301544 </i>
    <i name="e_0_energy">   -130.59301544 </i>
   </energy>
  </scstep>
  <scstep>
   <time name="dav">   18.54    2.33</time>
   <time name="total">   18.64    2.39</time>
   <energy>
    <i name="e_fr_energy">   -160.71020407 </i>
    <i name="e_wo_entrp">   -160.71020407 </i>
    <i name="e_0_energy">   -160.71020407 </i>
   </energy>
  </scstep>
  <scstep>
   <time name="dav">   21.82    2.79</time>
   <time name="total">   21.84    2.81</time>
   <energy>
    <i name="e_fr_energy">   -162.70049849 </i>
    <i name="e_wo_entrp">   -162.70049849 </i>
    <i name="e_0_energy">   -162.70049849 </i>
   </energy>
  </scstep>
  <scstep>
   <time name="dav">   18.61    2.34</time>
   <time name="total">   18.76    2.36</time>
   <energy>
    <i name="e_fr_energy">   -162.79807631 </i>
    <i name="e_wo_entrp">   -162.79807631 </i>
    <i name="e_0_energy">   -162.79807631 </i>
   </energy>
  </scstep>
  <scstep>
   <time name="dav">   17.70    2.22</time>
   <time name="total">   17.88    2.24</time>
   <energy>
    <i name="e_fr_energy">   -162.79987628 </i>
    <i name="e_wo_entrp">   -162.79987628 </i>
    <i name="e_0_energy">   -162.79987628 </i>
   </energy>
  </scstep>
  <scstep>
   <time name="dav">   18.66    2.34</time>
   <time name="total">   23.16    3.13</time>
   <energy>
    <i name="e_fr_energy">   -162.79992772 </i>
    <i name="e_wo_entrp">   -162.79992772 </i>
    <i name="e_0_energy">   -162.79992772 </i>
   </energy>
  </scstep>
  <scstep>
   <time name="dav">   17.70    2.22</time>
   <time name="total">   29.46    8.53</time>
   <energy>
    <i name="e_fr_energy">   -156.39123586 </i>
    <i name="e_wo_entrp">   -156.39123586 </i>
    <i name="e_0_energy">   -156.39123586 </i>
   </energy>
  </scstep>
  <scstep>
   <time name="dav">   17.60    2.20</time>
   <time name="total">   29.30    8.48</time>
   <energy>
    <i name="e_fr_energy">   -157.38809185 </i>
    <i name="e_wo_entrp">   -157.38809185 </i>
    <i name="e_0_energy">   -157.38809185 </i>
   </energy>
  </scstep>
  <scstep>
   <time name="dav">   17.14    2.15</time>
   <time name="total">   28.71    8.40</time>
   <energy>
    <i name="e_fr_energy">   -157.29045370 </i>
    <i name="e_wo_entrp">   -157.29045370 </i>
    <i name="e_0_energy">   -157.29045370 </i>
   </energy>
  </scstep>
  <scstep>
   <time name="dav">   15.34    1.92</time>
   <time name="total">   26.95    8.17</time>
   <energy>
    <i name="e_fr_energy">   -157.92245318 </i>
    <i name="e_wo_entrp">   -157.92245318 </i>
    <i name="e_0_energy">   -157.92245318 </i>
   </energy>
  </scstep>
  <scstep>
   <time name="dav">   17.80    2.23</time>
   <time name="total">   29.26    8.47</time>
   <energy>
    <i name="e_fr_energy">   -157.85145786 </i>
    <i name="e_wo_entrp">   -157.85145786 </i>
    <i name="e_0_energy">   -157.85145786 </i>
   </energy>
  </scstep>
  <scstep>
   <time name="dav">   15.40    1.93</time>
   <time name="total">   27.03    8.17</time>
   <energy>
    <i name="e_fr_energy">   -157.51846334 </i>
    <i name="e_wo_entrp">   -157.51846334 </i>
    <i name="e_0_energy">   -157.51846334 </i>
   </energy>
  </scstep>
  <scstep>
   <time name="dav">   15.10    1.89</time>
   <time name="total">   26.82    8.18</time>
   <energy>
    <i name="e_fr_energy">   -157.78184559 </i>
    <i name="e_wo_entrp">   -157.78184559 </i>
    <i name="e_0_energy">   -157.78184559 </i>
   </energy>
  </scstep>
  <scstep>
   <time name="dav">   14.40    1.80</time>
   <time name="total">   26.05    8.06</time>
   <energy>
    <i name="e_fr_energy">   -157.41827646 </i>
    <i name="e_wo_entrp">   -157.41827646 </i>
    <i name="e_0_energy">   -157.41827646 </i>
   </energy>
  </scstep>
  <scstep>
   <time name="dav">   14.41    1.80</time>
   <time name="total">   26.12    8.06</time>
   <energy>
    <i name="e_fr_energy">   -157.55219334 </i>
    <i name="e_wo_entrp">   -157.55219334 </i>
    <i name="e_0_energy">   -157.55219334 </i>
   </energy>
  </scstep>
  <scstep>
   <time name="dav">   14.46    1.81</time>
   <time name="total">   26.10    8.06</time>
   <energy>
    <i name="e_fr_energy">   -157.61337474 </i>
    <i name="e_wo_entrp">   -157.61337474 </i>
    <i name="e_0_energy">   -157.61337474 </i>
   </energy>
  </scstep>
  <scstep>
   <time name="dav">   14.38    1.80</time>
   <time name="total">   26.12    8.07</time>
   <energy>
    <i name="e_fr_energy">   -157.66513867 </i>
    <i name="e_wo_entrp">   -157.66513867 </i>
    <i name="e_0_energy">   -157.66513867 </i>
   </energy>
  </scstep>
  <scstep>
   <time name="dav">   14.44    1.81</time>
   <time name="total">   26.06    8.05</time>
   <energy>
    <i name="e_fr_energy">   -157.65992822 </i>
    <i name="e_wo_entrp">   -157.65992822 </i>
    <i name="e_0_energy">   -157.65992822 </i>
   </energy>
  </scstep>
  <scstep>
   <time name="dav">   14.39    1.80</time>
   <time name="total">   26.07    8.05</time>
   <energy>
    <i name="e_fr_energy">   -157.53019155 </i>
    <i name="e_wo_entrp">   -157.53019155 </i>
    <i name="e_0_energy">   -157.53019155 </i>
   </energy>
  </scstep>
  <scstep>
   <time name="dav">   14.47    1.81</time>
   <time name="total">   26.09    8.06</time>
   <energy>
    <i name="e_fr_energy">   -157.51390638 </i>
    <i name="e_wo_entrp">   -157.51390638 </i>
    <i name="e_0_energy">   -157.51390638 </i>
   </energy>
  </scstep>
  <scstep>
   <time name="dav">   14.44    1.81</time>
   <time name="total">   26.42    8.14</time>
   <energy>
    <i name="e_fr_energy">   -157.47803282 </i>
    <i name="e_wo_entrp">   -157.47803282 </i>
    <i name="e_0_energy">   -157.47803282 </i>
   </energy>
  </scstep>
  <scstep>
   <time name="dav">   14.42    1.80</time>
   <time name="total">   26.21    8.09</time>
   <energy>
    <i name="e_fr_energy">   -157.51864947 </i>
    <i name="e_wo_entrp">   -157.51864947 </i>
    <i name="e_0_energy">   -157.51864947 </i>
   </energy>
  </scstep>
  <scstep>
   <time name="dav">   14.48    1.81</time>
   <time name="total">   26.39    8.10</time>
   <energy>
    <i name="e_fr_energy">   -157.60753221 </i>
    <i name="e_wo_entrp">   -157.60753221 </i>
    <i name="e_0_energy">   -157.60753221 </i>
   </energy>
  </scstep>
  <scstep>
   <time name="dav">   14.33    1.79</time>
   <time name="total">   26.09    8.05</time>
   <energy>
    <i name="e_fr_energy">   -157.60662177 </i>
    <i name="e_wo_entrp">   -157.60662177 </i>
    <i name="e_0_energy">   -157.60662177 </i>
   </energy>
  </scstep>
  <scstep>
   <time name="dav">   14.33    1.79</time>
   <time name="total">   26.26    8.11</time>
   <energy>
    <i name="e_fr_energy">   -157.68058783 </i>
    <i name="e_wo_entrp">   -157.68058783 </i>
    <i name="e_0_energy">   -157.68058783 </i>
   </energy>
  </scstep>
  <scstep>
   <time name="dav">   14.47    1.81</time>
   <time name="total">   26.17    8.07</time>
   <energy>
    <i name="e_fr_energy">   -157.66596736 </i>
    <i name="e_wo_entrp">   -157.66596736 </i>
    <i name="e_0_energy">   -157.66596736 </i>
   </energy>
  </scstep>
  <scstep>
   <time name="dav">   14.32    1.79</time>
   <time name="total">   26.18    8.07</time>
   <energy>
    <i name="e_fr_energy">   -157.65651957 </i>
    <i name="e_wo_entrp">   -157.65651957 </i>
    <i name="e_0_energy">   -157.65651957 </i>
   </energy>
  </scstep>
  <scstep>
   <time name="dav">   14.43    1.80</time>
   <time name="total">   26.13    8.06</time>
   <energy>
    <i name="e_fr_energy">   -157.65540395 </i>
    <i name="e_wo_entrp">   -157.65540395 </i>
    <i name="e_0_energy">   -157.65540395 </i>
   </energy>
  </scstep>
  <scstep>
   <time name="dav">   14.39    1.80</time>
   <time name="total">   26.12    8.07</time>
   <energy>
    <i name="e_fr_energy">   -157.63349621 </i>
    <i name="e_wo_entrp">   -157.63349621 </i>
    <i name="e_0_energy">   -157.63349621 </i>
   </energy>
  </scstep>
  <scstep>
   <time name="dav">   14.32    1.79</time>
   <time name="total">   26.01    8.06</time>
   <energy>
    <i name="e_fr_energy">   -157.61690505 </i>
    <i name="e_wo_entrp">   -157.61690505 </i>
    <i name="e_0_energy">   -157.61690505 </i>
   </energy>
  </scstep>
  <scstep>
   <time name="dav">   14.37    1.80</time>
   <time name="total">   26.19    8.07</time>
   <energy>
    <i name="e_fr_energy">   -157.60136208 </i>
    <i name="e_wo_entrp">   -157.60136208 </i>
    <i name="e_0_energy">   -157.60136208 </i>
   </energy>
  </scstep>
  <scstep>
   <time name="dav">   14.29    1.79</time>
   <time name="total">   25.98    8.04</time>
   <energy>
    <i name="e_fr_energy">   -157.61142522 </i>
    <i name="e_wo_entrp">   -157.61142522 </i>
    <i name="e_0_energy">   -157.61142522 </i>
   </energy>
  </scstep>
  <scstep>
   <time name="dav">   14.47    1.81</time>
   <time name="total">   26.38    8.10</time>
   <energy>
    <i name="e_fr_energy">   -157.59750131 </i>
    <i name="e_wo_entrp">   -157.59750131 </i>
    <i name="e_0_energy">   -157.59750131 </i>
   </energy>
  </scstep>
  <scstep>
   <time name="dav">   14.51    1.81</time>
   <time name="total">   26.19    8.10</time>
   <energy>
    <i name="e_fr_energy">   -157.62271254 </i>
    <i name="e_wo_entrp">   -157.62271254 </i>
    <i name="e_0_energy">   -157.62271254 </i>
   </energy>
  </scstep>
  <scstep>
   <time name="dav">   14.30    1.79</time>
   <time name="total">   26.49    8.63</time>
   <energy>
    <i name="e_fr_energy">   -157.60704529 </i>
    <i name="e_wo_entrp">   -157.60704529 </i>
    <i name="e_0_energy">   -157.60704529 </i>
   </energy>
  </scstep>
  <scstep>
   <time name="dav">   14.31    1.79</time>
   <time name="total">   26.12    8.06</time>
   <energy>
    <i name="e_fr_energy">   -157.62063493 </i>
    <i name="e_wo_entrp">   -157.62063493 </i>
    <i name="e_0_energy">   -157.62063493 </i>
   </energy>
  </scstep>
  <scstep>
   <time name="dav">   14.32    1.79</time>
   <time name="total">   75.63   94.31</time>
   <energy>
    <i name="e_fr_energy">   -157.59823141 </i>
    <i name="e_wo_entrp">   -157.59823141 </i>
    <i name="e_0_energy">   -157.59823141 </i>
   </energy>
  </scstep>
  <scstep>
   <time name="dav">   14.32    1.79</time>
   <time name="total">   26.00    8.25</time>
   <energy>
    <i name="e_fr_energy">   -157.62516770 </i>
    <i name="e_wo_entrp">   -157.62516770 </i>
    <i name="e_0_energy">   -157.62516770 </i>
   </energy>
  </scstep>
  <scstep>
   <time name="dav">   14.32    1.79</time>
   <time name="total">   26.25    8.09</time>
   <energy>
    <i name="e_fr_energy">   -157.60482205 </i>
    <i name="e_wo_entrp">   -157.60482205 </i>
    <i name="e_0_energy">   -157.60482205 </i>
   </energy>
  </scstep>
  <scstep>
   <time name="dav">   14.33    1.79</time>
   <time name="total">   26.04    8.05</time>
   <energy>
    <i name="e_fr_energy">   -157.62190488 </i>
    <i name="e_wo_entrp">   -157.62190488 </i>
    <i name="e_0_energy">   -157.62190488 </i>
   </energy>
  </scstep>
  <scstep>
   <time name="dav">   14.48    1.81</time>
   <time name="total">   26.32    8.12</time>
   <energy>
    <i name="e_fr_energy">   -157.60790752 </i>
    <i name="e_wo_entrp">   -157.60790752 </i>
    <i name="e_0_energy">   -157.60790752 </i>
   </energy>
  </scstep>
  <scstep>
   <time name="dav">   14.32    1.79</time>
   <time name="total">   26.03    8.06</time>
   <energy>
    <i name="e_fr_energy">   -157.62620993 </i>
    <i name="e_wo_entrp">   -157.62620993 </i>
    <i name="e_0_energy">   -157.62620993 </i>
   </energy>
  </scstep>
  <scstep>
   <time name="dav">   14.31    1.79</time>
   <time name="total">   26.30    8.09</time>
   <energy>
    <i name="e_fr_energy">   -157.59342200 </i>
    <i name="e_wo_entrp">   -157.59342200 </i>
    <i name="e_0_energy">   -157.59342200 </i>
   </energy>
  </scstep>
  <scstep>
   <time name="dav">   14.42    1.80</time>
   <time name="total">   26.17    8.06</time>
   <energy>
    <i name="e_fr_energy">   -157.61778270 </i>
    <i name="e_wo_entrp">   -157.61778270 </i>
    <i name="e_0_energy">   -157.61778270 </i>
   </energy>
  </scstep>
  <scstep>
   <time name="dav">   14.28    1.79</time>
   <time name="total">   26.24    8.10</time>
   <energy>
    <i name="e_fr_energy">   -157.61402616 </i>
    <i name="e_wo_entrp">   -157.61402616 </i>
    <i name="e_0_energy">   -157.61402616 </i>
   </energy>
  </scstep>
  <scstep>
   <time name="dav">   14.35    1.79</time>
   <time name="total">   26.09    8.10</time>
   <energy>
    <i name="e_fr_energy">   -157.60419346 </i>
    <i name="e_wo_entrp">   -157.60419346 </i>
    <i name="e_0_energy">   -157.60419346 </i>
   </energy>
  </scstep>
  <scstep>
   <time name="dav">   14.29    1.79</time>
   <time name="total">   26.26    8.09</time>
   <energy>
    <i name="e_fr_energy">   -157.61950777 </i>
    <i name="e_wo_entrp">   -157.61950777 </i>
    <i name="e_0_energy">   -157.61950777 </i>
   </energy>
  </scstep>
  <scstep>
   <time name="dav">   14.33    1.79</time>
   <time name="total">   26.04    8.05</time>
   <energy>
    <i name="e_fr_energy">   -157.59589186 </i>
    <i name="e_wo_entrp">   -157.59589186 </i>
    <i name="e_0_energy">   -157.59589186 </i>
   </energy>
  </scstep>
  <scstep>
   <time name="dav">   14.48    1.81</time>
   <time name="total">   26.32    8.11</time>
   <energy>
    <i name="e_fr_energy">   -157.64057512 </i>
    <i name="e_wo_entrp">   -157.64057512 </i>
    <i name="e_0_energy">   -157.64057512 </i>
   </energy>
  </scstep>
  <scstep>
   <time name="dav">   14.50    1.81</time>
   <time name="total">   26.40    8.11</time>
   <energy>
    <i name="e_fr_energy">   -157.59945479 </i>
    <i name="e_wo_entrp">   -157.59945479 </i>
    <i name="e_0_energy">   -157.59945479 </i>
   </energy>
  </scstep>
  <scstep>
   <time name="dav">   14.47    1.81</time>
   <time name="total">   26.47    8.14</time>
   <energy>
    <i name="e_fr_energy">   -157.65318335 </i>
    <i name="e_wo_entrp">   -157.65318335 </i>
    <i name="e_0_energy">   -157.65318335 </i>
   </energy>
  </scstep>
  <scstep>
   <time name="dav">   14.32    1.79</time>
   <time name="total">   26.00    8.04</time>
   <energy>
    <i name="e_fr_energy">   -157.59081297 </i>
    <i name="e_wo_entrp">   -157.59081297 </i>
    <i name="e_0_energy">   -157.59081297 </i>
   </energy>
  </scstep>
  <scstep>
   <time name="dav">   14.46    1.81</time>
   <time name="total">   26.30    8.10</time>
   <energy>
    <i name="e_fr_energy">   -157.63186876 </i>
    <i name="e_wo_entrp">   -157.63186876 </i>
    <i name="e_0_energy">   -157.63186876 </i>
   </energy>
  </scstep>
  <scstep>
   <time name="dav">   14.41    1.80</time>
   <time name="total">   26.18    8.08</time>
   <energy>
    <i name="e_fr_energy">   -157.57610004 </i>
    <i name="e_wo_entrp">   -157.57610004 </i>
    <i name="e_0_energy">   -157.57610004 </i>
   </energy>
  </scstep>
  <scstep>
   <time name="dav">   14.32    1.79</time>
   <time name="total">   26.24    8.08</time>
   <energy>
    <i name="e_fr_energy">   -157.63794085 </i>
    <i name="e_wo_entrp">   -157.63794085 </i>
    <i name="e_0_energy">   -157.63794085 </i>
   </energy>
  </scstep>
  <scstep>
   <time name="dav">   14.40    1.80</time>
   <time name="total">   26.12    8.05</time>
   <energy>
    <i name="e_fr_energy">   -157.57584537 </i>
    <i name="e_wo_entrp">   -157.57584537 </i>
    <i name="e_0_energy">   -157.57584537 </i>
   </energy>
  </scstep>
  <scstep>
   <time name="dav">   14.31    1.79</time>
   <time name="total">   26.06    8.05</time>
   <energy>
    <i name="e_fr_energy">   -157.64220915 </i>
    <i name="e_wo_entrp">   -157.64220915 </i>
    <i name="e_0_energy">   -157.64220915 </i>
   </energy>
  </scstep>
  <scstep>
   <time name="dav">   14.32    1.79</time>
   <time name="total">   26.09    8.07</time>
   <energy>
    <i name="e_fr_energy">   -157.57787547 </i>
    <i name="e_wo_entrp">   -157.57787547 </i>
    <i name="e_0_energy">   -157.57787547 </i>
   </energy>
  </scstep>
  <scstep>
   <time name="dav">   14.32    1.79</time>
   <time name="total">   26.08    8.08</time>
   <energy>
    <i name="e_fr_energy">   -157.64775534 </i>
    <i name="e_wo_entrp">   -157.64775534 </i>
    <i name="e_0_energy">   -157.64775534 </i>
   </energy>
  </scstep>
  <scstep>
   <time name="dav">   14.33    1.79</time>
   <time name="total">   26.10    8.05</time>
   <energy>
    <i name="e_fr_energy">   -157.57201070 </i>
    <i name="e_wo_entrp">   -157.57201070 </i>
    <i name="e_0_energy">   -157.57201070 </i>
   </energy>
  </scstep>
  <scstep>
   <time name="dav">   14.29    1.79</time>
   <time name="total">   26.04    8.05</time>
   <energy>
    <i name="e_fr_energy">   -157.64274340 </i>
    <i name="e_wo_entrp">   -157.64274340 </i>
    <i name="e_0_energy">   -157.64274340 </i>
   </energy>
  </scstep>
  <scstep>
   <time name="dav">   14.31    1.79</time>
   <time name="total">   26.03    8.04</time>
   <energy>
    <i name="e_fr_energy">   -157.59277658 </i>
    <i name="e_wo_entrp">   -157.59277658 </i>
    <i name="e_0_energy">   -157.59277658 </i>
   </energy>
  </scstep>
  <scstep>
   <time name="dav">   14.32    1.79</time>
   <time name="total">   26.07    8.08</time>
   <energy>
    <i name="e_fr_energy">   -157.66238015 </i>
    <i name="e_wo_entrp">   -157.66238015 </i>
    <i name="e_0_energy">   -157.66238015 </i>
   </energy>
  </scstep>
  <scstep>
   <time name="dav">   14.30    1.79</time>
   <time name="total">   26.02    8.05</time>
   <energy>
    <i name="e_fr_energy">   -157.59132197 </i>
    <i name="e_wo_entrp">   -157.59132197 </i>
    <i name="e_0_energy">   -157.59132197 </i>
   </energy>
  </scstep>
  <scstep>
   <time name="dav">   14.33    1.79</time>
   <time name="total">   26.09    8.05</time>
   <energy>
    <i name="e_fr_energy">   -157.66464632 </i>
    <i name="e_wo_entrp">   -157.66464632 </i>
    <i name="e_0_energy">   -157.66464632 </i>
   </energy>
  </scstep>
  <scstep>
   <time name="dav">   14.32    1.79</time>
   <time name="total">   26.08    8.06</time>
   <energy>
    <i name="e_fr_energy">   -157.61014570 </i>
    <i name="e_wo_entrp">   -157.61014570 </i>
    <i name="e_0_energy">   -157.61014570 </i>
   </energy>
  </scstep>
  <scstep>
   <time name="dav">   14.30    1.79</time>
   <time name="total">   26.06    8.06</time>
   <energy>
    <i name="e_fr_energy">   -157.65712428 </i>
    <i name="e_wo_entrp">   -157.65712428 </i>
    <i name="e_0_energy">   -157.65712428 </i>
   </energy>
  </scstep>
  <scstep>
   <time name="dav">   14.29    1.79</time>
   <time name="total">   25.99    8.04</time>
   <energy>
    <i name="e_fr_energy">   -157.60179229 </i>
    <i name="e_wo_entrp">   -157.60179229 </i>
    <i name="e_0_energy">   -157.60179229 </i>
   </energy>
  </scstep>
  <scstep>
   <time name="dav">   14.31    1.79</time>
   <time name="total">   26.06    8.05</time>
   <energy>
    <i name="e_fr_energy">   -157.66343385 </i>
    <i name="e_wo_entrp">   -157.66343385 </i>
    <i name="e_0_energy">   -157.66343385 </i>
   </energy>
  </scstep>
  <scstep>
   <time name="dav">   14.42    1.80</time>
   <time name="total">   26.19    8.08</time>
   <energy>
    <i name="e_fr_energy">   -157.60450821 </i>
    <i name="e_wo_entrp">   -157.60450821 </i>
    <i name="e_0_energy">   -157.60450821 </i>
   </energy>
  </scstep>
  <scstep>
   <time name="dav">   14.89   41.97</time>
   <time name="total">   68.60   90.14</time>
   <energy>
    <i name="e_fr_energy">   -157.65664809 </i>
    <i name="e_wo_entrp">   -157.65664809 </i>
    <i name="e_0_energy">   -157.65664809 </i>
   </energy>
  </scstep>
  <scstep>
   <time name="dav">   14.31    1.79</time>
   <time name="total">   26.00    8.04</time>
   <energy>
    <i name="e_fr_energy">   -157.61840646 </i>
    <i name="e_wo_entrp">   -157.61840646 </i>
    <i name="e_0_energy">   -157.61840646 </i>
   </energy>
  </scstep>
  <scstep>
   <time name="dav">   14.38    1.80</time>
   <time name="total">   26.18    8.07</time>
   <energy>
    <i name="e_fr_energy">   -157.67289563 </i>
    <i name="e_wo_entrp">   -157.67289563 </i>
    <i name="e_0_energy">   -157.67289563 </i>
   </energy>
  </scstep>
  <scstep>
   <time name="dav">   14.32    1.79</time>
   <time name="total">   26.04    8.04</time>
   <energy>
    <i name="e_fr_energy">   -157.62539732 </i>
    <i name="e_wo_entrp">   -157.62539732 </i>
    <i name="e_0_energy">   -157.62539732 </i>
   </energy>
  </scstep>
  <scstep>
   <time name="dav">   14.34    1.79</time>
   <time name="total">   26.30    8.09</time>
   <energy>
    <i name="e_fr_energy">   -157.65813506 </i>
    <i name="e_wo_entrp">   -157.65813506 </i>
    <i name="e_0_energy">   -157.65813506 </i>
   </energy>
  </scstep>
  <scstep>
   <time name="dav">   14.32    1.79</time>
   <time name="total">   26.10    8.06</time>
   <energy>
    <i name="e_fr_energy">   -157.62337787 </i>
    <i name="e_wo_entrp">   -157.62337787 </i>
    <i name="e_0_energy">   -157.62337787 </i>
   </energy>
  </scstep>
  <scstep>
   <time name="dav">   14.49    1.81</time>
   <time name="total">   26.24    8.08</time>
   <energy>
    <i name="e_fr_energy">   -157.65837027 </i>
    <i name="e_wo_entrp">   -157.65837027 </i>
    <i name="e_0_energy">   -157.65837027 </i>
   </energy>
  </scstep>
  <scstep>
   <time name="dav">   14.32    1.79</time>
   <time name="total">   26.08    8.06</time>
   <energy>
    <i name="e_fr_energy">   -157.62584358 </i>
    <i name="e_wo_entrp">   -157.62584358 </i>
    <i name="e_0_energy">   -157.62584358 </i>
   </energy>
  </scstep>
  <scstep>
   <time name="dav">   14.31    1.79</time>
   <time name="total">   26.10    8.06</time>
   <energy>
    <i name="e_fr_energy">   -157.66058632 </i>
    <i name="e_wo_entrp">   -157.66058632 </i>
    <i name="e_0_energy">   -157.66058632 </i>
   </energy>
  </scstep>
  <scstep>
   <time name="dav">   14.34    1.79</time>
   <time name="total">   26.16    8.08</time>
   <energy>
    <i name="e_fr_energy">   -157.62213287 </i>
    <i name="e_wo_entrp">   -157.62213287 </i>
    <i name="e_0_energy">   -157.62213287 </i>
   </energy>
  </scstep>
  <scstep>
   <time name="dav">   14.33    1.79</time>
   <time name="total">   26.03    8.04</time>
   <energy>
    <i name="e_fr_energy">   -157.65991752 </i>
    <i name="e_wo_entrp">   -157.65991752 </i>
    <i name="e_0_energy">   -157.65991752 </i>
   </energy>
  </scstep>
  <scstep>
   <time name="dav">   14.34    1.79</time>
   <time name="total">   26.12    8.06</time>
   <energy>
    <i name="e_fr_energy">   -157.62428486 </i>
    <i name="e_wo_entrp">   -157.62428486 </i>
    <i name="e_0_energy">   -157.62428486 </i>
   </energy>
  </scstep>
  <scstep>
   <time name="dav">   14.47    1.81</time>
   <time name="total">   26.29    8.09</time>
   <energy>
    <i name="e_fr_energy">   -157.66306732 </i>
    <i name="e_wo_entrp">   -157.66306732 </i>
    <i name="e_0_energy">   -157.66306732 </i>
   </energy>
  </scstep>
  <scstep>
   <time name="dav">   14.32    1.79</time>
   <time name="total">   26.14    8.09</time>
   <energy>
    <i name="e_fr_energy">   -157.62064406 </i>
    <i name="e_wo_entrp">   -157.62064406 </i>
    <i name="e_0_energy">   -157.62064406 </i>
   </energy>
  </scstep>
  <scstep>
   <time name="dav">   14.32    1.79</time>
   <time name="total">   26.04    8.05</time>
   <energy>
    <i name="e_fr_energy">   -157.65934259 </i>
    <i name="e_wo_entrp">   -157.65934259 </i>
    <i name="e_0_energy">   -157.65934259 </i>
   </energy>
  </scstep>
  <scstep>
   <time name="dav">   14.38    1.80</time>
   <time name="total">   26.08    8.04</time>
   <energy>
    <i name="e_fr_energy">   -157.61913422 </i>
    <i name="e_wo_entrp">   -157.61913422 </i>
    <i name="e_0_energy">   -157.61913422 </i>
   </energy>
  </scstep>
  <scstep>
   <time name="dav">   14.37    1.80</time>
   <time name="total">   26.19    8.08</time>
   <energy>
    <i name="e_fr_energy">   -157.66008384 </i>
    <i name="e_wo_entrp">   -157.66008384 </i>
    <i name="e_0_energy">   -157.66008384 </i>
   </energy>
  </scstep>
  <scstep>
   <time name="dav">   14.32    1.79</time>
   <time name="total">   26.08    8.07</time>
   <energy>
    <i name="e_fr_energy">   -157.61776636 </i>
    <i name="e_wo_entrp">   -157.61776636 </i>
    <i name="e_0_energy">   -157.61776636 </i>
   </energy>
  </scstep>
  <scstep>
   <time name="dav">   14.30    1.79</time>
   <time name="total">   26.09    8.06</time>
   <energy>
    <i name="e_fr_energy">   -157.65917057 </i>
    <i name="e_wo_entrp">   -157.65917057 </i>
    <i name="e_0_energy">   -157.65917057 </i>
   </energy>
  </scstep>
  <scstep>
   <time name="dav">   14.34    1.79</time>
   <time name="total">   26.08    8.05</time>
   <energy>
    <i name="e_fr_energy">   -157.61183144 </i>
    <i name="e_wo_entrp">   -157.61183144 </i>
    <i name="e_0_energy">   -157.61183144 </i>
   </energy>
  </scstep>
  <scstep>
   <time name="dav">   14.34    1.79</time>
   <time name="total">   26.20    8.09</time>
   <energy>
    <i name="e_fr_energy">   -157.65303482 </i>
    <i name="e_wo_entrp">   -157.65303482 </i>
    <i name="e_0_energy">   -157.65303482 </i>
   </energy>
  </scstep>
  <scstep>
   <time name="dav">   14.32    1.79</time>
   <time name="total">   26.09    8.07</time>
   <energy>
    <i name="e_fr_energy">   -157.60567733 </i>
    <i name="e_wo_entrp">   -157.60567733 </i>
    <i name="e_0_energy">   -157.60567733 </i>
   </energy>
  </scstep>
  <scstep>
   <time name="dav">   14.33    1.79</time>
   <time name="total">   26.23    8.06</time>
   <energy>
    <i name="e_fr_energy">   -157.64415859 </i>
    <i name="e_wo_entrp">   -157.64415859 </i>
    <i name="e_0_energy">   -157.64415859 </i>
   </energy>
  </scstep>
  <scstep>
   <time name="dav">   14.32    1.79</time>
   <time name="total">   26.12    8.05</time>
   <energy>
    <i name="e_fr_energy">   -157.59917256 </i>
    <i name="e_wo_entrp">   -157.59917256 </i>
    <i name="e_0_energy">   -157.59917256 </i>
   </energy>
  </scstep>
  <scstep>
   <time name="dav">   14.32    1.79</time>
   <time name="total">   26.12    8.08</time>
   <energy>
    <i name="e_fr_energy">   -157.63949640 </i>
    <i name="e_wo_entrp">   -157.63949640 </i>
    <i name="e_0_energy">   -157.63949640 </i>
   </energy>
  </scstep>
  <scstep>
   <time name="dav">   14.30    1.79</time>
   <time name="total">   26.14    8.09</time>
   <energy>
    <i name="e_fr_energy">   -157.59466623 </i>
    <i name="e_wo_entrp">   -157.59466623 </i>
    <i name="e_0_energy">   -157.59466623 </i>
   </energy>
  </scstep>
  <scstep>
   <time name="dav">   14.33    1.79</time>
   <time name="total">   26.07    8.06</time>
   <energy>
    <i name="e_fr_energy">   -157.64275989 </i>
    <i name="e_wo_entrp">   -157.64275989 </i>
    <i name="e_0_energy">   -157.64275989 </i>
   </energy>
  </scstep>
  <scstep>
   <time name="dav">   14.34    1.79</time>
   <time name="total">   26.82    8.47</time>
   <energy>
    <i name="e_fr_energy">   -157.58602617 </i>
    <i name="e_wo_entrp">   -157.58602617 </i>
    <i name="e_0_energy">   -157.58602617 </i>
   </energy>
  </scstep>
  <scstep>
   <time name="dav">   14.33    1.79</time>
   <time name="total">   26.07    8.05</time>
   <energy>
    <i name="e_fr_energy">   -157.64366415 </i>
    <i name="e_wo_entrp">   -157.64366415 </i>
    <i name="e_0_energy">   -157.64366415 </i>
   </energy>
  </scstep>
  <scstep>
   <time name="dav">   14.39    1.80</time>
   <time name="total">   22.07    7.37</time>
   <energy>
    <i name="alphaZ">      3.42601119 </i>
    <i name="ewald">   -310.71786193 </i>
    <i name="hartreedc">    -13.42142446 </i>
    <i name="XCdc">   -238.10044545 </i>
    <i name="pawpsdc">    400.14656089 </i>
    <i name="pawaedc">   -292.76135216 </i>
    <i name="eentropy">      0.00000000 </i>
    <i name="bandstr">     -7.78205860 </i>
    <i name="atom">    301.62628180 </i>
    <i name="e_fr_energy">   -157.58428872 </i>
    <i name="e_wo_entrp">   -157.58428872 </i>
    <i name="e_0_energy">   -157.58428872 </i>
   </energy>
  </scstep>
  <structure>
   <crystal>
    <varray name="basis" >
     <v>       3.97062800      -0.01718700       2.52612800 </v>
     <v>       1.37824500       3.72379200       2.52612800 </v>
     <v>      -0.02480100      -0.01718700       4.70601700 </v>
    </varray>
    <i name="volume">     70.04059440 </i>
    <varray name="rec_basis" >
     <v>       0.25082090      -0.09349856       0.00098037 </v>
     <v>       0.00053491       0.26768039       0.00098042 </v>
     <v>      -0.13492449      -0.09349851       0.21144139 </v>
    </varray>
   </crystal>
   <varray name="positions" >
    <v>       0.23465600       0.23465600       0.23465600 </v>
    <v>       0.76534400       0.76534400       0.76534400 </v>
   </varray>
  </structure>
  <varray name="forces" >
   <v>       0.10322128       0.07152917       0.18919006 </v>
   <v>      -0.10322128      -0.07152917      -0.18919006 </v>
  </varray>
  <varray name="stress" >
   <v>      13.90083967       2.23622649       5.91467344 </v>
   <v>       2.23622649      12.22345955       4.09868511 </v>
   <v>       5.91467344       4.09868511      21.51458242 </v>
  </varray>
  <energy>
   <i name="e_fr_energy">   -157.58428872 </i>
   <i name="e_wo_entrp">   -157.58428872 </i>
   <i name="e_0_energy">      0.00000000 </i>
  </energy>
  <time name="totalsc"> 2787.71  976.78</time>
  <eigenvalues>
   <array>
    <dimension dim="1">band</dimension>
    <dimension dim="2">kpoint</dimension>
    <dimension dim="3">spin</dimension>
    <field>eigene</field>
    <field>occ</field>
    <set>
     <set comment="spin 1">
      <set comment="kpoint 1">
       <r>   -8.5725    1.0000 </r>
       <r>   -2.6756    1.0000 </r>
       <r>    3.5500    1.0000 </r>
       <r>    3.6723    1.0000 </r>
       <r>    3.6745    1.0000 </r>
       <r>    7.3160    0.0000 </r>
       <r>    8.0570    0.0000 </r>
       <r>    8.0573    0.0000 </r>
       <r>   10.9331    0.0000 </r>
       <r>   11.2489    0.0000 </r>
       <r>   11.2496    0.0000 </r>
       <r>   12.1082    0.0000 </r>
       <r>   12.4249    0.0000 </r>
       <r>   13.5924    0.0000 </r>
       <r>   13.5930    0.0000 </r>
       <r>   22.0069    0.0000 </r>
      </set>
      <set comment="kpoint 2">
       <r>   -8.3777    1.0000 </r>
       <r>   -3.1364    1.0000 </r>
       <r>    3.1714    1.0000 </r>
       <r>    3.8824    1.0000 </r>
       <r>    4.0432    1.0000 </r>
       <r>    6.7573    0.0000 </r>
       <r>    7.2741    0.0000 </r>
       <r>    8.0228    0.0000 </r>
       <r>   10.5804    0.0000 </r>
       <r>   11.3727    0.0000 </r>
       <r>   11.4919    0.0000 </r>
       <r>   13.0657    0.0000 </r>
       <r>   13.6978    0.0000 </r>
       <r>   14.5844    0.0000 </r>
       <r>   14.7754    0.0000 </r>
       <r>   19.7200    0.0000 </r>
      </set>
      <set comment="kpoint 3">
       <r>   -7.8882    1.0000 </r>
       <r>   -4.0814    1.0000 </r>
       <r>    2.9260    1.0000 </r>
       <r>    4.0294    1.0000 </r>
       <r>    4.5147    1.0000 </r>
       <r>    5.7667    0.0000 </r>
       <r>    6.4337    0.0000 </r>
       <r>    7.5100    0.0000 </r>
       <r>   10.8262    0.0000 </r>
       <r>   12.0875    0.0000 </r>
       <r>   12.2424    0.0000 </r>
       <r>   14.8387    0.0000 </r>
       <r>   15.9418    0.0000 </r>
       <r>   16.4852    0.0000 </r>
       <r>   16.5840    0.0000 </r>
       <r>   17.5588    0.0000 </r>
      </set>
      <set comment="kpoint 4">
       <r>   -7.1441    1.0000 </r>
       <r>   -5.1951    1.0000 </r>
       <r>    2.9874    1.0000 </r>
       <r>    3.9909    1.0000 </r>
       <r>    4.8710    1.0000 </r>
       <r>    4.9742    0.0000 </r>
       <r>    6.0062    0.0000 </r>
       <r>    6.7381    0.0000 </r>
       <r>   12.1101    0.0000 </r>
       <r>   13.3447    0.0000 </r>
       <r>   13.3983    0.0000 </r>
       <r>   14.6982    0.0000 </r>
       <r>   16.2749    0.0000 </r>
       <r>   17.3061    0.0000 </r>
       <r>   18.0877    0.0000 </r>
       <r>   18.8005    0.0000 </r>
      </set>
      <set comment="kpoint 5">
       <r>   -6.6051    1.0000 </r>
       <r>   -5.8412    1.0000 </r>
       <r>    3.3519    1.0000 </r>
       <r>    3.7311    1.0000 </r>
       <r>    4.2292    1.0000 </r>
       <r>    5.4561    0.0000 </r>
       <r>    6.1184    0.0000 </r>
       <r>    6.1864    0.0000 </r>
       <r>   12.5439    0.0000 </r>
       <r>   14.0396    0.0000 </r>
       <r>   14.5718    0.0000 </r>
       <r>   14.9387    0.0000 </r>
       <r>   15.3724    0.0000 </r>
       <r>   15.4532    0.0000 </r>
       <r>   19.3908    0.0000 </r>
       <r>   20.0505    0.0000 </r>
      </set>
      <set comment="kpoint 6">
       <r>   -7.3718    1.0000 </r>
       <r>   -4.8705    1.0000 </r>
       <r>    3.4872    1.0000 </r>
       <r>    3.7834    1.0000 </r>
       <r>    3.8997    1.0000 </r>
       <r>    5.6398    0.0000 </r>
       <r>    6.2872    0.0000 </r>
       <r>    6.7889    0.0000 </r>
       <r>   11.1373    0.0000 </r>
       <r>   12.8292    0.0000 </r>
       <r>   13.6551    0.0000 </r>
       <r>   15.7297    0.0000 </r>
       <r>   16.6175    0.0000 </r>
       <r>   17.2627    0.0000 </r>
       <r>   17.7359    0.0000 </r>
       <r>   17.8929    0.0000 </r>
      </set>
      <set comment="kpoint 7">
       <r>   -8.0523    1.0000 </r>
       <r>   -3.7586    1.0000 </r>
       <r>    3.4043    1.0000 </r>
       <r>    3.4974    1.0000 </r>
       <r>    4.2259    1.0000 </r>
       <r>    5.9780    0.0000 </r>
       <r>    7.0174    0.0000 </r>
       <r>    7.5765    0.0000 </r>
       <r>   10.3806    0.0000 </r>
       <r>   11.6263    0.0000 </r>
       <r>   12.3560    0.0000 </r>
       <r>   14.4510    0.0000 </r>
       <r>   15.1167    0.0000 </r>
       <r>   15.3468    0.0000 </r>
       <r>   16.6675    0.0000 </r>
       <r>   19.5443    0.0000 </r>
      </set>
      <set comment="kpoint 8">
       <r>   -8.4620    1.0000 </r>
       <r>   -2.9174    1.0000 </r>
       <r>    3.3953    1.0000 </r>
       <r>    3.4862    1.0000 </r>
       <r>    4.0654    1.0000 </r>
       <r>    6.8639    0.0000 </r>
       <r>    7.6278    0.0000 </r>
       <r>    8.1851    0.0000 </r>
       <r>   10.4782    0.0000 </r>
       <r>   11.2669    0.0000 </r>
       <r>   11.5582    0.0000 </r>
       <r>   12.5837    0.0000 </r>
       <r>   13.2415    0.0000 </r>
       <r>   13.7367    0.0000 </r>
       <r>   14.7160    0.0000 </r>
       <r>   21.8135    0.0000 </r>
      </set>
      <set comment="kpoint 9">
       <r>   -8.2975    1.0000 </r>
       <r>   -3.2680    1.0000 </r>
       <r>    2.9902    1.0000 </r>
       <r>    3.2325    1.0000 </r>
       <r>    4.9084    1.0000 </r>
       <r>    5.7711    0.0000 </r>
       <r>    7.8847    0.0000 </r>
       <r>    8.4055    0.0000 </r>
       <r>   10.2340    0.0000 </r>
       <r>   11.7921    0.0000 </r>
       <r>   12.2004    0.0000 </r>
       <r>   12.8343    0.0000 </r>
       <r>   13.8016    0.0000 </r>
       <r>   13.8844    0.0000 </r>
       <r>   16.2092    0.0000 </r>
       <r>   20.0209    0.0000 </r>
      </set>
      <set comment="kpoint 10">
       <r>   -7.9258    1.0000 </r>
       <r>   -3.8857    1.0000 </r>
       <r>    2.4506    1.0000 </r>
       <r>    3.1784    1.0000 </r>
       <r>    4.3334    1.0000 </r>
       <r>    6.1697    0.0000 </r>
       <r>    7.6102    0.0000 </r>
       <r>    8.4697    0.0000 </r>
       <r>   10.0720    0.0000 </r>
       <r>   12.5848    0.0000 </r>
       <r>   12.8675    0.0000 </r>
       <r>   13.7236    0.0000 </r>
       <r>   14.8127    0.0000 </r>
       <r>   15.7239    0.0000 </r>
       <r>   17.2652    0.0000 </r>
       <r>   18.2701    0.0000 </r>
      </set>
      <set comment="kpoint 11">
       <r>   -7.2919    1.0000 </r>
       <r>   -4.8134    1.0000 </r>
       <r>    2.2282    1.0000 </r>
       <r>    2.8339    1.0000 </r>
       <r>    3.9978    1.0000 </r>
       <r>    6.3656    0.0000 </r>
       <r>    7.4003    0.0000 </r>
       <r>    8.1013    0.0000 </r>
       <r>   10.5682    0.0000 </r>
       <r>   13.6739    0.0000 </r>
       <r>   13.8955    0.0000 </r>
       <r>   14.7043    0.0000 </r>
       <r>   15.5192    0.0000 </r>
       <r>   17.1838    0.0000 </r>
       <r>   17.6155    0.0000 </r>
       <r>   18.3978    0.0000 </r>
      </set>
      <set comment="kpoint 12">
       <r>   -6.5352    1.0000 </r>
       <r>   -5.7372    1.0000 </r>
       <r>    2.2550    1.0000 </r>
       <r>    2.5097    1.0000 </r>
       <r>    4.2417    1.0000 </r>
       <r>    5.7957    0.0000 </r>
       <r>    7.3485    0.0000 </r>
       <r>    7.9488    0.0000 </r>
       <r>   12.0290    0.0000 </r>
       <r>   12.5883    0.0000 </r>
       <r>   14.7248    0.0000 </r>
       <r>   15.1826    0.0000 </r>
       <r>   15.7963    0.0000 </r>
       <r>   17.5779    0.0000 </r>
       <r>   18.7909    0.0000 </r>
       <r>   18.9194    0.0000 </r>
      </set>
      <set comment="kpoint 13">
       <r>   -6.9286    1.0000 </r>
       <r>   -5.2903    1.0000 </r>
       <r>    2.0905    1.0000 </r>
       <r>    3.0762    1.0000 </r>
       <r>    4.4105    1.0000 </r>
       <r>    5.5646    0.0000 </r>
       <r>    6.6662    0.0000 </r>
       <r>    8.4662    0.0000 </r>
       <r>   11.1557    0.0000 </r>
       <r>   13.0892    0.0000 </r>
       <r>   14.0096    0.0000 </r>
       <r>   15.6320    0.0000 </r>
       <r>   15.8411    0.0000 </r>
       <r>   17.6956    0.0000 </r>
       <r>   18.0820    0.0000 </r>
       <r>   19.3695    0.0000 </r>
      </set>
      <set comment="kpoint 14">
       <r>   -7.6611    1.0000 </r>
       <r>   -4.3160    1.0000 </r>
       <r>    2.3132    1.0000 </r>
       <r>    3.9439    1.0000 </r>
       <r>    4.0469    1.0000 </r>
       <r>    5.9757    0.0000 </r>
       <r>    6.2552    0.0000 </r>
       <r>    8.6975    0.0000 </r>
       <r>   10.3556    0.0000 </r>
       <r>   12.0779    0.0000 </r>
[...]
       </set>
       <set comment="band 12">
        <r>  0.0045  0.0148  0.0440  0.0308  0.0046  0.0433  0.0063  0.0902  0.0007 </r>
        <r>  0.0045  0.0148  0.0440  0.0309  0.0047  0.0433  0.0063  0.0900  0.0006 </r>
       </set>
       <set comment="band 13">
        <r>  0.0000  0.0249  0.0000  0.0119  0.0236  0.0075  0.0000  0.0036  0.1674 </r>
        <r>  0.0000  0.0249  0.0000  0.0120  0.0235  0.0076  0.0000  0.0037  0.1670 </r>
       </set>
       <set comment="band 14">
        <r>  0.0433  0.0008  0.0747  0.0017  0.0724  0.0192  0.0076  0.0398  0.0102 </r>
        <r>  0.0433  0.0008  0.0748  0.0017  0.0719  0.0191  0.0077  0.0400  0.0101 </r>
       </set>
       <set comment="band 15">
        <r>  0.0000  0.0179  0.0000  0.0086  0.0037  0.2182  0.0000  0.1049  0.0266 </r>
        <r>  0.0000  0.0178  0.0000  0.0086  0.0038  0.2186  0.0000  0.1048  0.0265 </r>
       </set>
       <set comment="band 16">
        <r>  0.0012  0.0014  0.0076  0.0028  0.0141  0.0122  0.0507  0.0254  0.0020 </r>
        <r>  0.0012  0.0013  0.0075  0.0028  0.0139  0.0121  0.0507  0.0253  0.0020 </r>
       </set>
      </set>
      <set comment="kpoint 56">
       <set comment="band 1">
        <r>  0.4042  0.0006  0.0106  0.0081  0.0006  0.0003  0.0003  0.0004  0.0001 </r>
        <r>  0.4042  0.0006  0.0106  0.0081  0.0006  0.0003  0.0003  0.0004  0.0001 </r>
       </set>
       <set comment="band 2">
        <r>  0.4002  0.0003  0.0132  0.0061  0.0008  0.0004  0.0006  0.0001  0.0001 </r>
        <r>  0.4003  0.0003  0.0132  0.0062  0.0008  0.0004  0.0006  0.0001  0.0001 </r>
       </set>
       <set comment="band 3">
        <r>  0.0123  0.0773  0.1147  0.1084  0.0026  0.0004  0.0006  0.0017  0.0006 </r>
        <r>  0.0123  0.0775  0.1146  0.1082  0.0027  0.0004  0.0006  0.0017  0.0006 </r>
       </set>
       <set comment="band 4">
        <r>  0.0126  0.1450  0.0162  0.1378  0.0089  0.0022  0.0029  0.0020  0.0000 </r>
        <r>  0.0126  0.1447  0.0162  0.1380  0.0089  0.0022  0.0029  0.0020  0.0000 </r>
       </set>
       <set comment="band 5">
        <r>  0.0276  0.1118  0.1475  0.0495  0.0067  0.0084  0.0003  0.0006  0.0050 </r>
        <r>  0.0276  0.1118  0.1476  0.0495  0.0066  0.0084  0.0003  0.0006  0.0049 </r>
       </set>
       <set comment="band 6">
        <r>  0.0304  0.1102  0.1296  0.0437  0.0013  0.0169  0.0015  0.0021  0.0081 </r>
        <r>  0.0304  0.1102  0.1295  0.0437  0.0013  0.0169  0.0015  0.0021  0.0081 </r>
       </set>
       <set comment="band 7">
        <r>  0.0239  0.1125  0.0042  0.2092  0.0136  0.0013  0.0076  0.0120  0.0028 </r>
        <r>  0.0238  0.1127  0.0043  0.2090  0.0137  0.0013  0.0076  0.0120  0.0028 </r>
       </set>
       <set comment="band 8">
        <r>  0.0116  0.1059  0.1486  0.0653  0.0269  0.0095  0.0051  0.0072  0.0012 </r>
        <r>  0.0116  0.1058  0.1484  0.0655  0.0267  0.0095  0.0051  0.0072  0.0012 </r>
       </set>
       <set comment="band 9">
        <r>  0.0045  0.0038  0.0309  0.0131  0.0207  0.0007  0.0917  0.0040  0.0033 </r>
        <r>  0.0044  0.0038  0.0310  0.0131  0.0206  0.0007  0.0916  0.0040  0.0032 </r>
       </set>
       <set comment="band 10">
        <r>  0.0035  0.0017  0.0148  0.0320  0.0098  0.0121  0.0037  0.0437  0.0595 </r>
        <r>  0.0035  0.0017  0.0149  0.0321  0.0098  0.0120  0.0037  0.0436  0.0598 </r>
       </set>
       <set comment="band 11">
        <r>  0.0006  0.0198  0.0116  0.0008  0.0007  0.0300  0.0122  0.0510  0.0729 </r>
        <r>  0.0006  0.0199  0.0116  0.0008  0.0007  0.0302  0.0122  0.0507  0.0727 </r>
       </set>
       <set comment="band 12">
        <r>  0.0130  0.0329  0.0352  0.0012  0.0388  0.0259  0.0076  0.0335  0.0440 </r>
        <r>  0.0128  0.0329  0.0351  0.0011  0.0386  0.0261  0.0076  0.0334  0.0441 </r>
       </set>
       <set comment="band 13">
        <r>  0.0130  0.0011  0.0179  0.0214  0.0321  0.0949  0.0044  0.0256  0.1311 </r>
        <r>  0.0129  0.0011  0.0176  0.0219  0.0319  0.0938  0.0045  0.0258  0.1344 </r>
       </set>
       <set comment="band 14">
        <r>  0.0118  0.0018  0.0074  0.0371  0.0184  0.0851  0.0016  0.0412  0.0546 </r>
        <r>  0.0118  0.0018  0.0078  0.0366  0.0186  0.0862  0.0016  0.0411  0.0518 </r>
       </set>
       <set comment="band 15">
        <r>  0.0239  0.0108  0.0118  0.0179  0.1107  0.0282  0.1004  0.0327  0.0273 </r>
        <r>  0.0239  0.0109  0.0119  0.0178  0.1087  0.0273  0.1027  0.0339  0.0273 </r>
       </set>
       <set comment="band 16">
        <r>  0.0046  0.0197  0.0552  0.0013  0.0439  0.0419  0.0572  0.0704  0.0075 </r>
        <r>  0.0045  0.0194  0.0551  0.0013  0.0452  0.0428  0.0555  0.0692  0.0074 </r>
       </set>
      </set>
      <set comment="kpoint 57">
       <set comment="band 1">
        <r>  0.4114  0.0001  0.0085  0.0093  0.0008  0.0009  0.0005  0.0004  0.0002 </r>
        <r>  0.4114  0.0001  0.0085  0.0093  0.0008  0.0009  0.0005  0.0004  0.0002 </r>
       </set>
       <set comment="band 2">
        <r>  0.4103  0.0009  0.0056  0.0072  0.0013  0.0008  0.0005  0.0006  0.0002 </r>
        <r>  0.4103  0.0009  0.0056  0.0072  0.0013  0.0008  0.0005  0.0006  0.0002 </r>
       </set>
       <set comment="band 3">
        <r>  0.0009  0.0933  0.1380  0.0698  0.0012  0.0000  0.0010  0.0004  0.0003 </r>
        <r>  0.0009  0.0934  0.1379  0.0695  0.0012  0.0000  0.0010  0.0004  0.0003 </r>
       </set>
       <set comment="band 4">
        <r>  0.0091  0.1239  0.0025  0.1757  0.0048  0.0013  0.0019  0.0011  0.0005 </r>
        <r>  0.0091  0.1236  0.0025  0.1760  0.0048  0.0013  0.0019  0.0011  0.0005 </r>
       </set>
       <set comment="band 5">
        <r>  0.0279  0.1085  0.1514  0.0486  0.0008  0.0120  0.0008  0.0020  0.0022 </r>
        <r>  0.0279  0.1085  0.1514  0.0486  0.0008  0.0120  0.0008  0.0020  0.0022 </r>
       </set>
       <set comment="band 6">
        <r>  0.0295  0.1104  0.1425  0.0471  0.0048  0.0117  0.0009  0.0021  0.0089 </r>
        <r>  0.0295  0.1103  0.1425  0.0471  0.0048  0.0117  0.0009  0.0021  0.0089 </r>
       </set>
       <set comment="band 7">
        <r>  0.0094  0.1140  0.0026  0.1928  0.0270  0.0017  0.0040  0.0167  0.0053 </r>
        <r>  0.0094  0.1142  0.0026  0.1926  0.0270  0.0017  0.0040  0.0168  0.0053 </r>
       </set>
       <set comment="band 8">
        <r>  0.0037  0.1054  0.1597  0.0496  0.0178  0.0055  0.0236  0.0018  0.0012 </r>
        <r>  0.0037  0.1052  0.1596  0.0498  0.0176  0.0055  0.0236  0.0018  0.0012 </r>
       </set>
       <set comment="band 9">
        <r>  0.0082  0.0151  0.0004  0.0549  0.0070  0.0132  0.0001  0.0376  0.0540 </r>
        <r>  0.0083  0.0151  0.0004  0.0550  0.0071  0.0131  0.0001  0.0375  0.0541 </r>
       </set>
       <set comment="band 10">
        <r>  0.0016  0.0310  0.0506  0.0222  0.0179  0.0025  0.0840  0.0010  0.0057 </r>
        <r>  0.0016  0.0311  0.0507  0.0222  0.0178  0.0025  0.0839  0.0010  0.0057 </r>
       </set>
       <set comment="band 11">
        <r>  0.0046  0.0120  0.0171  0.0016  0.0097  0.0317  0.0117  0.0472  0.0750 </r>
        <r>  0.0045  0.0120  0.0171  0.0016  0.0097  0.0320  0.0118  0.0466  0.0749 </r>
       </set>
       <set comment="band 12">
        <r>  0.0373  0.0018  0.0081  0.0102  0.0319  0.0907  0.0099  0.0403  0.0014 </r>
        <r>  0.0372  0.0018  0.0080  0.0102  0.0316  0.0906  0.0099  0.0404  0.0014 </r>
       </set>
       <set comment="band 13">
        <r>  0.0410  0.0101  0.0026  0.0451  0.1680  0.0238  0.0461  0.0002  0.0034 </r>
        <r>  0.0411  0.0101  0.0026  0.0452  0.1677  0.0241  0.0464  0.0002  0.0031 </r>
       </set>
       <set comment="band 14">
        <r>  0.0111  0.0129  0.0054  0.0072  0.0156  0.0808  0.0031  0.0005  0.1082 </r>
        <r>  0.0108  0.0128  0.0054  0.0070  0.0156  0.0806  0.0032  0.0004  0.1090 </r>
       </set>
       <set comment="band 15">
        <r>  0.0060  0.0008  0.0126  0.0087  0.0202  0.0100  0.0042  0.1483  0.1249 </r>
        <r>  0.0058  0.0008  0.0127  0.0085  0.0199  0.0098  0.0043  0.1459  0.1255 </r>
       </set>
       <set comment="band 16">
        <r>  0.0031  0.0033  0.0345  0.0216  0.0072  0.0430  0.0699  0.0872  0.1059 </r>
        <r>  0.0031  0.0032  0.0344  0.0218  0.0072  0.0431  0.0699  0.0883  0.1046 </r>
       </set>
      </set>
      <set comment="kpoint 58">
       <set comment="band 1">
        <r>  0.4080  0.0017  0.0134  0.0036  0.0012  0.0001  0.0005  0.0003  0.0002 </r>
        <r>  0.4080  0.0017  0.0134  0.0036  0.0012  0.0001  0.0005  0.0003  0.0002 </r>
       </set>
       <set comment="band 2">
        <r>  0.4022  0.0008  0.0149  0.0017  0.0014  0.0000  0.0009  0.0000  0.0002 </r>
        <r>  0.4023  0.0008  0.0149  0.0017  0.0014  0.0000  0.0009  0.0000  0.0002 </r>
       </set>
       <set comment="band 3">
        <r>  0.0085  0.0884  0.0239  0.1841  0.0021  0.0008  0.0009  0.0016  0.0003 </r>
        <r>  0.0085  0.0884  0.0238  0.1842  0.0021  0.0007  0.0009  0.0016  0.0003 </r>
       </set>
       <set comment="band 4">
        <r>  0.0000  0.2302  0.0000  0.1105  0.0004  0.0070  0.0000  0.0034  0.0028 </r>
        <r>  0.0000  0.2300  0.0000  0.1104  0.0004  0.0070  0.0000  0.0034  0.0027 </r>
       </set>
       <set comment="band 5">
        <r>  0.0400  0.0071  0.2385  0.0148  0.0128  0.0003  0.0015  0.0006  0.0018 </r>
        <r>  0.0400  0.0071  0.2385  0.0148  0.0128  0.0003  0.0015  0.0007  0.0018 </r>
       </set>
       <set comment="band 6">
        <r>  0.0459  0.0029  0.2796  0.0061  0.0092  0.0010  0.0089  0.0021  0.0013 </r>
        <r>  0.0459  0.0029  0.2794  0.0060  0.0091  0.0010  0.0089  0.0021  0.0013 </r>
       </set>
       <set comment="band 7">
        <r>  0.0000  0.2265  0.0000  0.1088  0.0010  0.0305  0.0000  0.0147  0.0068 </r>
        <r>  0.0000  0.2266  0.0000  0.1088  0.0009  0.0305  0.0000  0.0146  0.0067 </r>
       </set>
       <set comment="band 8">
        <r>  0.0142  0.1079  0.0086  0.2247  0.0251  0.0049  0.0016  0.0101  0.0035 </r>
        <r>  0.0142  0.1079  0.0086  0.2246  0.0250  0.0048  0.0016  0.0101  0.0035 </r>
       </set>
       <set comment="band 9">
        <r>  0.0064  0.0017  0.0338  0.0035  0.0196  0.0005  0.0982  0.0011  0.0028 </r>
        <r>  0.0064  0.0017  0.0340  0.0035  0.0195  0.0005  0.0982  0.0011  0.0027 </r>
       </set>
       <set comment="band 10">
        <r>  0.0034  0.0183  0.0121  0.0382  0.0012  0.0292  0.0022  0.0608  0.0002 </r>
        <r>  0.0034  0.0184  0.0121  0.0383  0.0012  0.0291  0.0022  0.0606  0.0002 </r>
       </set>
       <set comment="band 11">
        <r>  0.0000  0.0057  0.0000  0.0028  0.0235  0.0043  0.0000  0.0021  0.1671 </r>
        <r>  0.0000  0.0057  0.0000  0.0027  0.0236  0.0044  0.0000  0.0021  0.1675 </r>
       </set>
       <set comment="band 12">
        <r>  0.0105  0.0175  0.0257  0.0363  0.0746  0.0167  0.0106  0.0348  0.0105 </r>
        <r>  0.0105  0.0174  0.0256  0.0363  0.0743  0.0166  0.0107  0.0347  0.0105 </r>
       </set>
       <set comment="band 13">
        <r>  0.0000  0.0216  0.0000  0.0104  0.0245  0.0033  0.0000  0.0016  0.1750 </r>
        <r>  0.0000  0.0219  0.0000  0.0105  0.0247  0.0037  0.0000  0.0018  0.1754 </r>
       </set>
       <set comment="band 14">
        <r>  0.0331  0.0017  0.0309  0.0036  0.0884  0.0450  0.0829  0.0939  0.0124 </r>
        <r>  0.0336  0.0017  0.0313  0.0035  0.0874  0.0453  0.0832  0.0941  0.0123 </r>
       </set>
       <set comment="band 15">
        <r>  0.0000  0.0269  0.0000  0.0129  0.0017  0.2360  0.0000  0.1137  0.0123 </r>
        <r>  0.0000  0.0266  0.0000  0.0127  0.0017  0.2365  0.0000  0.1132  0.0121 </r>
       </set>
       <set comment="band 16">
        <r>  0.0474  0.0002  0.0869  0.0004  0.0671  0.0178  0.0002  0.0362  0.0094 </r>
        <r>  0.0469  0.0002  0.0868  0.0003  0.0676  0.0170  0.0002  0.0361  0.0095 </r>
       </set>
      </set>
      <set comment="kpoint 59">
       <set comment="band 1">
        <r>  0.4007  0.0020  0.0138  0.0041  0.0001  0.0002  0.0003  0.0004  0.0000 </r>
        <r>  0.4007  0.0020  0.0138  0.0041  0.0001  0.0002  0.0003  0.0004  0.0000 </r>
       </set>
       <set comment="band 2">
        <r>  0.3811  0.0030  0.0210  0.0062  0.0000  0.0000  0.0000  0.0001  0.0000 </r>
        <r>  0.3812  0.0030  0.0210  0.0063  0.0000  0.0000  0.0000  0.0001  0.0000 </r>
       </set>
       <set comment="band 3">
        <r>  0.0877  0.0194  0.1402  0.0404  0.0006  0.0022  0.0032  0.0046  0.0001 </r>
        <r>  0.0875  0.0203  0.1377  0.0423  0.0007  0.0022  0.0031  0.0046  0.0001 </r>
       </set>
       <set comment="band 4">
        <r>  0.0000  0.0856  0.0395  0.2349  0.0072  0.0079  0.0012  0.0046  0.0000 </r>
        <r>  0.0000  0.0856  0.0404  0.2335  0.0057  0.0094  0.0013  0.0031  0.0015 </r>
       </set>
       <set comment="band 5">
        <r>  0.0000  0.2391  0.0692  0.0515  0.0081  0.0054  0.0022  0.0019  0.0034 </r>
        <r>  0.0000  0.2378  0.0710  0.0509  0.0095  0.0038  0.0023  0.0034  0.0019 </r>
       </set>
       <set comment="band 6">
        <r>  0.0000  0.1504  0.0061  0.1420  0.0086  0.0225  0.0001  0.0092  0.0103 </r>
        <r>  0.0000  0.1507  0.0061  0.1421  0.0070  0.0239  0.0001  0.0077  0.0116 </r>
       </set>
       <set comment="band 7">
        <r>  0.0000  0.1187  0.0848  0.0953  0.0333  0.0016  0.0008  0.0046  0.0102 </r>
        <r>  0.0000  0.1183  0.0856  0.0947  0.0346  0.0002  0.0008  0.0061  0.0086 </r>
       </set>
       <set comment="band 8">
        <r>  0.0659  0.0234  0.1658  0.0489  0.0009  0.0032  0.0045  0.0066  0.0001 </r>
        <r>  0.0660  0.0238  0.1646  0.0494  0.0010  0.0032  0.0045  0.0066  0.0001 </r>
       </set>
       <set comment="band 9">
        <r>  0.0026  0.0111  0.0778  0.0232  0.0035  0.0119  0.0168  0.0248  0.0005 </r>
        <r>  0.0026  0.0111  0.0780  0.0232  0.0035  0.0119  0.0168  0.0247  0.0005 </r>
       </set>
       <set comment="band 10">
        <r>  0.0000  0.0073  0.0017  0.0147  0.0355  0.0099  0.0252  0.0135  0.1230 </r>
        <r>  0.0000  0.0073  0.0017  0.0147  0.0449  0.0004  0.0252  0.0230  0.1143 </r>
       </set>
       <set comment="band 11">
        <r>  0.0000  0.0141  0.0055  0.0041  0.0141  0.0192  0.0803  0.0387  0.0553 </r>
        <r>  0.0000  0.0141  0.0056  0.0041  0.0046  0.0286  0.0802  0.0292  0.0647 </r>
       </set>
       <set comment="band 12">
        <r>  0.0083  0.0107  0.0744  0.0222  0.0059  0.0197  0.0278  0.0411  0.0008 </r>
        <r>  0.0084  0.0107  0.0744  0.0222  0.0058  0.0197  0.0277  0.0410  0.0008 </r>
       </set>
       <set comment="band 13">
        <r>  0.0000  0.0098  0.0023  0.0208  0.0387  0.0084  0.0276  0.0173  0.1367 </r>
        <r>  0.0000  0.0099  0.0023  0.0209  0.0468  0.0002  0.0277  0.0257  0.1284 </r>
       </set>
       <set comment="band 14">
        <r>  0.0000  0.0199  0.0078  0.0053  0.0118  0.0242  0.0931  0.0405  0.0590 </r>
        <r>  0.0000  0.0198  0.0078  0.0053  0.0035  0.0325  0.0934  0.0323  0.0671 </r>
       </set>
       <set comment="band 15">
        <r>  0.0000  0.0280  0.0000  0.0143  0.0004  0.1790  0.0001  0.0870  0.0051 </r>
        <r>  0.0000  0.0280  0.0000  0.0143  0.0005  0.1793  0.0001  0.0871  0.0051 </r>
       </set>
       <set comment="band 16">
        <r>  0.0000  0.0102  0.0129  0.0193  0.1455  0.0029  0.0995  0.0037  0.0201 </r>
        <r>  0.0000  0.0101  0.0130  0.0191  0.1449  0.0029  0.1002  0.0035  0.0200 </r>
       </set>
      </set>
      <set comment="kpoint 60">
       <set comment="band 1">
        <r>  0.4034  0.0018  0.0130  0.0060  0.0001  0.0004  0.0003  0.0005  0.0000 </r>
        <r>  0.4034  0.0018  0.0131  0.0060  0.0001  0.0004  0.0003  0.0005  0.0000 </r>
       </set>
       <set comment="band 2">
        <r>  0.3849  0.0021  0.0172  0.0066  0.0001  0.0004  0.0001  0.0002  0.0000 </r>
        <r>  0.3850  0.0021  0.0171  0.0067  0.0001  0.0004  0.0001  0.0002  0.0000 </r>
       </set>
       <set comment="band 3">
        <r>  0.0244  0.0823  0.1202  0.0891  0.0040  0.0020  0.0009  0.0042  0.0004 </r>
        <r>  0.0244  0.0824  0.1201  0.0889  0.0040  0.0020  0.0009  0.0041  0.0004 </r>
       </set>
       <set comment="band 4">
        <r>  0.0000  0.2309  0.0782  0.0322  0.0102  0.0028  0.0026  0.0026  0.0040 </r>
        <r>  0.0000  0.2303  0.0783  0.0327  0.0101  0.0028  0.0026  0.0026  0.0040 </r>
       </set>
       <set comment="band 5">
        <r>  0.0441  0.0139  0.0526  0.1807  0.0055  0.0137  0.0016  0.0014  0.0026 </r>
        <r>  0.0441  0.0144  0.0526  0.1805  0.0055  0.0137  0.0016  0.0014  0.0026 </r>
       </set>
       <set comment="band 6">
        <r>  0.0518  0.0113  0.0541  0.2140  0.0005  0.0100  0.0045  0.0026  0.0004 </r>
        <r>  0.0517  0.0125  0.0541  0.2126  0.0006  0.0099  0.0045  0.0025  0.0004 </r>
       </set>
       <set comment="band 7">
        <r>  0.0000  0.2180  0.0737  0.0300  0.0232  0.0031  0.0012  0.0081  0.0130 </r>
        <r>  0.0000  0.2166  0.0739  0.0312  0.0230  0.0032  0.0012  0.0082  0.0129 </r>
       </set>
       <set comment="band 8">
        <r>  0.0244  0.0872  0.1454  0.0665  0.0170  0.0097  0.0011  0.0114  0.0034 </r>
        <r>  0.0244  0.0874  0.1450  0.0667  0.0169  0.0096  0.0011  0.0114  0.0034 </r>
       </set>
       <set comment="band 9">
        <r>  0.0006  0.0088  0.0527  0.0289  0.0082  0.0104  0.0163  0.0275  0.0293 </r>
        <r>  0.0006  0.0088  0.0529  0.0289  0.0082  0.0104  0.0163  0.0274  0.0296 </r>
       </set>
       <set comment="band 10">
        <r>  0.0063  0.0072  0.0271  0.0092  0.0217  0.0096  0.0183  0.0299  0.0408 </r>
        <r>  0.0063  0.0072  0.0270  0.0092  0.0216  0.0096  0.0182  0.0300  0.0409 </r>
       </set>
       <set comment="band 11">
        <r>  0.0000  0.0119  0.0040  0.0017  0.0050  0.0241  0.0771  0.0317  0.0658 </r>
        <r>  0.0000  0.0119  0.0041  0.0017  0.0049  0.0242  0.0770  0.0317  0.0655 </r>
       </set>
       <set comment="band 12">
        <r>  0.0011  0.0204  0.0579  0.0048  0.0512  0.0036  0.0473  0.0064  0.0741 </r>
        <r>  0.0011  0.0204  0.0579  0.0048  0.0510  0.0037  0.0474  0.0064  0.0745 </r>
       </set>
       <set comment="band 13">
        <r>  0.0000  0.0206  0.0070  0.0028  0.0022  0.0319  0.0955  0.0332  0.0693 </r>
        <r>  0.0000  0.0207  0.0070  0.0030  0.0021  0.0318  0.0957  0.0328  0.0700 </r>
       </set>
       <set comment="band 14">
        <r>  0.0013  0.0024  0.0215  0.0419  0.0261  0.0186  0.0016  0.0628  0.0837 </r>
        <r>  0.0012  0.0024  0.0215  0.0419  0.0260  0.0186  0.0018  0.0633  0.0831 </r>
       </set>
       <set comment="band 15">
        <r>  0.0296  0.0076  0.0087  0.0078  0.0043  0.1461  0.0729  0.0268  0.0267 </r>
        <r>  0.0294  0.0076  0.0087  0.0077  0.0042  0.1466  0.0729  0.0268  0.0266 </r>
       </set>
       <set comment="band 16">
        <r>  0.0000  0.0338  0.0115  0.0048  0.1018  0.0575  0.0697  0.0064  0.0060 </r>
        <r>  0.0000  0.0336  0.0114  0.0047  0.1017  0.0574  0.0700  0.0065  0.0059 </r>
       </set>
      </set>
     </set>
    </set>
   </array>
  </projected>
 </calculation>
 <structure name="finalpos" >
  <crystal>
   <varray name="basis" >
    <v>       3.97062800      -0.01718700       2.52612800 </v>
    <v>       1.37824500       3.72379200       2.52612800 </v>
    <v>      -0.02480100      -0.01718700       4.70601700 </v>
   </varray>
   <i name="volume">     70.04059440 </i>
   <varray name="rec_basis" >
    <v>       0.25082090      -0.09349856       0.00098037 </v>
    <v>       0.00053491       0.26768039       0.00098042 </v>
    <v>      -0.13492449      -0.09349851       0.21144139 </v>
   </varray>
  </crystal>
  <varray name="positions" >
   <v>       0.23465600       0.23465600       0.23465600 </v>
   <v>       0.76534400       0.76534400       0.76534400 </v>
  </varray>
 </structure>
</modeling>
