       N       E                     dE             d eps       ncg     rms          rms(c)
DAV:   1     0.334845246645E+04    0.33485E+04   -0.12823E+05 12304   0.132E+03
DAV:   2     0.308228342312E+03   -0.30402E+04   -0.28085E+04 12588   0.344E+02
DAV:   3    -0.233446838840E+03   -0.54168E+03   -0.49248E+03 14764   0.162E+02
DAV:   4    -0.287458464333E+03   -0.54012E+02   -0.51812E+02 15800   0.514E+01
DAV:   5    -0.289796242594E+03   -0.23378E+01   -0.23295E+01 17672   0.109E+01    0.545E+01
RMM:   6    -0.402759667669E+03   -0.11296E+03   -0.76179E+02 12284   0.846E+01    0.111E+02
RMM:   7    -0.277660432738E+03    0.12510E+03   -0.12651E+02 12272   0.354E+01    0.623E+01
RMM:   8    -0.288508500432E+03   -0.10848E+02   -0.15384E+01 12274   0.905E+00    0.796E+01
RMM:   9    -0.260797152029E+03    0.27711E+02   -0.16506E+01 12272   0.111E+01    0.550E+01
RMM:  10    -0.247684631474E+03    0.13113E+02   -0.44576E+00 12378   0.517E+00    0.382E+01
RMM:  11    -0.242861410235E+03    0.48232E+01   -0.97913E-01 13475   0.211E+00    0.351E+01
RMM:  12    -0.272452157663E+03   -0.29591E+02   -0.10558E+01 12272   0.708E+00    0.600E+01
RMM:  13    -0.258936507539E+03    0.13516E+02   -0.39265E+00 12358   0.486E+00    0.514E+01
RMM:  14    -0.251975172132E+03    0.69613E+01   -0.26271E+00 12279   0.434E+00    0.366E+01
RMM:  15    -0.253208911428E+03   -0.12337E+01   -0.23087E+00 12272   0.349E+00    0.381E+01
RMM:  16    -0.255854597022E+03   -0.26457E+01   -0.32069E+00 12272   0.441E+00    0.436E+01
RMM:  17    -0.252469313779E+03    0.33853E+01   -0.55227E+00 12284   0.483E+00    0.482E+01
RMM:  18    -0.249015440866E+03    0.34539E+01   -0.15620E+00 12414   0.306E+00    0.460E+01
RMM:  19    -0.247672794024E+03    0.13426E+01   -0.75000E-01 12761   0.198E+00    0.481E+01
RMM:  20    -0.244996110569E+03    0.26767E+01   -0.48936E-01 12284   0.168E+00    0.472E+01
RMM:  21    -0.246392246154E+03   -0.13961E+01   -0.19438E-01 12270   0.111E+00    0.484E+01
RMM:  22    -0.247844210992E+03   -0.14520E+01   -0.17291E-01 12270   0.106E+00    0.476E+01
RMM:  23    -0.248674239503E+03   -0.83003E+00   -0.12188E-01 12230   0.946E-01    0.471E+01
RMM:  24    -0.250773108508E+03   -0.20989E+01   -0.23366E-01 12272   0.121E+00    0.466E+01
RMM:  25    -0.252565061186E+03   -0.17920E+01   -0.37130E-01 12271   0.163E+00    0.466E+01
RMM:  26    -0.257056797152E+03   -0.44917E+01   -0.11814E+00 12272   0.269E+00    0.451E+01
RMM:  27    -0.259638601698E+03   -0.25818E+01   -0.97161E-01 12279   0.251E+00    0.435E+01
RMM:  28    -0.260901444378E+03   -0.12628E+01   -0.64551E-01 12317   0.186E+00    0.418E+01
RMM:  29    -0.262064616488E+03   -0.11632E+01   -0.67087E-01 12322   0.198E+00    0.400E+01
RMM:  30    -0.262844289125E+03   -0.77967E+00   -0.62622E-01 12301   0.196E+00    0.371E+01
RMM:  31    -0.264281280377E+03   -0.14370E+01   -0.12755E+00 12277   0.286E+00    0.372E+01
RMM:  32    -0.265126196727E+03   -0.84492E+00   -0.13682E+00 12283   0.307E+00    0.326E+01
RMM:  33    -0.266047463946E+03   -0.92127E+00   -0.96275E-01 12421   0.243E+00    0.320E+01
RMM:  34    -0.266347766233E+03   -0.30030E+00   -0.58646E-01 12328   0.198E+00    0.304E+01
RMM:  35    -0.267100609906E+03   -0.75284E+00   -0.33234E-01 12447   0.130E+00    0.290E+01
RMM:  36    -0.269479568360E+03   -0.23790E+01   -0.73667E-01 12289   0.205E+00    0.310E+01
RMM:  37    -0.271073058531E+03   -0.15935E+01   -0.13940E+00 12272   0.305E+00    0.320E+01
RMM:  38    -0.273483387974E+03   -0.24103E+01   -0.22129E+00 12272   0.367E+00    0.319E+01
RMM:  39    -0.273687187251E+03   -0.20380E+00   -0.91924E-01 12796   0.192E+00    0.289E+01
RMM:  40    -0.273843276031E+03   -0.15609E+00   -0.11625E+00 12301   0.246E+00    0.247E+01
RMM:  41    -0.274074978480E+03   -0.23170E+00   -0.67693E-01 12512   0.186E+00    0.221E+01
RMM:  42    -0.274205881631E+03   -0.13090E+00   -0.85798E-01 12355   0.210E+00    0.202E+01
RMM:  43    -0.274092453563E+03    0.11343E+00   -0.13323E+00 12281   0.258E+00    0.152E+01
RMM:  44    -0.276165483105E+03   -0.20730E+01   -0.98599E-01 12351   0.206E+00    0.137E+01
RMM:  45    -0.275782893345E+03    0.38259E+00   -0.14921E-01 13100   0.864E-01    0.132E+01
RMM:  46    -0.275820067532E+03   -0.37174E-01   -0.22619E-01 12286   0.104E+00    0.112E+01
RMM:  47    -0.276680120473E+03   -0.86005E+00   -0.53295E-01 12272   0.168E+00    0.967E+00
RMM:  48    -0.278043974858E+03   -0.13639E+01   -0.37762E-01 12278   0.141E+00    0.758E+00
RMM:  49    -0.278895133406E+03   -0.85116E+00   -0.44805E-01 12287   0.152E+00    0.674E+00
RMM:  50    -0.279579645716E+03   -0.68451E+00   -0.25787E-01 12441   0.107E+00    0.593E+00
RMM:  51    -0.280048490045E+03   -0.46884E+00   -0.19922E-01 12273   0.107E+00    0.941E+00
RMM:  52    -0.279667681339E+03    0.38081E+00   -0.73542E-02 12169   0.641E-01    0.723E+00
RMM:  53    -0.279870726568E+03   -0.20305E+00   -0.46920E-02 12014   0.512E-01    0.620E+00
RMM:  54    -0.280166571579E+03   -0.29585E+00   -0.50693E-02 12166   0.470E-01    0.579E+00
RMM:  55    -0.280496265172E+03   -0.32969E+00   -0.37852E-02 11656   0.432E-01    0.557E+00
RMM:  56    -0.280430899463E+03    0.65366E-01   -0.97138E-02 12268   0.704E-01    0.650E+00
RMM:  57    -0.280147009558E+03    0.28389E+00   -0.13823E-02 10134   0.264E-01    0.646E+00
RMM:  58    -0.280144212537E+03    0.27970E-02   -0.16207E-02 10207   0.288E-01    0.520E+00
RMM:  59    -0.280634072842E+03   -0.48986E+00   -0.88645E-02 12161   0.555E-01    0.412E+00
RMM:  60    -0.280832135953E+03   -0.19806E+00   -0.34523E-02 11642   0.413E-01    0.426E+00
RMM:  61    -0.281114436634E+03   -0.28230E+00   -0.59267E-02 12065   0.571E-01    0.381E+00
RMM:  62    -0.281433262329E+03   -0.31883E+00   -0.94015E-02 12005   0.603E-01    0.368E+00
RMM:  63    -0.282143374233E+03   -0.71011E+00   -0.12083E-01 12029   0.634E-01    0.481E+00
RMM:  64    -0.282078475737E+03    0.64898E-01   -0.21342E-02 10597   0.287E-01    0.469E+00
RMM:  65    -0.282450354701E+03   -0.37188E+00   -0.67791E-02 11732   0.458E-01    0.388E+00
RMM:  66    -0.282651534036E+03   -0.20118E+00   -0.92941E-02 12277   0.601E-01    0.340E+00
RMM:  67    -0.283142614782E+03   -0.49108E+00   -0.11414E-01 12122   0.596E-01    0.262E+00
RMM:  68    -0.283345888569E+03   -0.20327E+00   -0.55624E-02 11634   0.413E-01    0.259E+00
RMM:  69    -0.283602201132E+03   -0.25631E+00   -0.51388E-02 11407   0.382E-01    0.195E+00
RMM:  70    -0.283720356692E+03   -0.11816E+00   -0.17789E-02 10189   0.228E-01    0.181E+00
RMM:  71    -0.283720928115E+03   -0.57142E-03   -0.18366E-02 10891   0.311E-01
   1 F= -.28371958E+03 E0= -.28371336E+03  d E =-.283720E+03  mag=     1.8213
       N       E                     dE             d eps       ncg     rms          rms(c)
DAV:   1    -0.284185730224E+03   -0.46537E+00   -0.91284E+00 13312   0.494E+00    0.174E+00
RMM:   2    -0.284338490998E+03   -0.15276E+00   -0.33786E-01 12278   0.150E+00    0.526E+00
RMM:   3    -0.284234833266E+03    0.10366E+00   -0.65674E-02 12466   0.729E-01    0.207E+00
RMM:   4    -0.284269074181E+03   -0.34241E-01   -0.51448E-02 11378   0.582E-01    0.465E+00
RMM:   5    -0.284272695377E+03   -0.36212E-02   -0.84154E-03  9349   0.170E-01    0.464E+00
RMM:   6    -0.284271103384E+03    0.15920E-02   -0.39763E-02 10865   0.475E-01    0.300E+00
RMM:   7    -0.284240076970E+03    0.31026E-01   -0.47882E-02 11041   0.585E-01    0.245E+00
RMM:   8    -0.284266199780E+03   -0.26123E-01   -0.36199E-02 11179   0.474E-01    0.169E+00
RMM:   9    -0.284268885169E+03   -0.26854E-02   -0.29873E-02 10802   0.454E-01    0.134E+00
RMM:  10    -0.284285222631E+03   -0.16337E-01   -0.15102E-02  9787   0.324E-01    0.112E+00
RMM:  11    -0.284303337237E+03   -0.18115E-01   -0.80229E-03  9355   0.254E-01    0.982E-01
RMM:  12    -0.284313999255E+03   -0.10662E-01   -0.33810E-03  7609   0.164E-01    0.874E-01
RMM:  13    -0.284330075855E+03   -0.16077E-01   -0.28637E-03  7533   0.144E-01    0.809E-01
RMM:  14    -0.284345875795E+03   -0.15800E-01   -0.25223E-03  7431   0.125E-01    0.787E-01
RMM:  15    -0.284377651758E+03   -0.31776E-01   -0.59523E-03  8539   0.171E-01    0.726E-01
RMM:  16    -0.284396601262E+03   -0.18950E-01   -0.50581E-03  8134   0.157E-01    0.725E-01
RMM:  17    -0.284409733946E+03   -0.13133E-01   -0.38109E-03  7876   0.136E-01    0.762E-01
RMM:  18    -0.284412709501E+03   -0.29756E-02   -0.14997E-03  7000   0.105E-01    0.774E-01
RMM:  19    -0.284412435968E+03    0.27353E-03   -0.39204E-04  6414   0.527E-02
   2 F= -.28441222E+03 E0= -.28440970E+03  d E =-.692636E+00  mag=     1.8281
       N       E                     dE             d eps       ncg     rms          rms(c)
DAV:   1    -0.284609601624E+03   -0.19689E+00   -0.56394E+01 12476   0.121E+01    0.251E+00
RMM:   2    -0.285069340415E+03   -0.45974E+00   -0.20376E+00 12284   0.403E+00    0.655E+00
RMM:   3    -0.284788594980E+03    0.28075E+00   -0.48053E-01 13818   0.187E+00    0.224E+00
RMM:   4    -0.284819209339E+03   -0.30614E-01   -0.13892E-01 12224   0.944E-01    0.225E+00
RMM:   5    -0.284801030659E+03    0.18179E-01   -0.61784E-02 11614   0.698E-01    0.139E+00
RMM:   6    -0.284814273108E+03   -0.13242E-01   -0.44654E-02 11352   0.574E-01    0.139E+00
RMM:   7    -0.284813428770E+03    0.84434E-03   -0.27513E-02 10773   0.458E-01    0.113E+00
RMM:   8    -0.284804538674E+03    0.88901E-02   -0.11216E-02  9436   0.318E-01    0.445E-01
RMM:   9    -0.284804916756E+03   -0.37808E-03   -0.33454E-03  8260   0.179E-01
   3 F= 0.83579657E+02 E0= 0.83583891E+02  d E =0.367992E+03  mag=     1.8069
       N       E                     dE             d eps       ncg     rms          rms(c)
DAV:   1    -0.284834062416E+03   -0.29524E-01   -0.99053E+00 12968   0.518E+00    0.981E-01
RMM:   2    -0.284884505839E+03   -0.50443E-01   -0.28595E-01 12288   0.154E+00    0.196E+00
RMM:   3    -0.284866997200E+03    0.17509E-01   -0.70176E-02 13372   0.710E-01    0.106E+00
RMM:   4    -0.284866779775E+03    0.21743E-03   -0.18149E-02  9909   0.369E-01    0.810E-01
RMM:   5    -0.284865767473E+03    0.10123E-02   -0.98629E-03  9461   0.313E-01    0.654E-01
RMM:   6    -0.284866030115E+03   -0.26264E-03   -0.59620E-03  9244   0.224E-01    0.449E-01
RMM:   7    -0.284864300496E+03    0.17296E-02   -0.41488E-03  8343   0.202E-01    0.592E-01
