 vasp.5.3.5 31Mar14 (build May 28 2014 18:39:22) complex                        
  
 executed on             LinuxIFC date 2014.09.02  19:27:30
 running on   32 total cores
 distrk:  each k-point on   32 cores,    1 groups
 distr:  one band on NCORES_PER_BAND=   8 cores,    4 groups


--------------------------------------------------------------------------------------------------------


 INCAR:
 POTCAR:   PAW_PBE Fe 06Sep2000                   
 POTCAR:    PAW_PBE S 17Jan2003                   
 POTCAR:   PAW_PBE Fe 06Sep2000                   
   VRHFIN =Fe:  d7 s1                                                           
   LEXCH  = PE                                                                  
   EATOM  =   594.4687 eV,   43.6922 Ry                                         
                                                                                
   TITEL  = PAW_PBE Fe 06Sep2000                                                
   LULTRA =        F    use ultrasoft PP ?                                      
   IUNSCR =        1    unscreen: 0-lin 1-nonlin 2-no                           
   RPACOR =    2.000    partial core radius                                     
   POMASS =   55.847; ZVAL   =    8.000    mass and valenz                      
   RCORE  =    2.300    outmost cutoff radius                                   
   RWIGS  =    2.460; RWIGS  =    1.302    wigner-seitz radius (au A)           
   ENMAX  =  267.883; ENMIN  =  200.912 eV                                      
   RCLOC  =    1.701    cutoff for local pot                                    
   LCOR   =        T    correct aug charges                                     
   LPAW   =        T    paw PP                                                  
   EAUG   =  511.368                                                            
   DEXC   =    -.022                                                            
   RMAX   =    2.817    core radius for proj-oper                               
   RAUG   =    1.300    factor for augmentation sphere                          
   RDEP   =    2.442    radius for radial grids                                 
   QCUT   =   -4.437; QGAM   =    8.874    optimization parameters              
                                                                                
   Description                                                                  
     l     E      TYP  RCUT    TYP  RCUT                                        
     2   .000     23  2.300                                                     
     2   .000     23  2.300                                                     
     0   .000     23  2.300                                                     
     0   .000     23  2.300                                                     
     1  -.200     23  2.300                                                     
     1   .000     23  2.300                                                     
     3   .000      7   .000                                                     
  local pseudopotential read in
  partial core-charges read in
  atomic valenz-charges read in
  non local Contribution for L=           2  read in
    real space projection operators read in
  non local Contribution for L=           2  read in
    real space projection operators read in
  non local Contribution for L=           0  read in
    real space projection operators read in
  non local Contribution for L=           0  read in
    real space projection operators read in
  non local Contribution for L=           1  read in
    real space projection operators read in
  non local Contribution for L=           1  read in
    real space projection operators read in
    PAW grid and wavefunctions read in
 
   number of l-projection  operators is LMAX  =           6
   number of lm-projection operators is LMMAX =          18
 
 POTCAR:    PAW_PBE S 17Jan2003                   
   VRHFIN =S : s2p4                                                             
   LEXCH  = PE                                                                  
   EATOM  =   276.8230 eV,   20.3459 Ry                                         
                                                                                
   TITEL  = PAW_PBE S 17Jan2003                                                 
   LULTRA =        F    use ultrasoft PP ?                                      
   IUNSCR =        1    unscreen: 0-lin 1-nonlin 2-no                           
   RPACOR =    1.500    partial core radius                                     
   POMASS =   32.066; ZVAL   =    6.000    mass and valenz                      
   RCORE  =    1.900    outmost cutoff radius                                   
   RWIGS  =    2.200; RWIGS  =    1.164    wigner-seitz radius (au A)           
   ENMAX  =  280.000; ENMIN  =  194.016 eV                                      
   ICORE  =        2    local potential                                         
   LCOR   =        T    correct aug charges                                     
   LPAW   =        T    paw PP                                                  
   EAUG   =  335.092                                                            
   DEXC   =     .000                                                            
   RMAX   =    2.867    core radius for proj-oper                               
   RAUG   =    1.300    factor for augmentation sphere                          
   RDEP   =    1.954    radius for radial grids                                 
   QCUT   =   -4.360; QGAM   =    8.721    optimization parameters              
                                                                                
   Description                                                                  
     l     E      TYP  RCUT    TYP  RCUT                                        
     0   .000     23  1.900                                                     
     0   .000     23  1.900                                                     
     1   .000     23  1.900                                                     
     1   .000     23  1.900                                                     
     2   .000     23  1.900                                                     
  local pseudopotential read in
  partial core-charges read in
  atomic valenz-charges read in
  non local Contribution for L=           0  read in
    real space projection operators read in
  non local Contribution for L=           0  read in
    real space projection operators read in
  non local Contribution for L=           1  read in
    real space projection operators read in
  non local Contribution for L=           1  read in
    real space projection operators read in
    PAW grid and wavefunctions read in
 
   number of l-projection  operators is LMAX  =           4
   number of lm-projection operators is LMMAX =           8
 
 Optimization of the real space projectors (new method)

 maximal supplied QI-value         = 16.25
 optimisation between [QCUT,QGAM] = [ 11.54, 23.24] = [ 37.28,151.24] Ry 
 Optimized for a Real-space Cutoff    1.53 Angstroem

   l    n(q)    QCUT    max X(q) W(low)/X(q) W(high)/X(q)  e(spline) 
   2     10    11.539     4.378    0.86E-05    0.15E-04    0.46E-07
   2     10    11.539    23.237    0.11E-03    0.14E-03    0.22E-06
   0     11    11.539    17.641    0.19E-04    0.14E-05    0.18E-07
   0     11    11.539    50.908    0.43E-04    0.16E-04    0.30E-06
   1     10    11.539     6.148    0.11E-04    0.38E-05    0.26E-07
   1     10    11.539     8.345    0.44E-04    0.25E-04    0.11E-06
 Optimization of the real space projectors (new method)

 maximal supplied QI-value         = 19.84
 optimisation between [QCUT,QGAM] = [ 11.51, 23.22] = [ 37.09,150.92] Ry 
 Optimized for a Real-space Cutoff    1.21 Angstroem

   l    n(q)    QCUT    max X(q) W(low)/X(q) W(high)/X(q)  e(spline) 
   0      8    11.508     5.487    0.18E-04    0.22E-05    0.47E-08
   0      8    11.508    85.627    0.96E-04    0.18E-03    0.54E-07
   1      8    11.508     3.530    0.17E-04    0.28E-04    0.21E-07
   1      8    11.508    42.714    0.18E-03    0.63E-04    0.92E-07
 PAW_PBE Fe 06Sep2000                   :
 energy of atom  1       EATOM= -594.4687
 kinetic energy error for atom=    0.0026 (will be added to EATOM!!)
  PAW_PBE S 17Jan2003                   :
 energy of atom  2       EATOM= -276.8230
 kinetic energy error for atom=    0.0016 (will be added to EATOM!!)
 
 
 POSCAR: Fe16 S32                                
  positions in direct lattice
  No initial velocities read in
 exchange correlation table for  LEXCH =        8
   RHO(1)=    0.500       N(1)  =     2000
   RHO(2)=  100.500       N(2)  =     4000
 


--------------------------------------------------------------------------------------------------------


 ion  position               nearest neighbor table
   1  0.000  0.500  0.208-  19 2.27  20 2.27  17 2.27  18 2.27  21 2.27
   2  0.500  0.000  0.208-  19 2.27  20 2.27  17 2.27  18 2.27  22 2.27
   3  0.000  0.000  0.292-  26 2.27  22 2.27  21 2.27  24 2.27  23 2.27  20 2.27
   4  0.500  0.500  0.292-  25 2.27  22 2.27  21 2.27  24 2.27  23 2.27  19 2.27
   5  0.000  0.500  0.375-  23 2.27  29 2.27  26 2.27  27 2.27  28 2.27  25 2.27
   6  0.500  0.000  0.375-  24 2.27  30 2.27  26 2.27  27 2.27  28 2.27  25 2.27
   7  0.000  0.000  0.458-  28 2.27  31 2.27  32 2.27  29 2.27  30 2.27  34 2.27
   8  0.500  0.500  0.458-  27 2.27  31 2.27  32 2.27  29 2.27  30 2.27  33 2.27
   9  0.000  0.500  0.542-  37 2.27  34 2.27  33 2.27  36 2.27  35 2.27  31 2.27
  10  0.500  0.000  0.542-  38 2.27  34 2.27  33 2.27  36 2.27  35 2.27  32 2.27
  11  0.000  0.000  0.625-  36 2.27  42 2.27  38 2.27  39 2.27  40 2.27  37 2.27
  12  0.500  0.500  0.625-  35 2.27  41 2.27  38 2.27  39 2.27  40 2.27  37 2.27
  13  0.000  0.500  0.708-  39 2.27  43 2.27  44 2.27  41 2.27  42 2.27  45 2.27
  14  0.500  0.000  0.708-  40 2.27  43 2.27  44 2.27  41 2.27  42 2.27  46 2.27
  15  0.000  0.000  0.792-  45 2.27  46 2.27  47 2.27  48 2.27  44 2.27
  16  0.500  0.500  0.792-  45 2.27  46 2.27  47 2.27  48 2.27  43 2.27
  17  0.385  0.385  0.189-  19 2.16   2 2.27   1 2.27
  18  0.115  0.885  0.189-  20 2.16   2 2.27   1 2.27
  19  0.615  0.615  0.228-  17 2.16   2 2.27   1 2.27   4 2.27
  20  0.885  0.115  0.228-  18 2.16   2 2.27   1 2.27   3 2.27
  21  0.115  0.615  0.272-  23 2.16   4 2.27   3 2.27   1 2.27
  22  0.385  0.115  0.272-  24 2.16   4 2.27   3 2.27   2 2.27
  23  0.885  0.385  0.311-  21 2.16   5 2.27   3 2.27   4 2.27
  24  0.615  0.885  0.311-  22 2.16   6 2.27   3 2.27   4 2.27
  25  0.385  0.385  0.356-  27 2.16   4 2.27   6 2.27   5 2.27
  26  0.115  0.885  0.356-  28 2.16   3 2.27   6 2.27   5 2.27
  27  0.615  0.615  0.394-  25 2.16   8 2.27   5 2.27   6 2.27
  28  0.885  0.115  0.394-  26 2.16   7 2.27   5 2.27   6 2.27
  29  0.115  0.615  0.439-  31 2.16   5 2.27   8 2.27   7 2.27
  30  0.385  0.115  0.439-  32 2.16   6 2.27   8 2.27   7 2.27
  31  0.885  0.385  0.478-  29 2.16   8 2.27   7 2.27   9 2.27
  32  0.615  0.885  0.478-  30 2.16   8 2.27   7 2.27  10 2.27
  33  0.385  0.385  0.522-  35 2.16  10 2.27   9 2.27   8 2.27
  34  0.115  0.885  0.522-  36 2.16  10 2.27   9 2.27   7 2.27
  35  0.615  0.615  0.561-  33 2.16  12 2.27   9 2.27  10 2.27
  36  0.885  0.115  0.561-  34 2.16  11 2.27   9 2.27  10 2.27
  37  0.115  0.615  0.606-  39 2.16   9 2.27  12 2.27  11 2.27
  38  0.385  0.115  0.606-  40 2.16  10 2.27  12 2.27  11 2.27
  39  0.885  0.385  0.644-  37 2.16  13 2.27  11 2.27  12 2.27
  40  0.615  0.885  0.644-  38 2.16  14 2.27  11 2.27  12 2.27
  41  0.385  0.385  0.689-  43 2.16  12 2.27  14 2.27  13 2.27
  42  0.115  0.885  0.689-  44 2.16  11 2.27  14 2.27  13 2.27
  43  0.615  0.615  0.728-  41 2.16  14 2.27  13 2.27  16 2.27
  44  0.885  0.115  0.728-  42 2.16  14 2.27  13 2.27  15 2.27
  45  0.115  0.615  0.772-  47 2.16  16 2.27  15 2.27  13 2.27
  46  0.385  0.115  0.772-  48 2.16  16 2.27  15 2.27  14 2.27
  47  0.885  0.385  0.811-  45 2.16  16 2.27  15 2.27
  48  0.615  0.885  0.811-  46 2.16  16 2.27  15 2.27
 

IMPORTANT INFORMATION: All symmetrisations will be switched off!
NOSYMM: (Re-)initialisation of all symmetry stuff for point group C_1.

 
 
 KPOINTS: Automatic kpoint scheme                 

Automatic generation of k-mesh.
Space group operators:
 irot       det(A)        alpha          n_x          n_y          n_z        tau_x        tau_y        tau_z
    1     1.000000     0.000000     1.000000     0.000000     0.000000     0.000000     0.000000     0.000000
 
 Subroutine IBZKPT returns following result:
 ===========================================
 
 Found     13 irreducible k-points:
 
 Following reciprocal coordinates:
            Coordinates               Weight
  0.000000  0.000000  0.000000      1.000000
  0.200000  0.000000  0.000000      2.000000
  0.400000  0.000000  0.000000      2.000000
  0.000000  0.200000  0.000000      2.000000
  0.200000  0.200000  0.000000      2.000000
  0.400000  0.200000  0.000000      2.000000
 -0.400000  0.200000  0.000000      2.000000
 -0.200000  0.200000  0.000000      2.000000
  0.000000  0.400000  0.000000      2.000000
  0.200000  0.400000  0.000000      2.000000
  0.400000  0.400000  0.000000      2.000000
 -0.400000  0.400000  0.000000      2.000000
 -0.200000  0.400000  0.000000      2.000000
 
 Following cartesian coordinates:
            Coordinates               Weight
  0.000000  0.000000  0.000000      1.000000
  0.000000  0.036831  0.000000      2.000000
  0.000000  0.073663  0.000000      2.000000
  0.000000  0.000000  0.036831      2.000000
  0.000000  0.036831  0.036831      2.000000
  0.000000  0.073663  0.036831      2.000000
  0.000000 -0.073663  0.036831      2.000000
  0.000000 -0.036831  0.036831      2.000000
  0.000000  0.000000  0.073663      2.000000
  0.000000  0.036831  0.073663      2.000000
  0.000000  0.073663  0.073663      2.000000
  0.000000 -0.073663  0.073663      2.000000
  0.000000 -0.036831  0.073663      2.000000
 


--------------------------------------------------------------------------------------------------------




 Dimension of arrays:
   k-points           NKPTS =     13   k-points in BZ     NKDIM =     13   number of bands    NBANDS=    236
   number of dos      NEDOS =    301   number of ions     NIONS =     48
   non local maximal  LDIM  =      6   non local SUM 2l+1 LMDIM =     18
   total plane-waves  NPLWV = 441000
   max r-space proj   IRMAX =   6988   max aug-charges    IRDMAX=  16550
   dimension x,y,z NGX =    42 NGY =   42 NGZ =  250
   dimension x,y,z NGXF=    84 NGYF=   84 NGZF=  500
   support grid    NGXF=    84 NGYF=   84 NGZF=  500
   ions per type =              16  32
 NGX,Y,Z   is equivalent  to a cutoff of  12.86, 12.86, 12.76 a.u.
 NGXF,Y,Z  is equivalent  to a cutoff of  25.72, 25.72, 25.51 a.u.


 I would recommend the setting:
   dimension x,y,z NGX =    40 NGY =   40 NGZ =  242
 SYSTEM =  unknown system                          
 POSCAR =  Fe16 S32                                

 Startparameter for this run:
   NWRITE =      2    write-flag & timer
   PREC   = accura    normal or accurate (medium, high low for compatibility)
   ISTART =      0    job   : 0-new  1-cont  2-samecut
   ICHARG =      1    charge: 1-file 2-atom 10-const
   ISPIN  =      2    spin polarized calculation?
   LNONCOLLINEAR =      F non collinear calculations
   LSORBIT =      F    spin-orbit coupling
   INIWAV =      1    electr: 0-lowe 1-rand  2-diag
   LASPH  =      F    aspherical Exc in radial PAW
   METAGGA=      F    non-selfconsistent MetaGGA calc.

 Electronic Relaxation 1
   ENCUT  =  520.0 eV  38.22 Ry    6.18 a.u.  10.10 10.10 60.58*2*pi/ulx,y,z
   ENINI  =  520.0     initial cutoff
   ENAUG  =  511.4 eV  augmentation charge cutoff
   NELM   =    100;   NELMIN=  8; NELMDL=  0     # of ELM steps 
   EDIFF  = 0.2E-02   stopping-criterion for ELM
   LREAL  =      T    real-space projection
   NLSPLINE    = F    spline interpolate recip. space projectors
   LCOMPAT=      F    compatible to vasp.4.4
   GGA_COMPAT  = T    GGA compatible to vasp.4.4-vasp.4.6
   LMAXPAW     = -100 max onsite density
   LMAXMIX     =    2 max onsite mixed and CHGCAR
   VOSKOWN=      0    Vosko Wilk Nusair interpolation
   ROPT   =   -0.00025  -0.00025
 Ionic relaxation
   EDIFFG = 0.2E-01   stopping-criterion for IOM
   NSW    =    200    number of steps for IOM
   NBLOCK =      1;   KBLOCK =    200    inner block; outer block 
   IBRION =      1    ionic relax: 0-MD 1-quasi-New 2-CG
   NFREE  =      0    steps in history (QN), initial steepest desc. (CG)
   ISIF   =      2    stress and relaxation
   IWAVPR =     11    prediction:  0-non 1-charg 2-wave 3-comb
   ISYM   =      0    0-nonsym 1-usesym 2-fastsym
   LCORR  =      T    Harris-Foulkes like correction to forces

   POTIM  = 0.1406    time-step for ionic-motion
   TEIN   =    0.0    initial temperature
   TEBEG  =    0.0;   TEEND  =   0.0 temperature during run
   SMASS  =  -3.00    Nose mass-parameter (am)
   estimated Nose-frequenzy (Omega)   =  0.10E-29 period in steps =****** mass=  -0.674E-27a.u.
   SCALEE = 1.0000    scale energy and forces
   NPACO  =    256;   APACO  = 16.0  distance and # of slots for P.C.
   PSTRESS=    0.0 pullay stress

  Mass of Ions in am
   POMASS =  55.85 32.07
  Ionic Valenz
   ZVAL   =   8.00  6.00
  Atomic Wigner-Seitz radii
   RWIGS  =  -1.00 -1.00
  virtual crystal weights 
   VCA    =   1.00  1.00
   NELECT =     320.0000    total number of electrons
   NUPDOWN=      -1.0000    fix difference up-down

 DOS related values:
   EMIN   =  10.00;   EMAX   =-10.00  energy-range for DOS
   EFERMI =   0.00
   ISMEAR =     0;   SIGMA  =   0.05  broadening in eV -4-tet -1-fermi 0-gaus

 Electronic relaxation 2 (details)
   IALGO  =     68    algorithm
   LDIAG  =      T    sub-space diagonalisation (order eigenvalues)
   LSUBROT=      F    optimize rotation matrix (better conditioning)
   TURBO    =      0    0=normal 1=particle mesh
   IRESTART =      0    0=no restart 2=restart with 2 vectors
   NREBOOT  =      0    no. of reboots
   NMIN     =      0    reboot dimension
   EREF     =   0.00    reference energy to select bands
   IMIX   =      4    mixing-type and parameters
     AMIX     =   0.40;   BMIX     =  1.00
     AMIX_MAG =   1.60;   BMIX_MAG =  1.00
     AMIN     =   0.10
     WC   =   100.;   INIMIX=   1;  MIXPRE=   1;  MAXMIX= -45

 Intra band minimization:
   WEIMIN = 0.0010     energy-eigenvalue tresh-hold
   EBREAK =  0.25E-05  absolut break condition
   DEPER  =   0.30     relativ break condition  

   TIME   =   0.40     timestep for ELM

  volume/ion in A,a.u.               =      20.01       135.07
  Fermi-wavevector in a.u.,A,eV,Ry     =   1.134825  2.144508 17.521957  1.287827
  Thomas-Fermi vector in A             =   2.271529
 
 Write flags
   LWAVE  =      T    write WAVECAR
   LCHARG =      T    write CHGCAR
   LVTOT  =      F    write LOCPOT, total local potential
   LVHAR  =      T    write LOCPOT, Hartree potential only
   LELF   =      F    write electronic localiz. function (ELF)
   LORBIT =     11    0 simple, 1 ext, 2 COOP (PROOUT)


 Dipole corrections
   LMONO  =      F    monopole corrections only (constant potential shift)
   LDIPOL =      F    correct potential (dipole corrections)
   IDIPOL =      3    1-x, 2-y, 3-z, 4-all directions 
   EPSILON=  1.0000000 bulk dielectric constant

 Exchange correlation treatment:
   GGA     =    --    GGA type
   LEXCH   =     8    internal setting for exchange type
   VOSKOWN=      0    Vosko Wilk Nusair interpolation
   LHFCALC =     F    Hartree Fock is set to
   LHFONE  =     F    Hartree Fock one center treatment
   AEXX    =    0.0000 exact exchange contribution

 Linear response parameters
   LEPSILON=     F    determine dielectric tensor
   LRPA    =     F    only Hartree local field effects (RPA)
   LNABLA  =     F    use nabla operator in PAW spheres
   LVEL    =     F    velocity operator in full k-point grid
   LINTERFAST=   F  fast interpolation
   KINTER  =     0    interpolate to denser k-point grid
   CSHIFT  =0.1000    complex shift for real part using Kramers Kronig
   OMEGAMAX=  -1.0    maximum frequency
   DEG_THRESHOLD= 0.2000000E-02 threshold for treating states as degnerate
   RTIME   =    0.100 relaxation time in fs

 Orbital magnetization related:
   ORBITALMAG=     F  switch on orbital magnetization
   LCHIMAG   =     F  perturbation theory with respect to B field
   DQ        =  0.001000  dq finite difference perturbation B field



--------------------------------------------------------------------------------------------------------


 quasi-Newton-method for relaxation of ions
   using selective dynamics as specified on POSCAR
 charge density and potential will be updated during run
 spin polarized calculation
 RMM-DIIS sequential band-by-band and
  variant of blocked Davidson during initial phase
 perform sub-space diagonalisation
    before iterative eigenvector-optimisation
 modified Broyden-mixing scheme, WC =      100.0
 initial mixing is a Kerker type mixing with AMIX =  0.4000 and BMIX =      1.0000
 Hartree-type preconditioning will be used
 using additional bands           76
 real space projection scheme for non local part
 use partial core corrections
 calculate Harris-corrections to forces 
   (improved forces if not selfconsistent)
 use gradient corrections 
 use of overlap-Matrix (Vanderbilt PP)
 Gauss-broadening in eV      SIGMA  =   0.05


--------------------------------------------------------------------------------------------------------


  energy-cutoff  :      520.00
  volume of cell :      960.70
      direct lattice vectors                 reciprocal lattice vectors
     0.000000000  5.430155000  0.000000000     0.000000000  0.184156806  0.000000000
     0.000000000  0.000000000  5.430155000     0.000000000  0.000000000  0.184156806
    32.580930000  0.000000000  0.000000000     0.030692801  0.000000000  0.000000000

  length of vectors
     5.430155000  5.430155000 32.580930000     0.184156806  0.184156806  0.030692801


 
 k-points in units of 2pi/SCALE and weight: Automatic kpoint scheme                 
   0.00000000  0.00000000  0.00000000       0.040
   0.00000000  0.03683136  0.00000000       0.080
   0.00000000  0.07366272  0.00000000       0.080
   0.00000000  0.00000000  0.03683136       0.080
   0.00000000  0.03683136  0.03683136       0.080
   0.00000000  0.07366272  0.03683136       0.080
   0.00000000 -0.07366272  0.03683136       0.080
   0.00000000 -0.03683136  0.03683136       0.080
   0.00000000  0.00000000  0.07366272       0.080
   0.00000000  0.03683136  0.07366272       0.080
   0.00000000  0.07366272  0.07366272       0.080
   0.00000000 -0.07366272  0.07366272       0.080
   0.00000000 -0.03683136  0.07366272       0.080
 
 k-points in reciprocal lattice and weights: Automatic kpoint scheme                 
   0.00000000  0.00000000  0.00000000       0.040
   0.20000000  0.00000000  0.00000000       0.080
   0.40000000  0.00000000  0.00000000       0.080
   0.00000000  0.20000000  0.00000000       0.080
   0.20000000  0.20000000  0.00000000       0.080
   0.40000000  0.20000000  0.00000000       0.080
  -0.40000000  0.20000000  0.00000000       0.080
  -0.20000000  0.20000000  0.00000000       0.080
   0.00000000  0.40000000  0.00000000       0.080
   0.20000000  0.40000000  0.00000000       0.080
   0.40000000  0.40000000  0.00000000       0.080
  -0.40000000  0.40000000  0.00000000       0.080
  -0.20000000  0.40000000  0.00000000       0.080
 
 position of ions in fractional coordinates (direct lattice) 
   0.00000000  0.50000000  0.20833300
   0.50000000  0.00000000  0.20833300
   0.00000000  0.00000000  0.29166700
   0.50000000  0.50000000  0.29166700
   0.00000000  0.50000000  0.37500000
   0.50000000  0.00000000  0.37500000
   0.00000000  0.00000000  0.45833300
   0.50000000  0.50000000  0.45833300
   0.00000000  0.50000000  0.54166700
   0.50000000  0.00000000  0.54166700
   0.00000000  0.00000000  0.62500000
   0.50000000  0.50000000  0.62500000
   0.00000000  0.50000000  0.70833300
   0.50000000  0.00000000  0.70833300
   0.00000000  0.00000000  0.79166700
   0.50000000  0.50000000  0.79166700
   0.38493800  0.38493800  0.18915600
   0.11506200  0.88493800  0.18915600
   0.61506200  0.61506200  0.22751000
   0.88493800  0.11506200  0.22751000
   0.11506200  0.61506200  0.27249000
   0.38493800  0.11506200  0.27249000
   0.88493800  0.38493800  0.31084400
   0.61506200  0.88493800  0.31084400
   0.38493800  0.38493800  0.35582300
   0.11506200  0.88493800  0.35582300
   0.61506200  0.61506200  0.39417700
   0.88493800  0.11506200  0.39417700
   0.11506200  0.61506200  0.43915600
   0.38493800  0.11506200  0.43915600
   0.88493800  0.38493800  0.47751000
   0.61506200  0.88493800  0.47751000
   0.38493800  0.38493800  0.52249000
   0.11506200  0.88493800  0.52249000
   0.61506200  0.61506200  0.56084400
   0.88493800  0.11506200  0.56084400
   0.11506200  0.61506200  0.60582300
   0.38493800  0.11506200  0.60582300
   0.88493800  0.38493800  0.64417700
   0.61506200  0.88493800  0.64417700
   0.38493800  0.38493800  0.68915600
   0.11506200  0.88493800  0.68915600
   0.61506200  0.61506200  0.72751000
   0.88493800  0.11506200  0.72751000
   0.11506200  0.61506200  0.77249000
   0.38493800  0.11506200  0.77249000
   0.88493800  0.38493800  0.81084400
   0.61506200  0.88493800  0.81084400
 
 position of ions in cartesian coordinates  (Angst):
   6.78768289  0.00000000  2.71507750
   6.78768289  2.71507750  0.00000000
   9.50278211  0.00000000  0.00000000
   9.50278211  2.71507750  2.71507750
  12.21784875  0.00000000  2.71507750
  12.21784875  2.71507750  0.00000000
  14.93291539  0.00000000  0.00000000
  14.93291539  2.71507750  2.71507750
  17.64801461  0.00000000  2.71507750
  17.64801461  2.71507750  0.00000000
  20.36308125  0.00000000  0.00000000
  20.36308125  2.71507750  2.71507750
  23.07814789  0.00000000  2.71507750
  23.07814789  2.71507750  0.00000000
  25.79324711  0.00000000  0.00000000
  25.79324711  2.71507750  2.71507750
   6.16287840  2.09027301  2.09027301
   6.16287840  0.62480449  4.80535051
   7.41248738  3.33988199  3.33988199
   7.41248738  4.80535051  0.62480449
   8.87797762  0.62480449  3.33988199
   8.87797762  2.09027301  0.62480449
  10.12758660  4.80535051  2.09027301
  10.12758660  3.33988199  4.80535051
  11.59304426  2.09027301  2.09027301
  11.59304426  0.62480449  4.80535051
  12.84265324  3.33988199  3.33988199
  12.84265324  4.80535051  0.62480449
  14.30811090  0.62480449  3.33988199
  14.30811090  2.09027301  0.62480449
  15.55771988  4.80535051  2.09027301
  15.55771988  3.33988199  4.80535051
  17.02321012  2.09027301  2.09027301
  17.02321012  0.62480449  4.80535051
  18.27281910  3.33988199  3.33988199
  18.27281910  4.80535051  0.62480449
  19.73827676  0.62480449  3.33988199
  19.73827676  2.09027301  0.62480449
  20.98788574  4.80535051  2.09027301
  20.98788574  3.33988199  4.80535051
  22.45334340  2.09027301  2.09027301
  22.45334340  0.62480449  4.80535051
  23.70295238  3.33988199  3.33988199
  23.70295238  4.80535051  0.62480449
  25.16844262  0.62480449  3.33988199
  25.16844262  2.09027301  0.62480449
  26.41805160  4.80535051  2.09027301
  26.41805160  3.33988199  4.80535051
 


--------------------------------------------------------------------------------------------------------


 k-point  1 :   0.0000 0.0000 0.0000  plane waves:   25853
 k-point  2 :   0.2000 0.0000 0.0000  plane waves:   25852
 k-point  3 :   0.4000 0.0000 0.0000  plane waves:   25834
 k-point  4 :   0.0000 0.2000 0.0000  plane waves:   25852
 k-point  5 :   0.2000 0.2000 0.0000  plane waves:   25876
 k-point  6 :   0.4000 0.2000 0.0000  plane waves:   25878
 k-point  7 :  -0.4000 0.2000 0.0000  plane waves:   25878
 k-point  8 :  -0.2000 0.2000 0.0000  plane waves:   25876
 k-point  9 :   0.0000 0.4000 0.0000  plane waves:   25834
 k-point 10 :   0.2000 0.4000 0.0000  plane waves:   25878
 k-point 11 :   0.4000 0.4000 0.0000  plane waves:   25900
 k-point 12 :  -0.4000 0.4000 0.0000  plane waves:   25900
 k-point 13 :  -0.2000 0.4000 0.0000  plane waves:   25878

 maximum and minimum number of plane-waves per node :      3264     3188

 maximum number of plane-waves:     25900
 maximum index in each direction: 
   IXMAX=   10   IYMAX=   10   IZMAX=   60
   IXMIN=  -10   IYMIN=  -10   IZMIN=  -60

 NGX is ok and might be reduce to  42
 NGY is ok and might be reduce to  42
 NGZ is ok and might be reduce to 242

 real space projection operators:
  total allocation   :      21817.81 KBytes
  max/ min on nodes  :       3254.12       2539.56


 parallel 3D FFT for wavefunctions:
    minimum data exchange during FFTs selected (reduces bandwidth)
 parallel 3D FFT for charge:
    minimum data exchange during FFTs selected (reduces bandwidth)


 total amount of memory used by VASP on root node   142345. kBytes
========================================================================

   base      :      30000. kBytes
   nonlr-proj:       9711. kBytes
   fftplans  :       5999. kBytes
   grid      :      15160. kBytes
   one-center:        186. kBytes
   wavefun   :      81289. kBytes
 
     INWAV:  cpu time    0.00: real time    0.00
 Broyden mixing: mesh for mixing (old mesh)
   NGX = 21   NGY = 21   NGZ =121
  (NGX  = 84   NGY  = 84   NGZ  =500)
  gives a total of  53361 points

 initial charge density was supplied:
 charge density of overlapping atoms calculated
 number of electron     320.0000000 magnetization      83.2000000
 keeping initial charge density in first step


--------------------------------------------------------------------------------------------------------


 Maximum index for non-local projection operator         1206
 Maximum index for augmentation-charges          782 (set IRDMAX)


--------------------------------------------------------------------------------------------------------


 First call to EWALD:  gamma=   0.180
 Maximum number of real-space cells 5x 5x 1
 Maximum number of reciprocal cells 2x 2x 8

 FEWALD executed in parallel
    FEWALD:  cpu time    0.00: real time    0.00


----------------------------------------- Iteration    1(   1)  ---------------------------------------


    POTLOK:  cpu time    0.65: real time    0.70
    SETDIJ:  cpu time    0.03: real time    0.03
     EDDAV:  cpu time   61.15: real time   61.70
       DOS:  cpu time    0.02: real time    0.03
    --------------------------------------------
      LOOP:  cpu time   61.86: real time   62.46

 eigenvalue-minimisations  : 12304
 total energy-change (2. order) : 0.3348452E+04  (-0.1282343E+05)
 number of electron     320.0000000 magnetization      83.2000000
 augmentation part      320.0000000 magnetization      83.2000000

 Free energy of the ion-electron system (eV)
  ---------------------------------------------------
  alpha Z        PSCENC =       728.40765498
  Ewald energy   TEWEN  =     78346.67276656
  -Hartree energ DENC   =    -97700.36610868
  -exchange      EXHF   =         0.00000000
  -V(xc)+E(xc)   XCENC  =       503.01999190
  PAW double counting   =     10806.80055862   -10827.60332916
  entropy T*S    EENTRO =        -0.02378001
  eigenvalues    EBANDS =      3121.80206829
  atomic energy  EATOM  =     18369.74264395
  ---------------------------------------------------
  free energy    TOTEN  =      3348.45246645 eV

  energy without entropy =     3348.47624646  energy(sigma->0) =     3348.46435645


--------------------------------------------------------------------------------------------------------




----------------------------------------- Iteration    1(   2)  ---------------------------------------


     EDDAV:  cpu time   63.40: real time   63.91
       DOS:  cpu time    0.03: real time    0.04
    --------------------------------------------
      LOOP:  cpu time   63.55: real time   64.08

 eigenvalue-minimisations  : 12588
 total energy-change (2. order) :-0.3040224E+04  (-0.2808489E+04)
 number of electron     320.0000000 magnetization      83.2000000
 augmentation part      320.0000000 magnetization      83.2000000

 Free energy of the ion-electron system (eV)
  ---------------------------------------------------
  alpha Z        PSCENC =       728.40765498
  Ewald energy   TEWEN  =     78346.67276656
  -Hartree energ DENC   =    -97700.36610868
  -exchange      EXHF   =         0.00000000
  -V(xc)+E(xc)   XCENC  =       503.01999190
  PAW double counting   =     10806.80055862   -10827.60332916
  entropy T*S    EENTRO =        -0.03181330
  eigenvalues    EBANDS =        81.58597745
  atomic energy  EATOM  =     18369.74264395
  ---------------------------------------------------
  free energy    TOTEN  =       308.22834231 eV

  energy without entropy =      308.26015561  energy(sigma->0) =      308.24424896


--------------------------------------------------------------------------------------------------------




----------------------------------------- Iteration    1(   3)  ---------------------------------------


     EDDAV:  cpu time   70.41: real time   70.82
       DOS:  cpu time    0.04: real time    0.08
    --------------------------------------------
      LOOP:  cpu time   70.57: real time   71.04

 eigenvalue-minimisations  : 14764
 total energy-change (2. order) :-0.5416752E+03  (-0.4924779E+03)
 number of electron     320.0000000 magnetization      83.2000000
 augmentation part      320.0000000 magnetization      83.2000000

 Free energy of the ion-electron system (eV)
  ---------------------------------------------------
  alpha Z        PSCENC =       728.40765498
  Ewald energy   TEWEN  =     78346.67276656
  -Hartree energ DENC   =    -97700.36610868
  -exchange      EXHF   =         0.00000000
  -V(xc)+E(xc)   XCENC  =       503.01999190
  PAW double counting   =     10806.80055862   -10827.60332916
  entropy T*S    EENTRO =        -0.05920887
  eigenvalues    EBANDS =      -460.06180813
  atomic energy  EATOM  =     18369.74264395
  ---------------------------------------------------
  free energy    TOTEN  =      -233.44683884 eV

  energy without entropy =     -233.38762997  energy(sigma->0) =     -233.41723440


--------------------------------------------------------------------------------------------------------




----------------------------------------- Iteration    1(   4)  ---------------------------------------


     EDDAV:  cpu time   76.92: real time   77.45
       DOS:  cpu time    0.06: real time    0.12
    --------------------------------------------
      LOOP:  cpu time   77.00: real time   77.63

 eigenvalue-minimisations  : 15800
 total energy-change (2. order) :-0.5401163E+02  (-0.5181178E+02)
 number of electron     320.0000000 magnetization      83.2000000
 augmentation part      320.0000000 magnetization      83.2000000

 Free energy of the ion-electron system (eV)
  ---------------------------------------------------
  alpha Z        PSCENC =       728.40765498
  Ewald energy   TEWEN  =     78346.67276656
  -Hartree energ DENC   =    -97700.36610868
  -exchange      EXHF   =         0.00000000
  -V(xc)+E(xc)   XCENC  =       503.01999190
  PAW double counting   =     10806.80055862   -10827.60332916
  entropy T*S    EENTRO =        -0.05967022
  eigenvalues    EBANDS =      -514.07297228
  atomic energy  EATOM  =     18369.74264395
  ---------------------------------------------------
  free energy    TOTEN  =      -287.45846433 eV

  energy without entropy =     -287.39879412  energy(sigma->0) =     -287.42862922


--------------------------------------------------------------------------------------------------------




----------------------------------------- Iteration    1(   5)  ---------------------------------------


     EDDAV:  cpu time   79.89: real time   80.26
       DOS:  cpu time    0.01: real time    0.02
    CHARGE:  cpu time    2.63: real time    2.64
    MIXING:  cpu time    0.01: real time    0.01
    --------------------------------------------
      LOOP:  cpu time   82.63: real time   83.04

 eigenvalue-minimisations  : 17672
 total energy-change (2. order) :-0.2337778E+01  (-0.2329544E+01)
 number of electron     319.9999950 magnetization      80.9285797
 augmentation part       23.3147565 magnetization      66.6706949

 Broyden mixing:
  rms(total) = 0.54528E+01    rms(broyden)= 0.54526E+01
  rms(prec ) = 0.56508E+01
  weight for this iteration     100.00

 Free energy of the ion-electron system (eV)
  ---------------------------------------------------
  alpha Z        PSCENC =       728.40765498
  Ewald energy   TEWEN  =     78346.67276656
  -Hartree energ DENC   =    -97700.36610868
  -exchange      EXHF   =         0.00000000
  -V(xc)+E(xc)   XCENC  =       503.01999190
  PAW double counting   =     10806.80055862   -10827.60332916
  entropy T*S    EENTRO =        -0.05977488
  eigenvalues    EBANDS =      -516.41064588
  atomic energy  EATOM  =     18369.74264395
  ---------------------------------------------------
  free energy    TOTEN  =      -289.79624259 eV

  energy without entropy =     -289.73646772  energy(sigma->0) =     -289.76635516


--------------------------------------------------------------------------------------------------------




----------------------------------------- Iteration    1(   6)  ---------------------------------------


    POTLOK:  cpu time    0.37: real time    0.38
    SETDIJ:  cpu time    0.03: real time    0.03
    EDDIAG:  cpu time   11.31: real time   11.36
  RMM-DIIS:  cpu time   31.57: real time   31.70
    ORTHCH:  cpu time    2.14: real time    2.21
       DOS:  cpu time    0.01: real time    0.01
    CHARGE:  cpu time    2.26: real time    2.27
    MIXING:  cpu time    0.01: real time    0.01
    --------------------------------------------
      LOOP:  cpu time   47.69: real time   47.97

 eigenvalue-minimisations  : 12284
 total energy-change (2. order) :-0.1129634E+03  (-0.7617902E+02)
 number of electron     319.9999905 magnetization      79.7833984
 augmentation part       76.1353173 magnetization      74.5130403

 Broyden mixing:
  rms(total) = 0.11059E+02    rms(broyden)= 0.11059E+02
  rms(prec ) = 0.11644E+02
  weight for this iteration     100.00

 eigenvalues of (default mixing * dielectric matrix)
  average eigenvalue GAMMA=   0.2152
  0.2152

 Free energy of the ion-electron system (eV)
  ---------------------------------------------------
  alpha Z        PSCENC =       728.40765498
  Ewald energy   TEWEN  =     78346.67276656
  -Hartree energ DENC   =    -97412.11109296
  -exchange      EXHF   =         0.00000000
  -V(xc)+E(xc)   XCENC  =       490.79164144
  PAW double counting   =     10454.97411095   -10411.16846917
  entropy T*S    EENTRO =        -0.03645351
  eigenvalues    EBANDS =      -970.03246990
  atomic energy  EATOM  =     18369.74264395
  ---------------------------------------------------
  free energy    TOTEN  =      -402.75966767 eV

  energy without entropy =     -402.72321416  energy(sigma->0) =     -402.74144091


--------------------------------------------------------------------------------------------------------




----------------------------------------- Iteration    1(   7)  ---------------------------------------


    POTLOK:  cpu time    0.39: real time    0.39
    SETDIJ:  cpu time    0.04: real time    0.04
    EDDIAG:  cpu time   10.96: real time   11.07
  RMM-DIIS:  cpu time   32.28: real time   32.45
    ORTHCH:  cpu time    2.18: real time    2.22
       DOS:  cpu time    0.01: real time    0.01
    CHARGE:  cpu time    2.23: real time    2.24
    MIXING:  cpu time    0.01: real time    0.01
    --------------------------------------------
      LOOP:  cpu time   48.10: real time   48.43

 eigenvalue-minimisations  : 12272
 total energy-change (2. order) : 0.1250992E+03  (-0.1265133E+02)
 number of electron     319.9999934 magnetization      79.3160324
 augmentation part       44.2594427 magnetization      67.3706233

 Broyden mixing:
  rms(total) = 0.62272E+01    rms(broyden)= 0.62270E+01
  rms(prec ) = 0.79743E+01
  weight for this iteration     100.00

 eigenvalues of (default mixing * dielectric matrix)
  average eigenvalue GAMMA=   0.3076
  0.3076  0.3076

 Free energy of the ion-electron system (eV)
  ---------------------------------------------------
  alpha Z        PSCENC =       728.40765498
  Ewald energy   TEWEN  =     78346.67276656
  -Hartree energ DENC   =    -97379.02300684
  -exchange      EXHF   =         0.00000000
  -V(xc)+E(xc)   XCENC  =       495.97094440
  PAW double counting   =     11086.43097022   -11102.91008011
  entropy T*S    EENTRO =        -0.05081461
  eigenvalues    EBANDS =      -822.90151128
  atomic energy  EATOM  =     18369.74264395
  ---------------------------------------------------
  free energy    TOTEN  =      -277.66043274 eV

  energy without entropy =     -277.60961813  energy(sigma->0) =     -277.63502543


--------------------------------------------------------------------------------------------------------




----------------------------------------- Iteration    1(   8)  ---------------------------------------


    POTLOK:  cpu time    0.36: real time    0.36
    SETDIJ:  cpu time    0.03: real time    0.03
    EDDIAG:  cpu time   10.77: real time   10.83
  RMM-DIIS:  cpu time   31.56: real time   31.73
    ORTHCH:  cpu time    2.15: real time    2.21
       DOS:  cpu time    0.01: real time    0.01
    CHARGE:  cpu time    2.27: real time    2.27
    MIXING:  cpu time    0.01: real time    0.01
    --------------------------------------------
      LOOP:  cpu time   47.16: real time   47.45

 eigenvalue-minimisations  : 12274
 total energy-change (2. order) :-0.1084807E+02  (-0.1538386E+01)
 number of electron     319.9999937 magnetization      77.1137203
 augmentation part       41.5541577 magnetization      63.7064096

 Broyden mixing:
  rms(total) = 0.79550E+01    rms(broyden)= 0.79547E+01
  rms(prec ) = 0.96372E+01
  weight for this iteration     100.00

 eigenvalues of (default mixing * dielectric matrix)
  average eigenvalue GAMMA=   0.4272
  0.8888  0.3288  0.0640

 Free energy of the ion-electron system (eV)
  ---------------------------------------------------
  alpha Z        PSCENC =       728.40765498
  Ewald energy   TEWEN  =     78346.67276656
  -Hartree energ DENC   =    -97711.63803835
  -exchange      EXHF   =         0.00000000
  -V(xc)+E(xc)   XCENC  =       495.86179743
  PAW double counting   =     11189.26805388   -11212.31419010
  entropy T*S    EENTRO =        -0.03319174
  eigenvalues    EBANDS =      -494.47599703
  atomic energy  EATOM  =     18369.74264395
  ---------------------------------------------------
  free energy    TOTEN  =      -288.50850043 eV

  energy without entropy =     -288.47530870  energy(sigma->0) =     -288.49190456


--------------------------------------------------------------------------------------------------------




----------------------------------------- Iteration    1(   9)  ---------------------------------------


    POTLOK:  cpu time    0.36: real time    0.36
    SETDIJ:  cpu time    0.03: real time    0.03
    EDDIAG:  cpu time   11.29: real time   11.33
  RMM-DIIS:  cpu time   32.15: real time   32.24
    ORTHCH:  cpu time    2.18: real time    2.20
       DOS:  cpu time    0.01: real time    0.01
    CHARGE:  cpu time    2.21: real time    2.23
    MIXING:  cpu time    0.01: real time    0.01
    --------------------------------------------
      LOOP:  cpu time   48.23: real time   48.41

 eigenvalue-minimisations  : 12272
 total energy-change (2. order) : 0.2771135E+02  (-0.1650597E+01)
 number of electron     319.9999942 magnetization      76.4267480
 augmentation part       42.7620952 magnetization      66.4882377

 Broyden mixing:
  rms(total) = 0.54956E+01    rms(broyden)= 0.54954E+01
  rms(prec ) = 0.64660E+01
  weight for this iteration     100.00

 eigenvalues of (default mixing * dielectric matrix)
  average eigenvalue GAMMA=   0.3783
  0.9846  0.3319  0.0775  0.1193

 Free energy of the ion-electron system (eV)
  ---------------------------------------------------
  alpha Z        PSCENC =       728.40765498
  Ewald energy   TEWEN  =     78346.67276656
  -Hartree energ DENC   =    -97722.89552027
  -exchange      EXHF   =         0.00000000
  -V(xc)+E(xc)   XCENC  =       498.11525785
  PAW double counting   =     11466.18133206   -11500.52928178
  entropy T*S    EENTRO =        -0.01498777
  eigenvalues    EBANDS =      -446.47701761
  atomic energy  EATOM  =     18369.74264395
  ---------------------------------------------------
  free energy    TOTEN  =      -260.79715203 eV

  energy without entropy =     -260.78216425  energy(sigma->0) =     -260.78965814


--------------------------------------------------------------------------------------------------------




----------------------------------------- Iteration    1(  10)  ---------------------------------------


    POTLOK:  cpu time    0.36: real time    0.36
    SETDIJ:  cpu time    0.03: real time    0.03
    EDDIAG:  cpu time   13.93: real time   14.10
  RMM-DIIS:  cpu time   32.23: real time   32.37
    ORTHCH:  cpu time    2.21: real time    2.22
       DOS:  cpu time    0.01: real time    0.01
    CHARGE:  cpu time    2.28: real time    2.29
    MIXING:  cpu time    0.01: real time    0.01
    --------------------------------------------
      LOOP:  cpu time   51.06: real time   51.38

 eigenvalue-minimisations  : 12378
 total energy-change (2. order) : 0.1311252E+02  (-0.4457647E+00)
 number of electron     319.9999942 magnetization      75.5334741
 augmentation part       42.0322255 magnetization      67.6531971

 Broyden mixing:
  rms(total) = 0.38175E+01    rms(broyden)= 0.38174E+01
  rms(prec ) = 0.45804E+01
  weight for this iteration     100.00

 eigenvalues of (default mixing * dielectric matrix)
  average eigenvalue GAMMA=   0.3924
  1.2018  0.3415  0.2329  0.0698  0.1162

 Free energy of the ion-electron system (eV)
  ---------------------------------------------------
  alpha Z        PSCENC =       728.40765498
  Ewald energy   TEWEN  =     78346.67276656
  -Hartree energ DENC   =    -97719.43169860
  -exchange      EXHF   =         0.00000000
  -V(xc)+E(xc)   XCENC  =       498.80659336
  PAW double counting   =     11538.46926023   -11575.10549526
  entropy T*S    EENTRO =        -0.05648878
  eigenvalues    EBANDS =      -435.18986790
  atomic energy  EATOM  =     18369.74264395
  ---------------------------------------------------
  free energy    TOTEN  =      -247.68463147 eV

  energy without entropy =     -247.62814269  energy(sigma->0) =     -247.65638708


--------------------------------------------------------------------------------------------------------




----------------------------------------- Iteration    1(  11)  ---------------------------------------


    POTLOK:  cpu time    0.40: real time    0.40
    SETDIJ:  cpu time    0.03: real time    0.03
    EDDIAG:  cpu time   10.62: real time   10.65
  RMM-DIIS:  cpu time   34.44: real time   34.54
    ORTHCH:  cpu time    2.22: real time    2.26
       DOS:  cpu time    0.01: real time    0.01
    CHARGE:  cpu time    2.48: real time    2.49
    MIXING:  cpu time    0.01: real time    0.01
    --------------------------------------------
      LOOP:  cpu time   50.21: real time   50.39

 eigenvalue-minimisations  : 13475
 total energy-change (2. order) : 0.4823221E+01  (-0.9791314E-01)
 number of electron     319.9999944 magnetization      79.4399699
 augmentation part       42.2308031 magnetization      74.5897324

 Broyden mixing:
  rms(total) = 0.35122E+01    rms(broyden)= 0.35122E+01
  rms(prec ) = 0.38982E+01
  weight for this iteration     100.00

 eigenvalues of (default mixing * dielectric matrix)
  average eigenvalue GAMMA=   0.3277
  1.1962  0.3417  0.2362  0.0699  0.1157  0.0066

 Free energy of the ion-electron system (eV)
  ---------------------------------------------------
  alpha Z        PSCENC =       728.40765498
  Ewald energy   TEWEN  =     78346.67276656
  -Hartree energ DENC   =    -97698.82641684
  -exchange      EXHF   =         0.00000000
  -V(xc)+E(xc)   XCENC  =       499.22037933
  PAW double counting   =     11617.36852190   -11655.27941194
  entropy T*S    EENTRO =        -0.05901857
  eigenvalues    EBANDS =      -450.10852958
  atomic energy  EATOM  =     18369.74264395
  ---------------------------------------------------
  free energy    TOTEN  =      -242.86141023 eV

  energy without entropy =     -242.80239166  energy(sigma->0) =     -242.83190095


--------------------------------------------------------------------------------------------------------




----------------------------------------- Iteration    1(  12)  ---------------------------------------


    POTLOK:  cpu time    0.38: real time    0.38
    SETDIJ:  cpu time    0.03: real time    0.03
    EDDIAG:  cpu time   10.81: real time   10.84
  RMM-DIIS:  cpu time   33.81: real time   33.92
    ORTHCH:  cpu time    2.30: real time    2.33
       DOS:  cpu time    0.01: real time    0.01
    CHARGE:  cpu time    2.25: real time    2.25
    MIXING:  cpu time    0.01: real time    0.01
    --------------------------------------------
      LOOP:  cpu time   49.60: real time   49.77

 eigenvalue-minimisations  : 12272
 total energy-change (2. order) :-0.2959075E+02  (-0.1055787E+01)
 number of electron     319.9999939 magnetization      80.8678557
 augmentation part       40.6764885 magnetization      67.3451885

 Broyden mixing:
  rms(total) = 0.60022E+01    rms(broyden)= 0.60019E+01
  rms(prec ) = 0.80787E+01
  weight for this iteration     100.00

 eigenvalues of (default mixing * dielectric matrix)
  average eigenvalue GAMMA=   0.3119
  1.1694  0.3430  0.2381  0.1426  0.1269  0.0715  0.0918

 Free energy of the ion-electron system (eV)
  ---------------------------------------------------
  alpha Z        PSCENC =       728.40765498
  Ewald energy   TEWEN  =     78346.67276656
  -Hartree energ DENC   =    -97646.97289096
  -exchange      EXHF   =         0.00000000
  -V(xc)+E(xc)   XCENC  =       498.18327011
  PAW double counting   =     11343.11963023   -11379.62472184
  entropy T*S    EENTRO =        -0.03263314
  eigenvalues    EBANDS =      -531.94787755
  atomic energy  EATOM  =     18369.74264395
  ---------------------------------------------------
  free energy    TOTEN  =      -272.45215766 eV

  energy without entropy =     -272.41952452  energy(sigma->0) =     -272.43584109


--------------------------------------------------------------------------------------------------------




----------------------------------------- Iteration    1(  13)  ---------------------------------------


    POTLOK:  cpu time    0.36: real time    0.36
    SETDIJ:  cpu time    0.03: real time    0.03
    EDDIAG:  cpu time   10.87: real time   10.94
  RMM-DIIS:  cpu time   32.33: real time   32.42
    ORTHCH:  cpu time    2.29: real time    2.45
       DOS:  cpu time    0.01: real time    0.01
    CHARGE:  cpu time    2.35: real time    2.36
    MIXING:  cpu time    0.01: real time    0.01
    --------------------------------------------
      LOOP:  cpu time   48.25: real time   48.57

 eigenvalue-minimisations  : 12358
 total energy-change (2. order) : 0.1351565E+02  (-0.3926528E+00)
 number of electron     319.9999941 magnetization      81.7598394
 augmentation part       41.2955751 magnetization      71.9722621

 Broyden mixing:
  rms(total) = 0.51382E+01    rms(broyden)= 0.51378E+01
  rms(prec ) = 0.63341E+01
  weight for this iteration     100.00

 eigenvalues of (default mixing * dielectric matrix)
  average eigenvalue GAMMA=   0.2990
  1.1611  0.2650  0.3421  0.2091  0.2091  0.0710  0.1053  0.0293

 Free energy of the ion-electron system (eV)
  ---------------------------------------------------
  alpha Z        PSCENC =       728.40765498
  Ewald energy   TEWEN  =     78346.67276656
  -Hartree energ DENC   =    -97614.50251499
  -exchange      EXHF   =         0.00000000
  -V(xc)+E(xc)   XCENC  =       499.57239627
  PAW double counting   =     11253.77626040   -11289.20824759
  entropy T*S    EENTRO =        -0.04008715
  eigenvalues    EBANDS =      -553.35737996
  atomic energy  EATOM  =     18369.74264395
  ---------------------------------------------------
  free energy    TOTEN  =      -258.93650754 eV

  energy without entropy =     -258.89642039  energy(sigma->0) =     -258.91646396


--------------------------------------------------------------------------------------------------------




----------------------------------------- Iteration    1(  14)  ---------------------------------------


    POTLOK:  cpu time    0.36: real time    0.36
    SETDIJ:  cpu time    0.03: real time    0.03
    EDDIAG:  cpu time   11.44: real time   11.54
  RMM-DIIS:  cpu time   31.98: real time   32.13
    ORTHCH:  cpu time    2.28: real time    2.37
       DOS:  cpu time    0.01: real time    0.01
    CHARGE:  cpu time    2.29: real time    2.30
    MIXING:  cpu time    0.01: real time    0.01
    --------------------------------------------
      LOOP:  cpu time   48.40: real time   48.75

 eigenvalue-minimisations  : 12279
 total energy-change (2. order) : 0.6961335E+01  (-0.2627123E+00)
 number of electron     319.9999937 magnetization      83.9494025
 augmentation part       41.3007314 magnetization      75.6574589

 Broyden mixing:
  rms(total) = 0.36589E+01    rms(broyden)= 0.36588E+01
  rms(prec ) = 0.39057E+01
  weight for this iteration     100.00

 eigenvalues of (default mixing * dielectric matrix)
  average eigenvalue GAMMA=   0.3555
  1.2022  0.7390  0.3316  0.3120  0.3120  0.1070  0.0706  0.0877  0.0375

 Free energy of the ion-electron system (eV)
  ---------------------------------------------------
  alpha Z        PSCENC =       728.40765498
  Ewald energy   TEWEN  =     78346.67276656
  -Hartree energ DENC   =    -97592.72705956
  -exchange      EXHF   =         0.00000000
  -V(xc)+E(xc)   XCENC  =       500.78132561
  PAW double counting   =     11220.96031798   -11257.57295931
  entropy T*S    EENTRO =        -0.07706166
  eigenvalues    EBANDS =      -568.16280068
  atomic energy  EATOM  =     18369.74264395
  ---------------------------------------------------
  free energy    TOTEN  =      -251.97517213 eV

  energy without entropy =     -251.89811047  energy(sigma->0) =     -251.93664130


--------------------------------------------------------------------------------------------------------




----------------------------------------- Iteration    1(  15)  ---------------------------------------


    POTLOK:  cpu time    0.54: real time    0.54
    SETDIJ:  cpu time    0.03: real time    0.03
    EDDIAG:  cpu time   10.91: real time   10.96
  RMM-DIIS:  cpu time   31.89: real time   31.98
    ORTHCH:  cpu time    2.38: real time    2.50
       DOS:  cpu time    0.01: real time    0.01
    CHARGE:  cpu time    2.34: real time    2.34
    MIXING:  cpu time    0.01: real time    0.01
    --------------------------------------------
      LOOP:  cpu time   48.09: real time   48.37

 eigenvalue-minimisations  : 12272
 total energy-change (2. order) :-0.1233739E+01  (-0.2308725E+00)
 number of electron     319.9999937 magnetization      85.7081681
 augmentation part       40.5067218 magnetization      76.0987780

 Broyden mixing:
  rms(total) = 0.38094E+01    rms(broyden)= 0.38093E+01
  rms(prec ) = 0.39206E+01
  weight for this iteration     100.00

 eigenvalues of (default mixing * dielectric matrix)
  average eigenvalue GAMMA=   0.3519
  1.1977  0.9521  0.3301  0.3105  0.3105  0.0709  0.1057  0.1057  0.1000  0.0362

 Free energy of the ion-electron system (eV)
  ---------------------------------------------------
  alpha Z        PSCENC =       728.40765498
  Ewald energy   TEWEN  =     78346.67276656
  -Hartree energ DENC   =    -97590.87632326
  -exchange      EXHF   =         0.00000000
  -V(xc)+E(xc)   XCENC  =       505.55509351
  PAW double counting   =     11224.32570449   -11266.67248885
  entropy T*S    EENTRO =        -0.07875483
  eigenvalues    EBANDS =      -570.28520797
  atomic energy  EATOM  =     18369.74264395
  ---------------------------------------------------
  free energy    TOTEN  =      -253.20891143 eV

  energy without entropy =     -253.13015659  energy(sigma->0) =     -253.16953401


--------------------------------------------------------------------------------------------------------




----------------------------------------- Iteration    1(  16)  ---------------------------------------


    POTLOK:  cpu time    0.35: real time    0.36
    SETDIJ:  cpu time    0.03: real time    0.03
    EDDIAG:  cpu time   11.07: real time   11.16
  RMM-DIIS:  cpu time   31.87: real time   31.97
    ORTHCH:  cpu time    2.28: real time    2.32
       DOS:  cpu time    0.01: real time    0.01
    CHARGE:  cpu time    2.24: real time    2.25
    MIXING:  cpu time    0.01: real time    0.01
    --------------------------------------------
      LOOP:  cpu time   47.86: real time   48.10

 eigenvalue-minimisations  : 12272
 total energy-change (2. order) :-0.2645686E+01  (-0.3206948E+00)
 number of electron     319.9999937 magnetization      89.7810927
 augmentation part       40.1827305 magnetization      79.1245002

 Broyden mixing:
  rms(total) = 0.43621E+01    rms(broyden)= 0.43620E+01
  rms(prec ) = 0.47417E+01
  weight for this iteration     100.00

 eigenvalues of (default mixing * dielectric matrix)
  average eigenvalue GAMMA=   0.3189
  1.1862  0.4621  0.4621  0.3298  0.3331  0.3331  0.0708  0.1053  0.0943  0.0943
  0.0365

 Free energy of the ion-electron system (eV)
  ---------------------------------------------------
  alpha Z        PSCENC =       728.40765498
  Ewald energy   TEWEN  =     78346.67276656
  -Hartree energ DENC   =    -97599.01162768
  -exchange      EXHF   =         0.00000000
  -V(xc)+E(xc)   XCENC  =       509.70004747
  PAW double counting   =     11200.49534411   -11246.12666772
  entropy T*S    EENTRO =        -0.06144105
  eigenvalues    EBANDS =      -565.67331765
  atomic energy  EATOM  =     18369.74264395
  ---------------------------------------------------
  free energy    TOTEN  =      -255.85459702 eV

  energy without entropy =     -255.79315597  energy(sigma->0) =     -255.82387650


--------------------------------------------------------------------------------------------------------




----------------------------------------- Iteration    1(  17)  ---------------------------------------


    POTLOK:  cpu time    0.36: real time    0.36
    SETDIJ:  cpu time    0.03: real time    0.03
    EDDIAG:  cpu time   11.31: real time   11.35
  RMM-DIIS:  cpu time   32.15: real time   32.29
    ORTHCH:  cpu time    2.36: real time    2.38
       DOS:  cpu time    0.01: real time    0.01
    CHARGE:  cpu time    2.29: real time    2.30
    MIXING:  cpu time    0.01: real time    0.01
    --------------------------------------------
      LOOP:  cpu time   48.53: real time   48.73

 eigenvalue-minimisations  : 12284
 total energy-change (2. order) : 0.3385283E+01  (-0.5522715E+00)
 number of electron     319.9999936 magnetization      91.1923718
 augmentation part       39.8525037 magnetization      78.7852883

 Broyden mixing:
  rms(total) = 0.48235E+01    rms(broyden)= 0.48234E+01
  rms(prec ) = 0.50527E+01
  weight for this iteration     100.00

 eigenvalues of (default mixing * dielectric matrix)
  average eigenvalue GAMMA=   0.3126
  1.1814  0.5557  0.5557  0.3340  0.3340  0.3298  0.0708  0.1035  0.1035  0.0995
  0.0367  0.0465

 Free energy of the ion-electron system (eV)
  ---------------------------------------------------
  alpha Z        PSCENC =       728.40765498
  Ewald energy   TEWEN  =     78346.67276656
  -Hartree energ DENC   =    -97580.59066776
  -exchange      EXHF   =         0.00000000
  -V(xc)+E(xc)   XCENC  =       522.88359141
  PAW double counting   =     11173.14613593   -11227.04795703
  entropy T*S    EENTRO =        -0.06379188
  eigenvalues    EBANDS =      -585.61968994
  atomic energy  EATOM  =     18369.74264395
  ---------------------------------------------------
  free energy    TOTEN  =      -252.46931378 eV

  energy without entropy =     -252.40552190  energy(sigma->0) =     -252.43741784


--------------------------------------------------------------------------------------------------------




----------------------------------------- Iteration    1(  18)  ---------------------------------------


    POTLOK:  cpu time    0.36: real time    0.36
    SETDIJ:  cpu time    0.03: real time    0.03
    EDDIAG:  cpu time   11.09: real time   11.14
  RMM-DIIS:  cpu time   32.57: real time   32.69
    ORTHCH:  cpu time    2.19: real time    2.22
       DOS:  cpu time    0.01: real time    0.01
    CHARGE:  cpu time    2.31: real time    2.33
    MIXING:  cpu time    0.01: real time    0.01
    --------------------------------------------
      LOOP:  cpu time   48.57: real time   48.77

 eigenvalue-minimisations  : 12414
 total energy-change (2. order) : 0.3453873E+01  (-0.1562026E+00)
 number of electron     319.9999935 magnetization      92.2900846
 augmentation part       39.7700331 magnetization      79.8071771

 Broyden mixing:
  rms(total) = 0.45989E+01    rms(broyden)= 0.45989E+01
  rms(prec ) = 0.48787E+01
  weight for this iteration     100.00

 eigenvalues of (default mixing * dielectric matrix)
  average eigenvalue GAMMA=   0.3521
  1.1794  0.8312  0.8312  0.3414  0.3414  0.3313  0.2260  0.1108  0.1066  0.0708
  0.0852  0.0852  0.0366

 Free energy of the ion-electron system (eV)
  ---------------------------------------------------
  alpha Z        PSCENC =       728.40765498
  Ewald energy   TEWEN  =     78346.67276656
  -Hartree energ DENC   =    -97566.80740620
  -exchange      EXHF   =         0.00000000
  -V(xc)+E(xc)   XCENC  =       528.03898043
  PAW double counting   =     11167.52449145   -11224.29361730
  entropy T*S    EENTRO =        -0.05781816
  eigenvalues    EBANDS =      -598.24313658
  atomic energy  EATOM  =     18369.74264395
  ---------------------------------------------------
  free energy    TOTEN  =      -249.01544087 eV

  energy without entropy =     -248.95762271  energy(sigma->0) =     -248.98653179


--------------------------------------------------------------------------------------------------------




----------------------------------------- Iteration    1(  19)  ---------------------------------------


    POTLOK:  cpu time    0.36: real time    0.37
    SETDIJ:  cpu time    0.03: real time    0.03
    EDDIAG:  cpu time   10.88: real time   10.91
  RMM-DIIS:  cpu time   35.29: real time   35.40
    ORTHCH:  cpu time    2.31: real time    2.32
       DOS:  cpu time    0.01: real time    0.01
    CHARGE:  cpu time    2.44: real time    2.45
    MIXING:  cpu time    0.01: real time    0.01
    --------------------------------------------
      LOOP:  cpu time   51.33: real time   51.50

 eigenvalue-minimisations  : 12761
 total energy-change (2. order) : 0.1342647E+01  (-0.7500040E-01)
 number of electron     319.9999934 magnetization      93.7353428
 augmentation part       39.9046100 magnetization      80.8557880

 Broyden mixing:
  rms(total) = 0.48070E+01    rms(broyden)= 0.48070E+01
  rms(prec ) = 0.50024E+01
  weight for this iteration     100.00

 eigenvalues of (default mixing * dielectric matrix)
  average eigenvalue GAMMA=   0.3525
  1.1833  0.9460  0.9460  0.3496  0.3496  0.3322  0.2350  0.1260  0.1059  0.0940
  0.0940  0.0366  0.0708  0.0656

 Free energy of the ion-electron system (eV)
  ---------------------------------------------------
  alpha Z        PSCENC =       728.40765498
  Ewald energy   TEWEN  =     78346.67276656
  -Hartree energ DENC   =    -97556.75328554
  -exchange      EXHF   =         0.00000000
  -V(xc)+E(xc)   XCENC  =       531.19255357
  PAW double counting   =     11157.23406987   -11215.76081284
  entropy T*S    EENTRO =        -0.05269552
  eigenvalues    EBANDS =      -608.35568905
  atomic energy  EATOM  =     18369.74264395
  ---------------------------------------------------
  free energy    TOTEN  =      -247.67279402 eV

  energy without entropy =     -247.62009850  energy(sigma->0) =     -247.64644626


--------------------------------------------------------------------------------------------------------




----------------------------------------- Iteration    1(  20)  ---------------------------------------


    POTLOK:  cpu time    0.36: real time    0.36
    SETDIJ:  cpu time    0.03: real time    0.03
    EDDIAG:  cpu time   10.92: real time   10.96
  RMM-DIIS:  cpu time   31.94: real time   32.03
    ORTHCH:  cpu time    2.25: real time    2.31
       DOS:  cpu time    0.01: real time    0.01
    CHARGE:  cpu time    2.29: real time    2.29
    MIXING:  cpu time    0.01: real time    0.01
    --------------------------------------------
      LOOP:  cpu time   47.82: real time   48.01

 eigenvalue-minimisations  : 12284
 total energy-change (2. order) : 0.2676683E+01  (-0.4893594E-01)
 number of electron     319.9999934 magnetization      93.1519036
 augmentation part       40.0846245 magnetization      79.7478398

 Broyden mixing:
  rms(total) = 0.47215E+01    rms(broyden)= 0.47215E+01
  rms(prec ) = 0.48953E+01
  weight for this iteration     100.00

 eigenvalues of (default mixing * dielectric matrix)
  average eigenvalue GAMMA=   0.4465
  1.4749  1.4749  1.1405  0.4700  0.4700  0.3744  0.3744  0.3262  0.1228  0.0366
  0.1076  0.0707  0.0888  0.0888  0.0770

 Free energy of the ion-electron system (eV)
  ---------------------------------------------------
  alpha Z        PSCENC =       728.40765498
  Ewald energy   TEWEN  =     78346.67276656
  -Hartree energ DENC   =    -97548.44411933
  -exchange      EXHF   =         0.00000000
  -V(xc)+E(xc)   XCENC  =       535.42965960
  PAW double counting   =     11133.21788834   -11193.62725231
  entropy T*S    EENTRO =        -0.05961191
  eigenvalues    EBANDS =      -616.33574044
  atomic energy  EATOM  =     18369.74264395
  ---------------------------------------------------
  free energy    TOTEN  =      -244.99611057 eV

  energy without entropy =     -244.93649865  energy(sigma->0) =     -244.96630461


--------------------------------------------------------------------------------------------------------




----------------------------------------- Iteration    1(  21)  ---------------------------------------


    POTLOK:  cpu time    0.36: real time    0.36
    SETDIJ:  cpu time    0.03: real time    0.03
    EDDIAG:  cpu time   11.01: real time   11.07
  RMM-DIIS:  cpu time   32.26: real time   32.42
    ORTHCH:  cpu time    2.16: real time    2.24
       DOS:  cpu time    0.01: real time    0.01
    CHARGE:  cpu time    2.26: real time    2.27
    MIXING:  cpu time    0.01: real time    0.01
    --------------------------------------------
      LOOP:  cpu time   48.11: real time   48.42

 eigenvalue-minimisations  : 12270
 total energy-change (2. order) :-0.1396136E+01  (-0.1943816E-01)
 number of electron     319.9999934 magnetization      91.6519935
 augmentation part       40.1470464 magnetization      78.6892278

 Broyden mixing:
  rms(total) = 0.48361E+01    rms(broyden)= 0.48361E+01
  rms(prec ) = 0.50477E+01
  weight for this iteration     100.00

 eigenvalues of (default mixing * dielectric matrix)
  average eigenvalue GAMMA=   0.4997
  1.9472  1.9472  1.1283  0.5599  0.5599  0.4126  0.4126  0.3259  0.1308  0.0366
  0.1078  0.1078  0.0707  0.0869  0.0869  0.0742

 Free energy of the ion-electron system (eV)
  ---------------------------------------------------
  alpha Z        PSCENC =       728.40765498
  Ewald energy   TEWEN  =     78346.67276656
  -Hartree energ DENC   =    -97554.44824859
  -exchange      EXHF   =         0.00000000
  -V(xc)+E(xc)   XCENC  =       534.12380996
  PAW double counting   =     11134.55818838   -11194.04715858
  entropy T*S    EENTRO =        -0.06138236
  eigenvalues    EBANDS =      -611.34052045
  atomic energy  EATOM  =     18369.74264395
  ---------------------------------------------------
  free energy    TOTEN  =      -246.39224615 eV

  energy without entropy =     -246.33086379  energy(sigma->0) =     -246.36155497


--------------------------------------------------------------------------------------------------------




----------------------------------------- Iteration    1(  22)  ---------------------------------------


    POTLOK:  cpu time    0.36: real time    0.36
    SETDIJ:  cpu time    0.03: real time    0.03
    EDDIAG:  cpu time   11.08: real time   11.12
  RMM-DIIS:  cpu time   31.96: real time   32.06
    ORTHCH:  cpu time    2.23: real time    2.28
       DOS:  cpu time    0.01: real time    0.01
    CHARGE:  cpu time    2.31: real time    2.31
    MIXING:  cpu time    0.01: real time    0.01
    --------------------------------------------
      LOOP:  cpu time   47.99: real time   48.18

 eigenvalue-minimisations  : 12270
 total energy-change (2. order) :-0.1451965E+01  (-0.1729080E-01)
 number of electron     319.9999934 magnetization      90.8751813
 augmentation part       39.9094867 magnetization      78.3050037

 Broyden mixing:
  rms(total) = 0.47550E+01    rms(broyden)= 0.47550E+01
  rms(prec ) = 0.49813E+01
  weight for this iteration     100.00

 eigenvalues of (default mixing * dielectric matrix)
  average eigenvalue GAMMA=   0.5212
  2.2417  2.2417  1.1213  0.5985  0.5985  0.4135  0.4135  0.3256  0.1647  0.1647
  0.0366  0.1094  0.1094  0.0707  0.0870  0.0870  0.0762

 Free energy of the ion-electron system (eV)
  ---------------------------------------------------
  alpha Z        PSCENC =       728.40765498
  Ewald energy   TEWEN  =     78346.67276656
  -Hartree energ DENC   =    -97561.15381531
  -exchange      EXHF   =         0.00000000
  -V(xc)+E(xc)   XCENC  =       531.40203829
  PAW double counting   =     11145.89742341   -11203.39084075
  entropy T*S    EENTRO =        -0.06008478
  eigenvalues    EBANDS =      -605.36199733
  atomic energy  EATOM  =     18369.74264395
  ---------------------------------------------------
  free energy    TOTEN  =      -247.84421099 eV

  energy without entropy =     -247.78412621  energy(sigma->0) =     -247.81416860


--------------------------------------------------------------------------------------------------------




----------------------------------------- Iteration    1(  23)  ---------------------------------------


    POTLOK:  cpu time    0.36: real time    0.36
    SETDIJ:  cpu time    0.03: real time    0.03
    EDDIAG:  cpu time   11.11: real time   11.16
  RMM-DIIS:  cpu time   32.00: real time   32.17
    ORTHCH:  cpu time    2.15: real time    2.19
       DOS:  cpu time    0.01: real time    0.01
    CHARGE:  cpu time    2.30: real time    2.31
    MIXING:  cpu time    0.01: real time    0.01
    --------------------------------------------
      LOOP:  cpu time   47.97: real time   48.24

 eigenvalue-minimisations  : 12230
 total energy-change (2. order) :-0.8300285E+00  (-0.1218839E-01)
 number of electron     319.9999934 magnetization      89.1077594
 augmentation part       39.8714196 magnetization      76.7789763

 Broyden mixing:
  rms(total) = 0.47131E+01    rms(broyden)= 0.47131E+01
  rms(prec ) = 0.49380E+01
  weight for this iteration     100.00

 eigenvalues of (default mixing * dielectric matrix)
  average eigenvalue GAMMA=   0.5500
  2.5570  2.5570  1.1262  0.6646  0.6646  0.4250  0.4250  0.3307  0.3307  0.1512
  0.0366  0.1138  0.1096  0.0707  0.0751  0.0885  0.0885  0.0843

 Free energy of the ion-electron system (eV)
  ---------------------------------------------------
  alpha Z        PSCENC =       728.40765498
  Ewald energy   TEWEN  =     78346.67276656
  -Hartree energ DENC   =    -97564.32337999
  -exchange      EXHF   =         0.00000000
  -V(xc)+E(xc)   XCENC  =       529.97818467
  PAW double counting   =     11152.13825609   -11208.66881516
  entropy T*S    EENTRO =        -0.06004708
  eigenvalues    EBANDS =      -602.56150353
  atomic energy  EATOM  =     18369.74264395
  ---------------------------------------------------
  free energy    TOTEN  =      -248.67423950 eV

  energy without entropy =     -248.61419242  energy(sigma->0) =     -248.64421596


--------------------------------------------------------------------------------------------------------




----------------------------------------- Iteration    1(  24)  ---------------------------------------


    POTLOK:  cpu time    0.37: real time    0.37
    SETDIJ:  cpu time    0.03: real time    0.03
    EDDIAG:  cpu time   11.21: real time   11.28
  RMM-DIIS:  cpu time   31.61: real time   31.76
    ORTHCH:  cpu time    2.23: real time    2.24
       DOS:  cpu time    0.01: real time    0.01
    CHARGE:  cpu time    2.27: real time    2.35
    MIXING:  cpu time    0.01: real time    0.01
    --------------------------------------------
      LOOP:  cpu time   47.73: real time   48.05

 eigenvalue-minimisations  : 12272
 total energy-change (2. order) :-0.2098869E+01  (-0.2336597E-01)
 number of electron     319.9999934 magnetization      87.2340332
 augmentation part       39.7541299 magnetization      75.4370736

 Broyden mixing:
  rms(total) = 0.46614E+01    rms(broyden)= 0.46614E+01
  rms(prec ) = 0.49176E+01
  weight for this iteration     100.00

 eigenvalues of (default mixing * dielectric matrix)
  average eigenvalue GAMMA=   0.5837
  2.9437  2.9437  1.1411  0.7181  0.7181  0.4329  0.4329  0.3220  0.3149  0.3149
  0.1407  0.0366  0.1117  0.1086  0.0707  0.0758  0.0893  0.0893  0.0860

 Free energy of the ion-electron system (eV)
  ---------------------------------------------------
  alpha Z        PSCENC =       728.40765498
  Ewald energy   TEWEN  =     78346.67276656
  -Hartree energ DENC   =    -97576.85053569
  -exchange      EXHF   =         0.00000000
  -V(xc)+E(xc)   XCENC  =       527.17632933
  PAW double counting   =     11168.83909540   -11223.68435739
  entropy T*S    EENTRO =        -0.05871009
  eigenvalues    EBANDS =      -591.01799556
  atomic energy  EATOM  =     18369.74264395
  ---------------------------------------------------
  free energy    TOTEN  =      -250.77310851 eV

  energy without entropy =     -250.71439842  energy(sigma->0) =     -250.74375346


--------------------------------------------------------------------------------------------------------




----------------------------------------- Iteration    1(  25)  ---------------------------------------


    POTLOK:  cpu time    0.37: real time    0.37
    SETDIJ:  cpu time    0.03: real time    0.03
    EDDIAG:  cpu time   11.02: real time   11.07
  RMM-DIIS:  cpu time   31.98: real time   32.08
    ORTHCH:  cpu time    2.73: real time    2.73
       DOS:  cpu time    0.03: real time    0.03
    CHARGE:  cpu time    2.55: real time    2.56
    MIXING:  cpu time    0.01: real time    0.01
    --------------------------------------------
      LOOP:  cpu time   48.71: real time   48.89

 eigenvalue-minimisations  : 12271
 total energy-change (2. order) :-0.1791953E+01  (-0.3713007E-01)
 number of electron     319.9999933 magnetization      81.4079948
 augmentation part       39.6833873 magnetization      70.0658367

 Broyden mixing:
  rms(total) = 0.46587E+01    rms(broyden)= 0.46587E+01
  rms(prec ) = 0.49326E+01
  weight for this iteration     100.00

 eigenvalues of (default mixing * dielectric matrix)
  average eigenvalue GAMMA=   0.6428
  3.4546  3.4546  1.1704  0.8307  0.8307  0.4990  0.4990  0.4420  0.4420  0.3255
  0.1415  0.0366  0.1122  0.1051  0.1051  0.0707  0.0756  0.0886  0.0864  0.0864

 Free energy of the ion-electron system (eV)
  ---------------------------------------------------
  alpha Z        PSCENC =       728.40765498
  Ewald energy   TEWEN  =     78346.67276656
  -Hartree energ DENC   =    -97584.78590520
  -exchange      EXHF   =         0.00000000
  -V(xc)+E(xc)   XCENC  =       524.37081456
  PAW double counting   =     11188.28981251   -11241.38622954
  entropy T*S    EENTRO =        -0.05977985
  eigenvalues    EBANDS =      -583.81683916
  atomic energy  EATOM  =     18369.74264395
  ---------------------------------------------------
  free energy    TOTEN  =      -252.56506119 eV

  energy without entropy =     -252.50528133  energy(sigma->0) =     -252.53517126


--------------------------------------------------------------------------------------------------------




----------------------------------------- Iteration    1(  26)  ---------------------------------------


    POTLOK:  cpu time    0.45: real time    0.55
    SETDIJ:  cpu time    0.03: real time    0.03
    EDDIAG:  cpu time   11.20: real time   11.25
  RMM-DIIS:  cpu time   32.16: real time   32.29
    ORTHCH:  cpu time    2.16: real time    2.24
       DOS:  cpu time    0.01: real time    0.01
    CHARGE:  cpu time    2.29: real time    2.29
    MIXING:  cpu time    0.01: real time    0.01
    --------------------------------------------
      LOOP:  cpu time   48.32: real time   48.69

 eigenvalue-minimisations  : 12272
 total energy-change (2. order) :-0.4491736E+01  (-0.1181431E+00)
 number of electron     319.9999934 magnetization      77.5349334
 augmentation part       39.6080183 magnetization      67.8955576

 Broyden mixing:
  rms(total) = 0.45098E+01    rms(broyden)= 0.45097E+01
  rms(prec ) = 0.47876E+01
  weight for this iteration     100.00

 eigenvalues of (default mixing * dielectric matrix)
  average eigenvalue GAMMA=   0.6531
  3.7334  3.7334  1.1954  0.8546  0.8546  0.5182  0.5182  0.4463  0.4463  0.3253
  0.1592  0.1592  0.0366  0.1161  0.0707  0.1075  0.1038  0.0757  0.0900  0.0856
  0.0856

 Free energy of the ion-electron system (eV)
  ---------------------------------------------------
  alpha Z        PSCENC =       728.40765498
  Ewald energy   TEWEN  =     78346.67276656
  -Hartree energ DENC   =    -97594.77853788
  -exchange      EXHF   =         0.00000000
  -V(xc)+E(xc)   XCENC  =       516.55179038
  PAW double counting   =     11252.67765043   -11300.77234972
  entropy T*S    EENTRO =        -0.06312824
  eigenvalues    EBANDS =      -575.49528761
  atomic energy  EATOM  =     18369.74264395
  ---------------------------------------------------
  free energy    TOTEN  =      -257.05679715 eV

  energy without entropy =     -256.99366891  energy(sigma->0) =     -257.02523303


--------------------------------------------------------------------------------------------------------




----------------------------------------- Iteration    1(  27)  ---------------------------------------


    POTLOK:  cpu time    0.37: real time    0.37
    SETDIJ:  cpu time    0.03: real time    0.03
    EDDIAG:  cpu time   11.30: real time   11.35
  RMM-DIIS:  cpu time   31.79: real time   31.93
    ORTHCH:  cpu time    2.13: real time    2.26
       DOS:  cpu time    0.01: real time    0.01
    CHARGE:  cpu time    2.27: real time    2.28
    MIXING:  cpu time    0.01: real time    0.01
    --------------------------------------------
      LOOP:  cpu time   47.91: real time   48.25

 eigenvalue-minimisations  : 12279
 total energy-change (2. order) :-0.2581805E+01  (-0.9716081E-01)
 number of electron     319.9999934 magnetization      74.0605878
 augmentation part       39.4584321 magnetization      65.4311564

 Broyden mixing:
  rms(total) = 0.43516E+01    rms(broyden)= 0.43515E+01
  rms(prec ) = 0.46715E+01
  weight for this iteration     100.00

 eigenvalues of (default mixing * dielectric matrix)
  average eigenvalue GAMMA=   0.6605
  3.9565  3.9565  1.2329  0.8626  0.8626  0.5496  0.5496  0.4420  0.4420  0.3162
[...]
   -.162E+04 0.704E+01 -.288E+01   0.162E+04 -.948E+01 0.564E+01   0.240E+01 0.232E+01 -.253E+01   -.279E+00 0.339E-01 -.418E-01
   -.181E+04 -.230E+02 -.160E+02   0.182E+04 0.216E+02 0.139E+02   -.467E+01 0.112E+01 0.172E+01   -.110E+00 0.302E-01 0.210E-02
   -.181E+04 0.230E+02 -.160E+02   0.182E+04 -.216E+02 0.139E+02   -.467E+01 -.113E+01 0.172E+01   -.110E+00 -.310E-01 0.291E-02
 -----------------------------------------------------------------------------------------------
   -.287E+01 0.786E+00 0.628E+01   0.364E-11 0.675E-13 -.284E-13   0.330E+01 -.693E+00 -.623E+01   -.397E+00 -.877E-01 -.981E-01
 
 
 POSITION                                       TOTAL-FORCE (eV/Angst)
 -----------------------------------------------------------------------------------
      6.86309      0.02459      2.74867         0.431603      0.331167      0.190487
      6.81023      2.69710      0.01756         0.299173     -0.245605      0.088408
      9.50818     -0.00486     -0.00264        -0.000387     -0.046470     -0.020016
      9.50660      2.71099      2.71890        -0.019265     -0.053889      0.007173
     12.21785      0.00000      2.71508        -0.043247      0.021258      0.006063
     12.21785      2.71508      0.00000         0.072673      0.018272     -0.019899
     14.93292      0.00000      0.00000        -0.009323     -0.002869      0.004181
     14.93292      2.71508      2.71508        -0.005616      0.000453      0.002323
     17.64801      0.00000      2.71508         0.001663      0.000785      0.004528
     17.64801      2.71508      0.00000         0.003460     -0.000629      0.004987
     20.36308      0.00000      0.00000         0.015634     -0.017727      0.017991
     20.36308      2.71508      2.71508         0.015627      0.017611      0.017827
     23.07987      0.00056      2.71185         0.153038     -0.017233     -0.089252
     23.07997      2.71448     -0.00329         0.152666      0.017031     -0.088553
     25.71493     -0.02655      0.03470        -0.290547     -0.267289      0.264900
     25.71485      2.74164      2.74990        -0.288256      0.266960      0.262858
      6.14518      2.07381      2.07010        -0.114633     -0.142313     -0.273985
      6.14539      0.62999      4.76942        -0.086346      0.170164     -0.359024
      7.37712      3.35117      3.32766        -0.296062      0.091020      0.107791
      7.37964      4.82035      0.63359        -0.319005      0.023970      0.111991
      8.85471      0.62674      3.34286         0.085375      0.070443      0.121003
      8.90223      2.07747      0.64364         0.205137     -0.128957      0.177715
     10.13772      4.79752      2.08071         0.115099     -0.092369     -0.050078
     10.13587      3.34396      4.80254         0.058236      0.027805     -0.059866
     11.59304      2.09027      2.09027        -0.138149     -0.157144     -0.134974
     11.59304      0.62480      4.80535        -0.166840      0.145596     -0.184836
     12.84265      3.33988      3.33988         0.172619      0.134259      0.154623
     12.84265      4.80535      0.62480         0.191963     -0.155003      0.133180
     14.30811      0.62480      3.33988        -0.134224      0.157024      0.160655
     14.30811      2.09027      0.62480        -0.143847     -0.162528      0.163320
     15.55772      4.80535      2.09027         0.159583     -0.157872     -0.158406
     15.55772      3.33988      4.80535         0.156790      0.155610     -0.154971
     17.02321      2.09027      2.09027        -0.157068     -0.156177     -0.156394
     17.02321      0.62480      4.80535        -0.156618      0.156554     -0.156976
     18.27282      3.33988      3.33988         0.140815      0.156204      0.157417
     18.27282      4.80535      0.62480         0.140485     -0.156653      0.156654
     19.73828      0.62480      3.33988        -0.172353      0.145141      0.136974
     19.73828      2.09027      0.62480        -0.172592     -0.145281      0.136771
     20.98789      4.80535      2.09027         0.205939     -0.171800     -0.179932
     20.98789      3.33988      4.80535         0.206265      0.171222     -0.180048
     22.44394      2.08307      2.08224        -0.065784     -0.053458     -0.087613
     22.44395      0.63198      4.79735        -0.065772      0.052968     -0.087947
     23.73310      3.34157      3.34155        -0.115464      0.093148      0.103993
     23.73298      4.80357      0.62655        -0.113345     -0.092967      0.102554
     25.20563      0.62579      3.34843         0.183338      0.089054      0.182201
     25.20570      2.08919      0.63331         0.183211     -0.087121      0.183164
     26.42387      4.79270      2.05714        -0.137669     -0.209301     -0.359240
     26.42392      3.35282      4.77224        -0.137980      0.206936     -0.359722
 -----------------------------------------------------------------------------------
    total drift:                                0.042077      0.004655     -0.045063


--------------------------------------------------------------------------------------------------------



  FREE ENERGIE OF THE ION-ELECTRON SYSTEM (eV)
  ---------------------------------------------------
  free  energy   TOTEN  =        83.57965717 eV

  energy  without entropy=       83.58812407  energy(sigma->0) =       83.58389062
 
 d Force = 0.3403035E+00[ 0.173E+00, 0.508E+00]  d Energy =-0.3679919E+03 0.368E+03
 d Force =-0.1798795E+03[-0.180E+03,-0.180E+03]  d Ewald  =-0.1798722E+03-0.729E-02


--------------------------------------------------------------------------------------------------------


    POTLOK:  cpu time    0.39: real time    0.39


--------------------------------------------------------------------------------------------------------


 Quasi-Newton relaxation of ions (Broydens 2nd method)
  g(Force)  = 0.309E-01   g(Stress)= 0.000E+00

 retain information from N=  2 steps
 eigenvalues of (default step * inverse Hessian matrix)
  average eigenvalue of G=   5.2864
 eigenvalue spectrum of G is  5.2864  5.2864


--------------------------------------------------------------------------------------------------------


    WAVPRE:  cpu time    0.04: real time    0.04
 FEWALD executed in parallel
    FEWALD:  cpu time    0.00: real time    0.00

 real space projection operators:
  total allocation   :      21787.11 KBytes
  max/ min on nodes  :       3246.22       2537.70

    ORTHCH:  cpu time    6.70: real time    6.75
     LOOP+:  cpu time  493.57: real time  496.30


----------------------------------------- Iteration    4(   1)  ---------------------------------------


    POTLOK:  cpu time    0.36: real time    0.36
    SETDIJ:  cpu time    0.03: real time    0.03
     EDDAV:  cpu time   63.81: real time   64.85
       DOS:  cpu time    0.01: real time    0.01
    CHARGE:  cpu time    2.18: real time    2.19
    MIXING:  cpu time    0.01: real time    0.01
    --------------------------------------------
      LOOP:  cpu time   66.39: real time   67.45

 eigenvalue-minimisations  : 12968
 total energy-change (2. order) :-0.2952374E-01  (-0.9905256E+00)
 number of electron     319.9999979 magnetization       1.7996359
 augmentation part       40.6051232 magnetization       1.3030964

 Broyden mixing:
  rms(total) = 0.98053E-01    rms(broyden)= 0.97645E-01
  rms(prec ) = 0.99719E-01
  weight for this iteration     100.00

 Free energy of the ion-electron system (eV)
  ---------------------------------------------------
  alpha Z        PSCENC =       728.40765498
  Ewald energy   TEWEN  =     78682.88420519
  -Hartree energ DENC   =    -98019.46889663
  -exchange      EXHF   =         0.00000000
  -V(xc)+E(xc)   XCENC  =       470.23573125
  PAW double counting   =     12069.19559026   -12099.94432825
  entropy T*S    EENTRO =        -0.00815185
  eigenvalues    EBANDS =      -485.87851132
  atomic energy  EATOM  =     18369.74264395
  ---------------------------------------------------
  free energy    TOTEN  =      -284.83406242 eV

  energy without entropy =     -284.82591056  energy(sigma->0) =     -284.82998649


--------------------------------------------------------------------------------------------------------




----------------------------------------- Iteration    4(   2)  ---------------------------------------


    POTLOK:  cpu time    0.37: real time    0.37
    SETDIJ:  cpu time    0.03: real time    0.03
    EDDIAG:  cpu time   11.03: real time   11.06
  RMM-DIIS:  cpu time   36.68: real time   36.79
    ORTHCH:  cpu time    1.96: real time    1.97
       DOS:  cpu time    0.01: real time    0.01
    CHARGE:  cpu time    2.20: real time    2.21
    MIXING:  cpu time    0.01: real time    0.01
    --------------------------------------------
      LOOP:  cpu time   52.29: real time   52.45

 eigenvalue-minimisations  : 12288
 total energy-change (2. order) :-0.5044342E-01  (-0.2859503E-01)
 number of electron     319.9999979 magnetization       1.7967702
 augmentation part       40.8565332 magnetization       1.3525481

 Broyden mixing:
  rms(total) = 0.19615E+00    rms(broyden)= 0.19613E+00
  rms(prec ) = 0.20790E+00
  weight for this iteration     100.00

 eigenvalues of (default mixing * dielectric matrix)
  average eigenvalue GAMMA=   0.2819
  0.2819

 Free energy of the ion-electron system (eV)
  ---------------------------------------------------
  alpha Z        PSCENC =       728.40765498
  Ewald energy   TEWEN  =     78682.88420519
  -Hartree energ DENC   =    -98022.12456333
  -exchange      EXHF   =         0.00000000
  -V(xc)+E(xc)   XCENC  =       470.15752925
  PAW double counting   =     12069.70457592   -12100.02272560
  entropy T*S    EENTRO =        -0.00881843
  eigenvalues    EBANDS =      -483.62500778
  atomic energy  EATOM  =     18369.74264395
  ---------------------------------------------------
  free energy    TOTEN  =      -284.88450584 eV

  energy without entropy =     -284.87568741  energy(sigma->0) =     -284.88009663


--------------------------------------------------------------------------------------------------------




----------------------------------------- Iteration    4(   3)  ---------------------------------------


    POTLOK:  cpu time    0.45: real time    0.45
    SETDIJ:  cpu time    0.03: real time    0.03
    EDDIAG:  cpu time   10.86: real time   11.24
  RMM-DIIS:  cpu time   37.05: real time   37.24
    ORTHCH:  cpu time    1.97: real time    1.97
       DOS:  cpu time    0.01: real time    0.01
    CHARGE:  cpu time    2.22: real time    2.23
    MIXING:  cpu time    0.01: real time    0.01
    --------------------------------------------
      LOOP:  cpu time   52.59: real time   53.18

 eigenvalue-minimisations  : 13372
 total energy-change (2. order) : 0.1750864E-01  (-0.7017619E-02)
 number of electron     319.9999979 magnetization       1.7903639
 augmentation part       40.7075851 magnetization       1.2895730

 Broyden mixing:
  rms(total) = 0.10634E+00    rms(broyden)= 0.10633E+00
  rms(prec ) = 0.11188E+00
  weight for this iteration     100.00

 eigenvalues of (default mixing * dielectric matrix)
  average eigenvalue GAMMA=   0.4757
  0.7909  0.1605

 Free energy of the ion-electron system (eV)
  ---------------------------------------------------
  alpha Z        PSCENC =       728.40765498
  Ewald energy   TEWEN  =     78682.88420519
  -Hartree energ DENC   =    -98019.52723548
  -exchange      EXHF   =         0.00000000
  -V(xc)+E(xc)   XCENC  =       470.18151402
  PAW double counting   =     12072.56449966   -12103.12425298
  entropy T*S    EENTRO =        -0.00836168
  eigenvalues    EBANDS =      -485.98766486
  atomic energy  EATOM  =     18369.74264395
  ---------------------------------------------------
  free energy    TOTEN  =      -284.86699720 eV

  energy without entropy =     -284.85863552  energy(sigma->0) =     -284.86281636


--------------------------------------------------------------------------------------------------------




----------------------------------------- Iteration    4(   4)  ---------------------------------------


    POTLOK:  cpu time    0.37: real time    0.37
    SETDIJ:  cpu time    0.03: real time    0.03
    EDDIAG:  cpu time   10.85: real time   10.89
  RMM-DIIS:  cpu time   26.54: real time   26.64
    ORTHCH:  cpu time    1.97: real time    1.98
       DOS:  cpu time    0.01: real time    0.01
    CHARGE:  cpu time    2.19: real time    2.19
    MIXING:  cpu time    0.01: real time    0.01
    --------------------------------------------
      LOOP:  cpu time   41.96: real time   42.12

 eigenvalue-minimisations  :  9909
 total energy-change (2. order) : 0.2174253E-03  (-0.1814886E-02)
 number of electron     319.9999979 magnetization       1.7853959
 augmentation part       40.5266461 magnetization       1.2971274

 Broyden mixing:
  rms(total) = 0.80987E-01    rms(broyden)= 0.80985E-01
  rms(prec ) = 0.84893E-01
  weight for this iteration     100.00

 eigenvalues of (default mixing * dielectric matrix)
  average eigenvalue GAMMA=   0.5198
  1.0647  0.3431  0.1516

 Free energy of the ion-electron system (eV)
  ---------------------------------------------------
  alpha Z        PSCENC =       728.40765498
  Ewald energy   TEWEN  =     78682.88420519
  -Hartree energ DENC   =    -98021.03285131
  -exchange      EXHF   =         0.00000000
  -V(xc)+E(xc)   XCENC  =       470.21872253
  PAW double counting   =     12077.35978988   -12108.31342535
  entropy T*S    EENTRO =        -0.00807751
  eigenvalues    EBANDS =      -484.12544212
  atomic energy  EATOM  =     18369.74264395
  ---------------------------------------------------
  free energy    TOTEN  =      -284.86677977 eV

  energy without entropy =     -284.85870226  energy(sigma->0) =     -284.86274102


--------------------------------------------------------------------------------------------------------




----------------------------------------- Iteration    4(   5)  ---------------------------------------


    POTLOK:  cpu time    0.45: real time    0.45
    SETDIJ:  cpu time    0.03: real time    0.03
    EDDIAG:  cpu time   10.84: real time   10.88
  RMM-DIIS:  cpu time   25.52: real time   25.61
    ORTHCH:  cpu time    1.96: real time    1.97
       DOS:  cpu time    0.01: real time    0.01
    CHARGE:  cpu time    2.17: real time    2.18
    MIXING:  cpu time    0.01: real time    0.01
    --------------------------------------------
      LOOP:  cpu time   40.98: real time   41.13

 eigenvalue-minimisations  :  9461
 total energy-change (2. order) : 0.1012302E-02  (-0.9862919E-03)
 number of electron     319.9999979 magnetization       1.7784765
 augmentation part       40.6672557 magnetization       1.3145316

 Broyden mixing:
  rms(total) = 0.65435E-01    rms(broyden)= 0.65431E-01
  rms(prec ) = 0.68377E-01
  weight for this iteration     100.00

 eigenvalues of (default mixing * dielectric matrix)
  average eigenvalue GAMMA=   0.6215
  1.5582  0.5977  0.1484  0.1818

 Free energy of the ion-electron system (eV)
  ---------------------------------------------------
  alpha Z        PSCENC =       728.40765498
  Ewald energy   TEWEN  =     78682.88420519
  -Hartree energ DENC   =    -98020.93117693
  -exchange      EXHF   =         0.00000000
  -V(xc)+E(xc)   XCENC  =       470.18996796
  PAW double counting   =     12075.90279659   -12106.67283467
  entropy T*S    EENTRO =        -0.00920916
  eigenvalues    EBANDS =      -484.37981538
  atomic energy  EATOM  =     18369.74264395
  ---------------------------------------------------
  free energy    TOTEN  =      -284.86576747 eV

  energy without entropy =     -284.85655831  energy(sigma->0) =     -284.86116289


--------------------------------------------------------------------------------------------------------




----------------------------------------- Iteration    4(   6)  ---------------------------------------


    POTLOK:  cpu time    0.36: real time    0.36
    SETDIJ:  cpu time    0.03: real time    0.03
    EDDIAG:  cpu time   10.87: real time   10.93
  RMM-DIIS:  cpu time   24.72: real time   24.85
    ORTHCH:  cpu time    1.97: real time    1.98
       DOS:  cpu time    0.01: real time    0.01
    CHARGE:  cpu time    2.19: real time    2.21
    MIXING:  cpu time    0.01: real time    0.01
    --------------------------------------------
      LOOP:  cpu time   40.15: real time   40.37

 eigenvalue-minimisations  :  9244
 total energy-change (2. order) :-0.2626418E-03  (-0.5962018E-03)
 number of electron     319.9999979 magnetization       1.7684831
 augmentation part       40.7662796 magnetization       1.2914832

 Broyden mixing:
  rms(total) = 0.44936E-01    rms(broyden)= 0.44935E-01
  rms(prec ) = 0.47120E-01
  weight for this iteration     100.00

 eigenvalues of (default mixing * dielectric matrix)
  average eigenvalue GAMMA=   0.7162
  2.2159  0.7371  0.2922  0.1478  0.1878

 Free energy of the ion-electron system (eV)
  ---------------------------------------------------
  alpha Z        PSCENC =       728.40765498
  Ewald energy   TEWEN  =     78682.88420519
  -Hartree energ DENC   =    -98019.15224985
  -exchange      EXHF   =         0.00000000
  -V(xc)+E(xc)   XCENC  =       470.15384787
  PAW double counting   =     12074.86243845   -12105.48919827
  entropy T*S    EENTRO =        -0.00851034
  eigenvalues    EBANDS =      -486.26686209
  atomic energy  EATOM  =     18369.74264395
  ---------------------------------------------------
  free energy    TOTEN  =      -284.86603011 eV

  energy without entropy =     -284.85751977  energy(sigma->0) =     -284.86177494


--------------------------------------------------------------------------------------------------------




----------------------------------------- Iteration    4(   7)  ---------------------------------------


    POTLOK:  cpu time    0.36: real time    0.36
    SETDIJ:  cpu time    0.03: real time    0.03
    EDDIAG:  cpu time   10.93: real time   10.97
  RMM-DIIS:  cpu time   22.75: real time   22.83
    ORTHCH:  cpu time    1.96: real time    1.99
       DOS:  cpu time    0.01: real time    0.01
    CHARGE:  cpu time    2.16: real time    2.17
    MIXING:  cpu time    0.01: real time    0.01
    --------------------------------------------
      LOOP:  cpu time   38.21: real time   38.37

 eigenvalue-minimisations  :  8343
 total energy-change (2. order) : 0.1729619E-02  (-0.4148812E-03)
 number of electron     319.9999979 magnetization       1.7645483
 augmentation part       40.7010313 magnetization       1.3180187

 Broyden mixing:
  rms(total) = 0.59183E-01    rms(broyden)= 0.59178E-01
  rms(prec ) = 0.61680E-01
  weight for this iteration     100.00

 eigenvalues of (default mixing * dielectric matrix)
  average eigenvalue GAMMA=   0.6467
  2.2956  0.7594  0.3337  0.2271  0.1488  0.1158

 Free energy of the ion-electron system (eV)
  ---------------------------------------------------
  alpha Z        PSCENC =       728.40765498
  Ewald energy   TEWEN  =     78682.88420519
  -Hartree energ DENC   =    -98019.42414306
  -exchange      EXHF   =         0.00000000
  -V(xc)+E(xc)   XCENC  =       470.16616069
  PAW double counting   =     12076.98546763   -12107.75275207
  entropy T*S    EENTRO =        -0.00971020
  eigenvalues    EBANDS =      -485.86382761
  atomic energy  EATOM  =     18369.74264395
  ---------------------------------------------------
  free energy    TOTEN  =      -284.86430050 eV

  energy without entropy =     -284.85459030  energy(sigma->0) =     -284.85944540


--------------------------------------------------------------------------------------------------------




----------------------------------------- Iteration    4(   8)  ---------------------------------------


    POTLOK:  cpu time    0.36: real time    0.36
    SETDIJ:  cpu time    0.03: real time    0.03
    EDDIAG:  cpu time   10.83: real time   10.87
