<?xml version="1.0" encoding="ISO-8859-1"?>
<modeling>
 <generator>
  <i name="program" type="string">vasp </i>
  <i name="version" type="string">5.3.5  </i>
  <i name="subversion" type="string">31Mar14 (build May 28 2014 18:39:22) complex                          parallel </i>
  <i name="platform" type="string">LinuxIFC </i>
  <i name="date" type="string">2014 09 02 </i>
  <i name="time" type="string">19:27:30 </i>
 </generator>
 <incar>
  <i type="string" name="PREC">accurate</i>
  <i type="string" name="ALGO"> Fast</i>
  <i type="int" name="ISPIN">     2</i>
  <i type="int" name="ICHARG">     1</i>
  <i type="int" name="NELM">   100</i>
  <i type="int" name="NELMIN">     8</i>
  <i type="int" name="IBRION">     1</i>
  <i name="EDIFF">      0.00240000</i>
  <i type="int" name="NSW">   200</i>
  <i type="int" name="ISIF">     2</i>
  <i type="int" name="ISYM">     0</i>
  <i name="SYMPREC">      0.00000010</i>
  <i name="ENCUT">    520.00000000</i>
  <i type="int" name="NGX">    42</i>
  <i type="int" name="NGY">    42</i>
  <i name="POTIM">      0.14062500</i>
  <v name="MAGMOM">      4.00000000      4.00000000      4.00000000      4.00000000      4.00000000      4.00000000      4.00000000      4.00000000      4.00000000      4.00000000      4.00000000      4.00000000      4.00000000      4.00000000      4.00000000      4.00000000      0.60000000      0.60000000      0.60000000      0.60000000
      0.60000000      0.60000000      0.60000000      0.60000000      0.60000000      0.60000000      0.60000000      0.60000000      0.60000000      0.60000000      0.60000000      0.60000000      0.60000000      0.60000000      0.60000000      0.60000000      0.60000000      0.60000000      0.60000000      0.60000000
      0.60000000      0.60000000      0.60000000      0.60000000      0.60000000      0.60000000      0.60000000      0.60000000</v>
  <i type="string" name="LREAL"> Auto</i>
  <i type="int" name="ISMEAR">     0</i>
  <i name="SIGMA">      0.05000000</i>
  <i type="logical" name="LWAVE"> T  </i>
  <i type="logical" name="LVTOT"> T  </i>
  <i type="logical" name="LVHAR"> T  </i>
  <i type="logical" name="LORBIT"> F  </i>
  <i type="int" name="NELM">   100</i>
  <i type="logical" name="LDIPOL"> F  </i>
  <i type="logical" name="LMONO"> F  </i>
  <i type="int" name="IDIPOL">     3</i>
 </incar>
 <kpoints>
  <generation param="Monkhorst-Pack">
   <v type="int" name="divisions">       5        5        1 </v>
   <v name="usershift">      0.00000000       0.00000000       0.00000000 </v>
   <v name="genvec1">      0.20000000       0.00000000       0.00000000 </v>
   <v name="genvec2">      0.00000000       0.20000000       0.00000000 </v>
   <v name="genvec3">      0.00000000       0.00000000       1.00000000 </v>
   <v name="shift">      0.00000000       0.00000000       0.00000000 </v>
  </generation>
  <varray name="kpointlist" >
   <v>       0.00000000       0.00000000       0.00000000 </v>
   <v>       0.20000000       0.00000000       0.00000000 </v>
   <v>       0.40000000       0.00000000       0.00000000 </v>
   <v>       0.00000000       0.20000000       0.00000000 </v>
   <v>       0.20000000       0.20000000       0.00000000 </v>
   <v>       0.40000000       0.20000000       0.00000000 </v>
   <v>      -0.40000000       0.20000000       0.00000000 </v>
   <v>      -0.20000000       0.20000000       0.00000000 </v>
   <v>       0.00000000       0.40000000       0.00000000 </v>
   <v>       0.20000000       0.40000000       0.00000000 </v>
   <v>       0.40000000       0.40000000       0.00000000 </v>
   <v>      -0.40000000       0.40000000       0.00000000 </v>
   <v>      -0.20000000       0.40000000       0.00000000 </v>
  </varray>
  <varray name="weights" >
   <v>       0.04000000 </v>
   <v>       0.08000000 </v>
   <v>       0.08000000 </v>
   <v>       0.08000000 </v>
   <v>       0.08000000 </v>
   <v>       0.08000000 </v>
   <v>       0.08000000 </v>
   <v>       0.08000000 </v>
   <v>       0.08000000 </v>
   <v>       0.08000000 </v>
   <v>       0.08000000 </v>
   <v>       0.08000000 </v>
   <v>       0.08000000 </v>
  </varray>
 </kpoints>
 <parameters>
  <separator name="general" >
   <i type="string" name="SYSTEM">unknown system</i>
   <i type="logical" name="LCOMPAT"> F  </i>
  </separator>
  <separator name="electronic" >
   <i type="string" name="PREC">accura</i>
   <i name="ENMAX">    520.00000000</i>
   <i name="ENAUG">    511.36800000</i>
   <i name="EDIFF">      0.00240000</i>
   <i type="int" name="IALGO">    68</i>
   <i type="int" name="IWAVPR">    11</i>
   <i type="int" name="NBANDS">   236</i>
   <i name="NELECT">    320.00000000</i>
   <i type="int" name="TURBO">     0</i>
   <i type="int" name="IRESTART">     0</i>
   <i type="int" name="NREBOOT">     0</i>
   <i type="int" name="NMIN">     0</i>
   <i name="EREF">      0.00000000</i>
   <separator name="electronic smearing" >
    <i type="int" name="ISMEAR">     0</i>
    <i name="SIGMA">      0.05000000</i>
    <i name="KSPACING">      0.50000000</i>
    <i type="logical" name="KGAMMA"> T  </i>
   </separator>
   <separator name="electronic projectors" >
    <i type="logical" name="LREAL"> T  </i>
    <v name="ROPT">     -0.00025000     -0.00025000</v>
    <i type="int" name="LMAXPAW">  -100</i>
    <i type="int" name="LMAXMIX">     2</i>
    <i type="logical" name="NLSPLINE"> F  </i>
   </separator>
   <separator name="electronic startup" >
    <i type="int" name="ISTART">     0</i>
    <i type="int" name="ICHARG">     1</i>
    <i type="int" name="INIWAV">     1</i>
   </separator>
   <separator name="electronic spin" >
    <i type="int" name="ISPIN">     2</i>
    <i type="logical" name="LNONCOLLINEAR"> F  </i>
    <v name="MAGMOM">      4.00000000      4.00000000      4.00000000      4.00000000      4.00000000      4.00000000      4.00000000      4.00000000      4.00000000      4.00000000      4.00000000      4.00000000      4.00000000      4.00000000      4.00000000      4.00000000      0.60000000      0.60000000      0.60000000      0.60000000
      0.60000000      0.60000000      0.60000000      0.60000000      0.60000000      0.60000000      0.60000000      0.60000000      0.60000000      0.60000000      0.60000000      0.60000000      0.60000000      0.60000000      0.60000000      0.60000000      0.60000000      0.60000000      0.60000000      0.60000000
      0.60000000      0.60000000      0.60000000      0.60000000      0.60000000      0.60000000      0.60000000      0.60000000</v>
    <i name="NUPDOWN">     -1.00000000</i>
    <i type="logical" name="LSORBIT"> F  </i>
    <v name="SAXIS">      0.00000000      0.00000000      1.00000000</v>
    <i type="logical" name="LSPIRAL"> F  </i>
    <v name="QSPIRAL">      0.00000000      0.00000000      0.00000000</v>
    <i type="logical" name="LZEROZ"> F  </i>
   </separator>
   <separator name="electronic exchange-correlation" >
    <i type="logical" name="LASPH"> F  </i>
    <i type="logical" name="LMETAGGA"> F  </i>
   </separator>
   <separator name="electronic convergence" >
    <i type="int" name="NELM">   100</i>
    <i type="int" name="NELMDL">     0</i>
    <i type="int" name="NELMIN">     8</i>
    <i name="ENINI">    520.00000000</i>
    <separator name="electronic convergence detail" >
     <i type="logical" name="LDIAG"> T  </i>
     <i type="logical" name="LSUBROT"> F  </i>
     <i name="WEIMIN">      0.00100000</i>
     <i name="EBREAK">      0.00000254</i>
     <i name="DEPER">      0.30000000</i>
     <i type="int" name="NRMM">     4</i>
     <i name="TIME">      0.40000000</i>
    </separator>
   </separator>
   <separator name="electronic mixer" >
    <i name="AMIX">      0.40000000</i>
    <i name="BMIX">      1.00000000</i>
    <i name="AMIN">      0.10000000</i>
    <i name="AMIX_MAG">      1.60000000</i>
    <i name="BMIX_MAG">      1.00000000</i>
    <separator name="electronic mixer details" >
     <i type="int" name="IMIX">     4</i>
     <i type="int" name="MAXMIX">   -45</i>
     <i name="WC">    100.00000000</i>
     <i type="int" name="INIMIX">     1</i>
     <i type="int" name="MIXPRE">     1</i>
     <i type="int" name="MREMOVE">     5</i>
    </separator>
   </separator>
   <separator name="electronic dipolcorrection" >
    <i type="logical" name="LDIPOL"> F  </i>
    <i type="logical" name="LMONO"> F  </i>
    <i type="int" name="IDIPOL">     3</i>
    <i name="EPSILON">      1.00000000</i>
    <v name="DIPOL">   -100.00000000   -100.00000000   -100.00000000</v>
    <i name="EFIELD">      0.00000000</i>
   </separator>
  </separator>
  <separator name="grids" >
   <i type="int" name="NGX">    42</i>
   <i type="int" name="NGY">    42</i>
   <i type="int" name="NGZ">   250</i>
   <i type="int" name="NGXF">    84</i>
   <i type="int" name="NGYF">    84</i>
   <i type="int" name="NGZF">   500</i>
   <i type="logical" name="ADDGRID"> F  </i>
  </separator>
  <separator name="ionic" >
   <i type="int" name="NSW">   200</i>
   <i type="int" name="IBRION">     1</i>
   <i type="int" name="ISIF">     2</i>
   <i name="PSTRESS">      0.00000000</i>
   <i name="EDIFFG">      0.02400000</i>
   <i type="int" name="NFREE">     0</i>
   <i name="POTIM">      0.14062500</i>
   <i name="SMASS">     -3.00000000</i>
   <i name="SCALEE">      1.00000000</i>
  </separator>
  <separator name="ionic md" >
   <i name="TEBEG">      0.00010000</i>
   <i name="TEEND">      0.00010000</i>
   <i type="int" name="NBLOCK">     1</i>
   <i type="int" name="KBLOCK">   200</i>
   <i type="int" name="NPACO">   256</i>
   <i name="APACO">     16.00000000</i>
  </separator>
  <separator name="symmetry" >
   <i type="int" name="ISYM">     0</i>
   <i name="SYMPREC">      0.00000010</i>
  </separator>
  <separator name="dos" >
   <i type="logical" name="LORBIT"> F  </i>
   <v name="RWIGS">     -1.00000000     -1.00000000</v>
   <i type="int" name="NEDOS">   301</i>
   <i name="EMIN">     10.00000000</i>
   <i name="EMAX">    -10.00000000</i>
   <i name="EFERMI">      0.00000000</i>
  </separator>
  <separator name="writing" >
   <i type="int" name="NWRITE">     2</i>
   <i type="logical" name="LWAVE"> T  </i>
   <i type="logical" name="LCHARG"> T  </i>
   <i type="logical" name="LPARD"> F  </i>
   <i type="logical" name="LVTOT"> F  </i>
   <i type="logical" name="LVHAR"> T  </i>
   <i type="logical" name="LELF"> F  </i>
   <i type="logical" name="LOPTICS"> F  </i>
   <v name="STM">      0.00000000      0.00000000      0.00000000      0.00000000      0.00000000      0.00000000      0.00000000</v>
  </separator>
  <separator name="performance" >
   <i type="int" name="NPAR">     4</i>
   <i type="int" name="NSIM">     4</i>
   <i type="int" name="NBLK">    -1</i>
   <i type="logical" name="LPLANE"> T  </i>
   <i type="logical" name="LSCALAPACK"> T  </i>
   <i type="logical" name="LSCAAWARE"> F  </i>
   <i type="logical" name="LSCALU"> F  </i>
   <i type="logical" name="LASYNC"> F  </i>
   <i type="logical" name="LORBITALREAL"> F  </i>
  </separator>
  <separator name="miscellaneous" >
   <i type="int" name="IDIOT">     3</i>
   <i type="logical" name="LMUSIC"> F  </i>
   <v name="POMASS">     55.84700000     32.06600000</v>
   <v name="DARWINR">      0.00000000      0.00000000</v>
   <v name="DARWINV">      1.00000000      1.00000000</v>
   <i type="logical" name="LCORR"> T  </i>
  </separator>
  <i type="logical" name="GGA_COMPAT"> T  </i>
  <i type="logical" name="LBERRY"> F  </i>
  <i type="int" name="ICORELEVEL">     0</i>
  <i type="logical" name="LDAU"> F  </i>
  <i type="int" name="I_CONSTRAINED_M">     0</i>
  <separator name="electronic exchange-correlation" >
   <i type="string" name="GGA">--</i>
   <i type="int" name="VOSKOWN">     0</i>
   <i type="logical" name="LHFCALC"> F  </i>
   <i type="string" name="PRECFOCK"></i>
   <i type="logical" name="LSYMGRAD"> F  </i>
   <i type="logical" name="LHFONE"> F  </i>
   <i type="logical" name="LRHFCALC"> F  </i>
   <i type="logical" name="LTHOMAS"> F  </i>
   <i type="logical" name="LMODELHF"> F  </i>
   <i name="ENCUT4O">     -1.00000000</i>
   <i type="int" name="EXXOEP">     0</i>
   <i type="int" name="FOURORBIT">     0</i>
   <i name="AEXX">      0.00000000</i>
   <i name="HFALPHA">      0.00000000</i>
   <i name="MCALPHA">      0.00000000</i>
   <i name="ALDAX">      1.00000000</i>
   <i name="AGGAX">      1.00000000</i>
   <i name="ALDAC">      1.00000000</i>
   <i name="AGGAC">      1.00000000</i>
   <i type="int" name="NKREDX">     1</i>
   <i type="int" name="NKREDY">     1</i>
   <i type="int" name="NKREDZ">     1</i>
   <i type="logical" name="SHIFTRED"> F  </i>
   <i type="logical" name="ODDONLY"> F  </i>
   <i type="logical" name="EVENONLY"> F  </i>
   <i type="int" name="LMAXFOCK">     0</i>
   <i type="int" name="NMAXFOCKAE">     0</i>
   <i type="logical" name="LFOCKAEDFT"> F  </i>
   <i name="HFSCREEN">      0.00000000</i>
   <i name="HFSCREENC">      0.00000000</i>
   <i type="int" name="NBANDSGWLOW">     0</i>
  </separator>
  <separator name="vdW DFT" >
   <i type="logical" name="LUSE_VDW"> F  </i>
   <i name="Zab_VDW">     -0.84910000</i>
   <i name="PARAM1">      0.12340000</i>
   <i name="PARAM2">      1.00000000</i>
   <i name="PARAM3">      0.00000000</i>
  </separator>
  <separator name="model GW" >
   <i type="int" name="MODEL_GW">     0</i>
   <i name="MODEL_EPS0">     12.00875384</i>
   <i name="MODEL_ALPHA">      1.00000000</i>
  </separator>
  <separator name="linear response parameters" >
   <i type="logical" name="LEPSILON"> F  </i>
   <i type="logical" name="LRPA"> F  </i>
   <i type="logical" name="LNABLA"> F  </i>
   <i type="logical" name="LVEL"> F  </i>
   <i type="int" name="KINTER">     0</i>
   <i name="CSHIFT">      0.10000000</i>
   <i name="OMEGAMAX">     -1.00000000</i>
   <i name="DEG_THRESHOLD">      0.00200000</i>
  </separator>
  <separator name="orbital magnetization" >
   <i type="logical" name="NUCIND"> F  </i>
   <v name="MAGPOS">      0.00000000      0.00000000      0.00000000</v>
   <i type="logical" name="LNICSALL"> T  </i>
   <i type="logical" name="ORBITALMAG"> F  </i>
   <i type="logical" name="LMAGBLOCH"> F  </i>
   <i type="logical" name="LCHIMAG"> F  </i>
   <i type="logical" name="LGAUGE"> T  </i>
   <i type="int" name="MAGATOM">     0</i>
   <v name="MAGDIPOL">      0.00000000      0.00000000      0.00000000</v>
   <v name="AVECCONST">      0.00000000      0.00000000      0.00000000</v>
  </separator>
  <separator name="response functions" >
   <i type="logical" name="LADDER"> F  </i>
   <i type="logical" name="LFXC"> F  </i>
   <i type="logical" name="LHARTREE"> T  </i>
   <i type="int" name="IBSE">     0</i>
   <i type="logical" name="LTCTE"> F  </i>
   <i type="logical" name="LTETE"> F  </i>
   <i type="logical" name="LTRIPLET"> F  </i>
   <i type="logical" name="LFXCEPS"> F  </i>
   <i type="logical" name="LFXHEG"> F  </i>
   <i type="logical" name="L2ORDER"> F  </i>
   <i type="logical" name="LUSEW"> F  </i>
   <i name="ENCUTGW">     -2.00000000</i>
   <i name="ENCUTGWSOFT">     -2.00000000</i>
   <i name="ENCUTLF">     -1.00000000</i>
   <i type="int" name="LMAXMP2">    -1</i>
   <i name="SCISSOR">      0.00000000</i>
   <i type="int" name="NOMEGA">     0</i>
   <i type="int" name="NOMEGAR">     0</i>
   <i type="int" name="NBANDSGW">    -1</i>
   <i type="int" name="NBANDSO">    -1</i>
   <i type="int" name="NBANDSV">    -1</i>
   <i type="int" name="NELM">   100</i>
   <i type="int" name="DIM">     3</i>
   <i type="int" name="ANTIRES">     0</i>
   <i name="OMEGAMAX">    -30.00000000</i>
   <i name="OMEGAMIN">    -30.00000000</i>
   <i name="OMEGATL">   -200.00000000</i>
   <i type="int" name="OMEGAGRID">     0</i>
   <i name="CSHIFT">     -0.10000000</i>
   <i type="logical" name="SELFENERGY"> F  </i>
   <i type="logical" name="LSPECTRAL"> F  </i>
   <i type="logical" name="ODDONLYGW"> F  </i>
   <i type="logical" name="EVENONLYGW"> F  </i>
   <i type="int" name="NKREDLFX">     1</i>
   <i type="int" name="NKREDLFY">     1</i>
   <i type="int" name="NKREDLFZ">     1</i>
   <i type="int" name="MAXMEM">  1800</i>
   <i type="int" name="TELESCOPE">     0</i>
   <i type="int" name="TAUPAR">     1</i>
  </separator>
  <separator name="External order field" >
   <i name="OFIELD_KAPPA">      0.00000000</i>
   <v name="OFIELD_K">      0.00000000      0.00000000      0.00000000</v>
   <i name="OFIELD_Q6_NEAR">      0.00000000</i>
   <i name="OFIELD_Q6_FAR">      0.00000000</i>
   <i name="OFIELD_A">      0.00000000</i>
  </separator>
 </parameters>
 <atominfo>
  <atoms>      48 </atoms>
  <types>       2 </types>
  <array name="atoms" >
   <dimension dim="1">ion</dimension>
   <field type="string">element</field>
   <field type="int">atomtype</field>
   <set>
    <rc><c>Fe</c><c>   1</c></rc>
    <rc><c>Fe</c><c>   1</c></rc>
    <rc><c>Fe</c><c>   1</c></rc>
    <rc><c>Fe</c><c>   1</c></rc>
    <rc><c>Fe</c><c>   1</c></rc>
    <rc><c>Fe</c><c>   1</c></rc>
    <rc><c>Fe</c><c>   1</c></rc>
    <rc><c>Fe</c><c>   1</c></rc>
    <rc><c>Fe</c><c>   1</c></rc>
    <rc><c>Fe</c><c>   1</c></rc>
    <rc><c>Fe</c><c>   1</c></rc>
    <rc><c>Fe</c><c>   1</c></rc>
    <rc><c>Fe</c><c>   1</c></rc>
    <rc><c>Fe</c><c>   1</c></rc>
    <rc><c>Fe</c><c>   1</c></rc>
    <rc><c>Fe</c><c>   1</c></rc>
    <rc><c>S </c><c>   2</c></rc>
    <rc><c>S </c><c>   2</c></rc>
    <rc><c>S </c><c>   2</c></rc>
    <rc><c>S </c><c>   2</c></rc>
    <rc><c>S </c><c>   2</c></rc>
    <rc><c>S </c><c>   2</c></rc>
    <rc><c>S </c><c>   2</c></rc>
    <rc><c>S </c><c>   2</c></rc>
    <rc><c>S </c><c>   2</c></rc>
    <rc><c>S </c><c>   2</c></rc>
    <rc><c>S </c><c>   2</c></rc>
    <rc><c>S </c><c>   2</c></rc>
    <rc><c>S </c><c>   2</c></rc>
    <rc><c>S </c><c>   2</c></rc>
    <rc><c>S </c><c>   2</c></rc>
    <rc><c>S </c><c>   2</c></rc>
    <rc><c>S </c><c>   2</c></rc>
    <rc><c>S </c><c>   2</c></rc>
    <rc><c>S </c><c>   2</c></rc>
    <rc><c>S </c><c>   2</c></rc>
    <rc><c>S </c><c>   2</c></rc>
    <rc><c>S </c><c>   2</c></rc>
    <rc><c>S </c><c>   2</c></rc>
    <rc><c>S </c><c>   2</c></rc>
    <rc><c>S </c><c>   2</c></rc>
    <rc><c>S </c><c>   2</c></rc>
    <rc><c>S </c><c>   2</c></rc>
    <rc><c>S </c><c>   2</c></rc>
    <rc><c>S </c><c>   2</c></rc>
    <rc><c>S </c><c>   2</c></rc>
    <rc><c>S </c><c>   2</c></rc>
    <rc><c>S </c><c>   2</c></rc>
   </set>
  </array>
  <array name="atomtypes" >
   <dimension dim="1">type</dimension>
   <field type="int">atomspertype</field>
   <field type="string">element</field>
   <field>mass</field>
   <field>valence</field>
   <field type="string">pseudopotential</field>
   <set>
    <rc><c>  16</c><c>Fe</c><c>     55.84700000</c><c>      8.00000000</c><c> PAW_PBE Fe 06Sep2000                   </c></rc>
    <rc><c>  32</c><c>S </c><c>     32.06600000</c><c>      6.00000000</c><c>  PAW_PBE S 17Jan2003                   </c></rc>
   </set>
  </array>
 </atominfo>
 <structure name="initialpos" >
  <crystal>
   <varray name="basis" >
    <v>       0.00000000       5.43015500       0.00000000 </v>
    <v>       0.00000000       0.00000000       5.43015500 </v>
    <v>      32.58093000       0.00000000       0.00000000 </v>
   </varray>
   <i name="volume">    960.70030722 </i>
   <varray name="rec_basis" >
    <v>       0.00000000       0.18415681       0.00000000 </v>
    <v>       0.00000000       0.00000000       0.18415681 </v>
    <v>       0.03069280       0.00000000       0.00000000 </v>
   </varray>
  </crystal>
  <varray name="positions" >
   <v>       0.00000000       0.50000000       0.20833300 </v>
   <v>       0.50000000       0.00000000       0.20833300 </v>
   <v>       0.00000000       0.00000000       0.29166700 </v>
   <v>       0.50000000       0.50000000       0.29166700 </v>
   <v>       0.00000000       0.50000000       0.37500000 </v>
   <v>       0.50000000       0.00000000       0.37500000 </v>
   <v>       0.00000000       0.00000000       0.45833300 </v>
   <v>       0.50000000       0.50000000       0.45833300 </v>
   <v>       0.00000000       0.50000000       0.54166700 </v>
   <v>       0.50000000       0.00000000       0.54166700 </v>
   <v>       0.00000000       0.00000000       0.62500000 </v>
   <v>       0.50000000       0.50000000       0.62500000 </v>
   <v>       0.00000000       0.50000000       0.70833300 </v>
   <v>       0.50000000       0.00000000       0.70833300 </v>
   <v>       0.00000000       0.00000000       0.79166700 </v>
   <v>       0.50000000       0.50000000       0.79166700 </v>
   <v>       0.38493800       0.38493800       0.18915600 </v>
   <v>       0.11506200       0.88493800       0.18915600 </v>
   <v>       0.61506200       0.61506200       0.22751000 </v>
   <v>       0.88493800       0.11506200       0.22751000 </v>
   <v>       0.11506200       0.61506200       0.27249000 </v>
   <v>       0.38493800       0.11506200       0.27249000 </v>
   <v>       0.88493800       0.38493800       0.31084400 </v>
   <v>       0.61506200       0.88493800       0.31084400 </v>
   <v>       0.38493800       0.38493800       0.35582300 </v>
   <v>       0.11506200       0.88493800       0.35582300 </v>
   <v>       0.61506200       0.61506200       0.39417700 </v>
   <v>       0.88493800       0.11506200       0.39417700 </v>
   <v>       0.11506200       0.61506200       0.43915600 </v>
   <v>       0.38493800       0.11506200       0.43915600 </v>
   <v>       0.88493800       0.38493800       0.47751000 </v>
   <v>       0.61506200       0.88493800       0.47751000 </v>
   <v>       0.38493800       0.38493800       0.52249000 </v>
   <v>       0.11506200       0.88493800       0.52249000 </v>
   <v>       0.61506200       0.61506200       0.56084400 </v>
   <v>       0.88493800       0.11506200       0.56084400 </v>
   <v>       0.11506200       0.61506200       0.60582300 </v>
   <v>       0.38493800       0.11506200       0.60582300 </v>
   <v>       0.88493800       0.38493800       0.64417700 </v>
   <v>       0.61506200       0.88493800       0.64417700 </v>
   <v>       0.38493800       0.38493800       0.68915600 </v>
   <v>       0.11506200       0.88493800       0.68915600 </v>
   <v>       0.61506200       0.61506200       0.72751000 </v>
   <v>       0.88493800       0.11506200       0.72751000 </v>
   <v>       0.11506200       0.61506200       0.77249000 </v>
   <v>       0.38493800       0.11506200       0.77249000 </v>
   <v>       0.88493800       0.38493800       0.81084400 </v>
   <v>       0.61506200       0.88493800       0.81084400 </v>
  </varray>
  <varray name="selective"  type="logical" >
   <v type="logical" >  T  T  T </v>
   <v type="logical" >  T  T  T </v>
   <v type="logical" >  T  T  T </v>
   <v type="logical" >  T  T  T </v>
   <v type="logical" >  F  F  F </v>
   <v type="logical" >  F  F  F </v>
   <v type="logical" >  F  F  F </v>
   <v type="logical" >  F  F  F </v>
   <v type="logical" >  F  F  F </v>
   <v type="logical" >  F  F  F </v>
   <v type="logical" >  F  F  F </v>
   <v type="logical" >  F  F  F </v>
   <v type="logical" >  T  T  T </v>
   <v type="logical" >  T  T  T </v>
   <v type="logical" >  T  T  T </v>
   <v type="logical" >  T  T  T </v>
   <v type="logical" >  T  T  T </v>
   <v type="logical" >  T  T  T </v>
   <v type="logical" >  T  T  T </v>
   <v type="logical" >  T  T  T </v>
   <v type="logical" >  T  T  T </v>
   <v type="logical" >  T  T  T </v>
   <v type="logical" >  T  T  T </v>
   <v type="logical" >  T  T  T </v>
   <v type="logical" >  F  F  F </v>
   <v type="logical" >  F  F  F </v>
   <v type="logical" >  F  F  F </v>
   <v type="logical" >  F  F  F </v>
   <v type="logical" >  F  F  F </v>
   <v type="logical" >  F  F  F </v>
   <v type="logical" >  F  F  F </v>
   <v type="logical" >  F  F  F </v>
   <v type="logical" >  F  F  F </v>
   <v type="logical" >  F  F  F </v>
   <v type="logical" >  F  F  F </v>
   <v type="logical" >  F  F  F </v>
   <v type="logical" >  F  F  F </v>
   <v type="logical" >  F  F  F </v>
   <v type="logical" >  F  F  F </v>
   <v type="logical" >  F  F  F </v>
   <v type="logical" >  T  T  T </v>
   <v type="logical" >  T  T  T </v>
   <v type="logical" >  T  T  T </v>
   <v type="logical" >  T  T  T </v>
   <v type="logical" >  T  T  T </v>
   <v type="logical" >  T  T  T </v>
   <v type="logical" >  T  T  T </v>
   <v type="logical" >  T  T  T </v>
  </varray>
  <nose>
   <v>      -3.00000000       0.00000000       0.00010000       0.00010000 </v>
  </nose>
 </structure>
 <calculation>
  <scstep>
   <time name="dav">   61.15   61.70</time>
   <time name="total">   61.86   62.46</time>
   <energy>
    <i name="alphaZ">    728.40765498 </i>
    <i name="ewald">  78346.67276656 </i>
    <i name="hartreedc"> -97700.36610868 </i>
    <i name="XCdc">    503.01999190 </i>
    <i name="pawpsdc">  10806.80055862 </i>
    <i name="pawaedc"> -10827.60332916 </i>
    <i name="eentropy">     -0.02378001 </i>
    <i name="bandstr">   3121.80206829 </i>
    <i name="atom">  18369.74264395 </i>
    <i name="e_fr_energy">   3348.45246645 </i>
    <i name="e_wo_entrp">   3348.47624646 </i>
    <i name="e_0_energy">   3348.46435645 </i>
   </energy>
  </scstep>
  <scstep>
   <time name="dav">   63.40   63.91</time>
   <time name="total">   63.55   64.08</time>
   <energy>
    <i name="e_fr_energy">    308.22834231 </i>
    <i name="e_wo_entrp">    308.26015561 </i>
    <i name="e_0_energy">    308.24424896 </i>
   </energy>
  </scstep>
  <scstep>
   <time name="dav">   70.41   70.82</time>
   <time name="total">   70.57   71.04</time>
   <energy>
    <i name="e_fr_energy">   -233.44683884 </i>
    <i name="e_wo_entrp">   -233.38762997 </i>
    <i name="e_0_energy">   -233.41723440 </i>
   </energy>
  </scstep>
  <scstep>
   <time name="dav">   76.92   77.45</time>
   <time name="total">   77.00   77.63</time>
   <energy>
    <i name="e_fr_energy">   -287.45846433 </i>
    <i name="e_wo_entrp">   -287.39879412 </i>
    <i name="e_0_energy">   -287.42862922 </i>
   </energy>
  </scstep>
  <scstep>
   <time name="dav">   79.89   80.26</time>
   <time name="total">   82.63   83.04</time>
   <energy>
    <i name="e_fr_energy">   -289.79624259 </i>
    <i name="e_wo_entrp">   -289.73646772 </i>
    <i name="e_0_energy">   -289.76635516 </i>
   </energy>
  </scstep>
  <scstep>
   <time name="diag">   11.31   11.36</time>
   <time name="diis">   31.57   31.70</time>
   <time name="orth">    2.14    2.21</time>
   <time name="total">   47.69   47.97</time>
   <energy>
    <i name="e_fr_energy">   -402.75966767 </i>
    <i name="e_wo_entrp">   -402.72321416 </i>
    <i name="e_0_energy">   -402.74144091 </i>
   </energy>
  </scstep>
  <scstep>
   <time name="diag">   10.96   11.07</time>
   <time name="diis">   32.28   32.45</time>
   <time name="orth">    2.18    2.22</time>
   <time name="total">   48.10   48.43</time>
   <energy>
    <i name="e_fr_energy">   -277.66043274 </i>
    <i name="e_wo_entrp">   -277.60961813 </i>
    <i name="e_0_energy">   -277.63502543 </i>
   </energy>
  </scstep>
  <scstep>
   <time name="diag">   10.77   10.83</time>
   <time name="diis">   31.56   31.73</time>
   <time name="orth">    2.15    2.21</time>
   <time name="total">   47.16   47.45</time>
   <energy>
    <i name="e_fr_energy">   -288.50850043 </i>
    <i name="e_wo_entrp">   -288.47530870 </i>
    <i name="e_0_energy">   -288.49190456 </i>
   </energy>
  </scstep>
  <scstep>
   <time name="diag">   11.29   11.33</time>
   <time name="diis">   32.15   32.24</time>
   <time name="orth">    2.18    2.20</time>
   <time name="total">   48.23   48.41</time>
   <energy>
    <i name="e_fr_energy">   -260.79715203 </i>
    <i name="e_wo_entrp">   -260.78216425 </i>
    <i name="e_0_energy">   -260.78965814 </i>
   </energy>
  </scstep>
  <scstep>
   <time name="diag">   13.93   14.10</time>
   <time name="diis">   32.23   32.37</time>
   <time name="orth">    2.21    2.22</time>
   <time name="total">   51.06   51.38</time>
   <energy>
    <i name="e_fr_energy">   -247.68463147 </i>
    <i name="e_wo_entrp">   -247.62814269 </i>
    <i name="e_0_energy">   -247.65638708 </i>
   </energy>
  </scstep>
  <scstep>
   <time name="diag">   10.62   10.65</time>
   <time name="diis">   34.44   34.54</time>
   <time name="orth">    2.22    2.26</time>
   <time name="total">   50.21   50.39</time>
   <energy>
    <i name="e_fr_energy">   -242.86141023 </i>
    <i name="e_wo_entrp">   -242.80239166 </i>
    <i name="e_0_energy">   -242.83190095 </i>
   </energy>
  </scstep>
  <scstep>
   <time name="diag">   10.81   10.84</time>
   <time name="diis">   33.81   33.92</time>
   <time name="orth">    2.30    2.33</time>
   <time name="total">   49.60   49.77</time>
   <energy>
    <i name="e_fr_energy">   -272.45215766 </i>
    <i name="e_wo_entrp">   -272.41952452 </i>
    <i name="e_0_energy">   -272.43584109 </i>
   </energy>
  </scstep>
  <scstep>
   <time name="diag">   10.87   10.94</time>
   <time name="diis">   32.33   32.42</time>
   <time name="orth">    2.29    2.45</time>
   <time name="total">   48.25   48.57</time>
   <energy>
    <i name="e_fr_energy">   -258.93650754 </i>
    <i name="e_wo_entrp">   -258.89642039 </i>
    <i name="e_0_energy">   -258.91646396 </i>
   </energy>
  </scstep>
  <scstep>
   <time name="diag">   11.44   11.54</time>
   <time name="diis">   31.98   32.13</time>
   <time name="orth">    2.28    2.37</time>
   <time name="total">   48.40   48.75</time>
   <energy>
    <i name="e_fr_energy">   -251.97517213 </i>
    <i name="e_wo_entrp">   -251.89811047 </i>
    <i name="e_0_energy">   -251.93664130 </i>
   </energy>
  </scstep>
  <scstep>
   <time name="diag">   10.91   10.96</time>
   <time name="diis">   31.89   31.98</time>
   <time name="orth">    2.38    2.50</time>
   <time name="total">   48.09   48.37</time>
   <energy>
    <i name="e_fr_energy">   -253.20891143 </i>
    <i name="e_wo_entrp">   -253.13015659 </i>
    <i name="e_0_energy">   -253.16953401 </i>
   </energy>
  </scstep>
  <scstep>
   <time name="diag">   11.07   11.16</time>
   <time name="diis">   31.87   31.97</time>
   <time name="orth">    2.28    2.32</time>
   <time name="total">   47.86   48.10</time>
   <energy>
    <i name="e_fr_energy">   -255.85459702 </i>
    <i name="e_wo_entrp">   -255.79315597 </i>
    <i name="e_0_energy">   -255.82387650 </i>
   </energy>
  </scstep>
  <scstep>
   <time name="diag">   11.31   11.35</time>
   <time name="diis">   32.15   32.29</time>
   <time name="orth">    2.36    2.38</time>
   <time name="total">   48.53   48.73</time>
   <energy>
    <i name="e_fr_energy">   -252.46931378 </i>
    <i name="e_wo_entrp">   -252.40552190 </i>
    <i name="e_0_energy">   -252.43741784 </i>
   </energy>
  </scstep>
  <scstep>
   <time name="diag">   11.09   11.14</time>
   <time name="diis">   32.57   32.69</time>
   <time name="orth">    2.19    2.22</time>
   <time name="total">   48.57   48.77</time>
   <energy>
    <i name="e_fr_energy">   -249.01544087 </i>
    <i name="e_wo_entrp">   -248.95762271 </i>
    <i name="e_0_energy">   -248.98653179 </i>
   </energy>
  </scstep>
  <scstep>
   <time name="diag">   10.88   10.91</time>
   <time name="diis">   35.29   35.40</time>
   <time name="orth">    2.31    2.32</time>
   <time name="total">   51.33   51.50</time>
   <energy>
    <i name="e_fr_energy">   -247.67279402 </i>
    <i name="e_wo_entrp">   -247.62009850 </i>
    <i name="e_0_energy">   -247.64644626 </i>
   </energy>
  </scstep>
  <scstep>
   <time name="diag">   10.92   10.96</time>
   <time name="diis">   31.94   32.03</time>
   <time name="orth">    2.25    2.31</time>
   <time name="total">   47.82   48.01</time>
   <energy>
    <i name="e_fr_energy">   -244.99611057 </i>
    <i name="e_wo_entrp">   -244.93649865 </i>
    <i name="e_0_energy">   -244.96630461 </i>
   </energy>
  </scstep>
  <scstep>
   <time name="diag">   11.01   11.07</time>
   <time name="diis">   32.26   32.42</time>
   <time name="orth">    2.16    2.24</time>
   <time name="total">   48.11   48.42</time>
   <energy>
    <i name="e_fr_energy">   -246.39224615 </i>
    <i name="e_wo_entrp">   -246.33086379 </i>
    <i name="e_0_energy">   -246.36155497 </i>
   </energy>
  </scstep>
  <scstep>
   <time name="diag">   11.08   11.12</time>
   <time name="diis">   31.96   32.06</time>
   <time name="orth">    2.23    2.28</time>
   <time name="total">   47.99   48.18</time>
   <energy>
    <i name="e_fr_energy">   -247.84421099 </i>
    <i name="e_wo_entrp">   -247.78412621 </i>
    <i name="e_0_energy">   -247.81416860 </i>
   </energy>
  </scstep>
  <scstep>
   <time name="diag">   11.11   11.16</time>
   <time name="diis">   32.00   32.17</time>
   <time name="orth">    2.15    2.19</time>
   <time name="total">   47.97   48.24</time>
   <energy>
    <i name="e_fr_energy">   -248.67423950 </i>
    <i name="e_wo_entrp">   -248.61419242 </i>
    <i name="e_0_energy">   -248.64421596 </i>
   </energy>
  </scstep>
  <scstep>
   <time name="diag">   11.21   11.28</time>
   <time name="diis">   31.61   31.76</time>
   <time name="orth">    2.23    2.24</time>
   <time name="total">   47.73   48.05</time>
   <energy>
    <i name="e_fr_energy">   -250.77310851 </i>
    <i name="e_wo_entrp">   -250.71439842 </i>
    <i name="e_0_energy">   -250.74375346 </i>
   </energy>
  </scstep>
  <scstep>
   <time name="diag">   11.02   11.07</time>
   <time name="diis">   31.98   32.08</time>
   <time name="orth">    2.73    2.73</time>
   <time name="total">   48.71   48.89</time>
   <energy>
    <i name="e_fr_energy">   -252.56506119 </i>
    <i name="e_wo_entrp">   -252.50528133 </i>
    <i name="e_0_energy">   -252.53517126 </i>
   </energy>
  </scstep>
  <scstep>
   <time name="diag">   11.20   11.25</time>
   <time name="diis">   32.16   32.29</time>
   <time name="orth">    2.16    2.24</time>
   <time name="total">   48.32   48.69</time>
   <energy>
    <i name="e_fr_energy">   -257.05679715 </i>
    <i name="e_wo_entrp">   -256.99366891 </i>
    <i name="e_0_energy">   -257.02523303 </i>
   </energy>
  </scstep>
  <scstep>
   <time name="diag">   11.30   11.35</time>
   <time name="diis">   31.79   31.93</time>
   <time name="orth">    2.13    2.26</time>
   <time name="total">   47.91   48.25</time>
   <energy>
    <i name="e_fr_energy">   -259.63860170 </i>
    <i name="e_wo_entrp">   -259.57775646 </i>
    <i name="e_0_energy">   -259.60817908 </i>
   </energy>
  </scstep>
  <scstep>
   <time name="diag">   11.04   11.12</time>
   <time name="diis">   34.05   34.38</time>
   <time name="orth">    2.16    2.23</time>
   <time name="total">   50.03   50.53</time>
   <energy>
    <i name="e_fr_energy">   -260.90144438 </i>
    <i name="e_wo_entrp">   -260.84377208 </i>
    <i name="e_0_energy">   -260.87260823 </i>
   </energy>
  </scstep>
  <scstep>
   <time name="diag">   11.09   11.13</time>
   <time name="diis">   31.78   31.90</time>
   <time name="orth">    2.03    2.06</time>
   <time name="total">   47.63   47.82</time>
   <energy>
    <i name="e_fr_energy">   -262.06461649 </i>
    <i name="e_wo_entrp">   -262.01736136 </i>
    <i name="e_0_energy">   -262.04098892 </i>
   </energy>
  </scstep>
  <scstep>
   <time name="diag">   11.09   11.24</time>
   <time name="diis">   33.74   33.88</time>
   <time name="orth">    2.30    2.31</time>
   <time name="total">   49.90   50.22</time>
   <energy>
    <i name="e_fr_energy">   -262.84428912 </i>
    <i name="e_wo_entrp">   -262.80016289 </i>
    <i name="e_0_energy">   -262.82222601 </i>
   </energy>
  </scstep>
  <scstep>
   <time name="diag">   10.98   11.02</time>
   <time name="diis">   31.82   31.91</time>
   <time name="orth">    2.14    2.20</time>
   <time name="total">   47.73   47.96</time>
   <energy>
    <i name="e_fr_energy">   -264.28128038 </i>
    <i name="e_wo_entrp">   -264.24313085 </i>
    <i name="e_0_energy">   -264.26220562 </i>
   </energy>
  </scstep>
  <scstep>
   <time name="diag">   11.09   11.18</time>
   <time name="diis">   31.84   31.98</time>
   <time name="orth">    2.21    2.26</time>
   <time name="total">   47.91   48.20</time>
   <energy>
    <i name="e_fr_energy">   -265.12619673 </i>
    <i name="e_wo_entrp">   -265.08014889 </i>
    <i name="e_0_energy">   -265.10317281 </i>
   </energy>
  </scstep>
  <scstep>
   <time name="diag">   11.17   11.27</time>
   <time name="diis">   32.40   32.52</time>
   <time name="orth">    2.14    2.15</time>
   <time name="total">   48.43   48.67</time>
   <energy>
    <i name="e_fr_energy">   -266.04746395 </i>
    <i name="e_wo_entrp">   -266.00084797 </i>
    <i name="e_0_energy">   -266.02415596 </i>
   </energy>
  </scstep>
  <scstep>
   <time name="diag">   10.99   11.05</time>
   <time name="diis">   32.15   32.25</time>
   <time name="orth">    2.20    2.23</time>
   <time name="total">   48.12   48.36</time>
   <energy>
    <i name="e_fr_energy">   -266.34776623 </i>
    <i name="e_wo_entrp">   -266.28974242 </i>
    <i name="e_0_energy">   -266.31875433 </i>
   </energy>
  </scstep>
  <scstep>
   <time name="diag">   10.99   11.02</time>
   <time name="diis">   33.22   33.31</time>
   <time name="orth">    2.06    2.07</time>
   <time name="total">   49.01   49.15</time>
   <energy>
    <i name="e_fr_energy">   -267.10060991 </i>
    <i name="e_wo_entrp">   -267.04327935 </i>
    <i name="e_0_energy">   -267.07194463 </i>
   </energy>
  </scstep>
  <scstep>
   <time name="diag">   10.98   11.03</time>
   <time name="diis">   32.11   32.28</time>
   <time name="orth">    2.22    2.32</time>
   <time name="total">   47.94   48.30</time>
   <energy>
    <i name="e_fr_energy">   -269.47956836 </i>
    <i name="e_wo_entrp">   -269.42964100 </i>
    <i name="e_0_energy">   -269.45460468 </i>
   </energy>
  </scstep>
  <scstep>
   <time name="diag">   10.94   10.98</time>
   <time name="diis">   34.65   34.77</time>
   <time name="orth">    2.11    2.12</time>
   <time name="total">   50.50   50.68</time>
   <energy>
    <i name="e_fr_energy">   -271.07305853 </i>
    <i name="e_wo_entrp">   -271.02184576 </i>
    <i name="e_0_energy">   -271.04745215 </i>
   </energy>
  </scstep>
  <scstep>
   <time name="diag">   10.96   11.01</time>
   <time name="diis">   36.79   36.89</time>
   <time name="orth">    2.45    2.46</time>
   <time name="total">   52.86   53.03</time>
   <energy>
    <i name="e_fr_energy">   -273.48338797 </i>
    <i name="e_wo_entrp">   -273.44967595 </i>
    <i name="e_0_energy">   -273.46653196 </i>
   </energy>
  </scstep>
  <scstep>
   <time name="diag">   10.98   11.01</time>
   <time name="diis">   33.45   33.55</time>
   <time name="orth">    2.25    2.27</time>
   <time name="total">   49.31   49.47</time>
   <energy>
    <i name="e_fr_energy">   -273.68718725 </i>
    <i name="e_wo_entrp">   -273.65728444 </i>
    <i name="e_0_energy">   -273.67223584 </i>
   </energy>
  </scstep>
  <scstep>
   <time name="diag">   10.92   10.97</time>
   <time name="diis">   32.44   32.54</time>
   <time name="orth">    2.40    2.48</time>
   <time name="total">   48.41   48.64</time>
   <energy>
    <i name="e_fr_energy">   -273.84327603 </i>
    <i name="e_wo_entrp">   -273.81011824 </i>
    <i name="e_0_energy">   -273.82669714 </i>
   </energy>
  </scstep>
  <scstep>
   <time name="diag">   11.45   11.50</time>
   <time name="diis">   32.31   32.48</time>
   <time name="orth">    2.21    2.27</time>
   <time name="total">   48.59   48.87</time>
   <energy>
    <i name="e_fr_energy">   -274.07497848 </i>
    <i name="e_wo_entrp">   -274.05531434 </i>
    <i name="e_0_energy">   -274.06514641 </i>
   </energy>
  </scstep>
  <scstep>
   <time name="diag">   10.91   11.02</time>
   <time name="diis">   32.45   32.55</time>
   <time name="orth">    2.11    2.21</time>
   <time name="total">   48.13   48.46</time>
   <energy>
    <i name="e_fr_energy">   -274.20588163 </i>
    <i name="e_wo_entrp">   -274.17458266 </i>
    <i name="e_0_energy">   -274.19023215 </i>
   </energy>
  </scstep>
  <scstep>
   <time name="diag">   11.28   11.31</time>
   <time name="diis">   32.22   32.32</time>
   <time name="orth">    2.19    2.20</time>
   <time name="total">   48.40   48.57</time>
   <energy>
    <i name="e_fr_energy">   -274.09245356 </i>
    <i name="e_wo_entrp">   -274.06289505 </i>
    <i name="e_0_energy">   -274.07767431 </i>
   </energy>
  </scstep>
  <scstep>
   <time name="diag">   10.86   10.90</time>
   <time name="diis">   32.62   32.72</time>
   <time name="orth">    2.31    2.34</time>
   <time name="total">   48.56   48.74</time>
   <energy>
    <i name="e_fr_energy">   -276.16548310 </i>
    <i name="e_wo_entrp">   -276.13965810 </i>
    <i name="e_0_energy">   -276.15257060 </i>
   </energy>
  </scstep>
  <scstep>
   <time name="diag">   11.77   11.80</time>
   <time name="diis">   33.76   33.86</time>
   <time name="orth">    2.11    2.16</time>
   <time name="total">   50.45   50.63</time>
   <energy>
    <i name="e_fr_energy">   -275.78289335 </i>
    <i name="e_wo_entrp">   -275.75673367 </i>
    <i name="e_0_energy">   -275.76981351 </i>
   </energy>
  </scstep>
  <scstep>
   <time name="diag">   11.37   11.40</time>
   <time name="diis">   32.04   32.20</time>
   <time name="orth">    2.33    2.36</time>
   <time name="total">   49.91   50.26</time>
   <energy>
    <i name="e_fr_energy">   -275.82006753 </i>
    <i name="e_wo_entrp">   -275.78932514 </i>
    <i name="e_0_energy">   -275.80469634 </i>
   </energy>
  </scstep>
  <scstep>
   <time name="diag">   11.63   11.68</time>
   <time name="diis">   32.20   32.31</time>
   <time name="orth">    2.16    2.19</time>
   <time name="total">   48.89   49.19</time>
   <energy>
    <i name="e_fr_energy">   -276.68012047 </i>
    <i name="e_wo_entrp">   -276.65028160 </i>
    <i name="e_0_energy">   -276.66520104 </i>
   </energy>
  </scstep>
  <scstep>
   <time name="diag">   11.03   11.06</time>
   <time name="diis">   32.10   32.22</time>
   <time name="orth">    2.24    2.26</time>
   <time name="total">   48.00   48.21</time>
   <energy>
    <i name="e_fr_energy">   -278.04397486 </i>
    <i name="e_wo_entrp">   -278.01466137 </i>
    <i name="e_0_energy">   -278.02931811 </i>
   </energy>
  </scstep>
  <scstep>
   <time name="diag">   13.71   13.75</time>
   <time name="diis">   32.47   32.61</time>
   <time name="orth">    2.12    2.19</time>
   <time name="total">   51.11   51.38</time>
   <energy>
    <i name="e_fr_energy">   -278.89513341 </i>
    <i name="e_wo_entrp">   -278.86755186 </i>
    <i name="e_0_energy">   -278.88134263 </i>
   </energy>
  </scstep>
  <scstep>
   <time name="diag">   11.04   11.11</time>
   <time name="diis">   32.71   32.80</time>
   <time name="orth">    2.21    2.29</time>
   <time name="total">   48.62   48.87</time>
   <energy>
    <i name="e_fr_energy">   -279.57964572 </i>
    <i name="e_wo_entrp">   -279.54714308 </i>
    <i name="e_0_energy">   -279.56339440 </i>
   </energy>
  </scstep>
  <scstep>
   <time name="diag">   11.83   11.91</time>
   <time name="diis">   32.13   32.31</time>
   <time name="orth">    2.19    2.20</time>
   <time name="total">   48.81   49.09</time>
   <energy>
    <i name="e_fr_energy">   -280.04849004 </i>
    <i name="e_wo_entrp">   -280.01772797 </i>
    <i name="e_0_energy">   -280.03310901 </i>
   </energy>
  </scstep>
  <scstep>
   <time name="diag">   11.38   11.41</time>
   <time name="diis">   31.73   31.87</time>
   <time name="orth">    2.14    2.21</time>
   <time name="total">   47.90   48.16</time>
   <energy>
    <i name="e_fr_energy">   -279.66768134 </i>
    <i name="e_wo_entrp">   -279.62907328 </i>
    <i name="e_0_energy">   -279.64837731 </i>
   </energy>
  </scstep>
  <scstep>
   <time name="diag">   11.27   11.36</time>
   <time name="diis">   31.71   31.80</time>
   <time name="orth">    2.13    2.21</time>
   <time name="total">   47.76   48.04</time>
   <energy>
    <i name="e_fr_energy">   -279.87072657 </i>
    <i name="e_wo_entrp">   -279.83739886 </i>
    <i name="e_0_energy">   -279.85406271 </i>
   </energy>
  </scstep>
  <scstep>
   <time name="diag">   10.96   10.99</time>
   <time name="diis">   32.10   32.19</time>
   <time name="orth">    2.11    2.19</time>
   <time name="total">   47.77   47.97</time>
   <energy>
    <i name="e_fr_energy">   -280.16657158 </i>
    <i name="e_wo_entrp">   -280.14102287 </i>
    <i name="e_0_energy">   -280.15379722 </i>
   </energy>
  </scstep>
  <scstep>
   <time name="diag">   11.28   11.38</time>
   <time name="diis">   30.22   30.34</time>
   <time name="orth">    2.18    2.21</time>
   <time name="total">   46.45   46.69</time>
   <energy>
    <i name="e_fr_energy">   -280.49626517 </i>
    <i name="e_wo_entrp">   -280.47273555 </i>
    <i name="e_0_energy">   -280.48450036 </i>
   </energy>
  </scstep>
  <scstep>
   <time name="diag">   13.15   13.19</time>
   <time name="diis">   32.05   32.15</time>
   <time name="orth">    2.23    2.33</time>
   <time name="total">   50.04   50.29</time>
   <energy>
    <i name="e_fr_energy">   -280.43089946 </i>
    <i name="e_wo_entrp">   -280.40879779 </i>
    <i name="e_0_energy">   -280.41984863 </i>
   </energy>
  </scstep>
  <scstep>
   <time name="diag">   10.95   10.98</time>
   <time name="diis">   26.66   26.73</time>
   <time name="orth">    2.24    2.27</time>
   <time name="total">   42.47   42.61</time>
   <energy>
    <i name="e_fr_energy">   -280.14700956 </i>
    <i name="e_wo_entrp">   -280.12463779 </i>
    <i name="e_0_energy">   -280.13582367 </i>
   </energy>
  </scstep>
  <scstep>
   <time name="diag">   11.58   11.63</time>
   <time name="diis">   27.33   27.43</time>
   <time name="orth">    2.21    2.25</time>
   <time name="total">   43.83   44.02</time>
   <energy>
    <i name="e_fr_energy">   -280.14421254 </i>
    <i name="e_wo_entrp">   -280.12080913 </i>
    <i name="e_0_energy">   -280.13251083 </i>
   </energy>
  </scstep>
  <scstep>
   <time name="diag">   10.95   10.99</time>
   <time name="diis">   31.85   31.94</time>
   <time name="orth">    2.08    2.18</time>
   <time name="total">   47.64   47.88</time>
   <energy>
    <i name="e_fr_energy">   -280.63407284 </i>
    <i name="e_wo_entrp">   -280.61513504 </i>
    <i name="e_0_energy">   -280.62460394 </i>
   </energy>
  </scstep>
  <scstep>
   <time name="diag">   10.81   10.93</time>
   <time name="diis">   30.51   30.60</time>
   <time name="orth">    2.23    2.24</time>
   <time name="total">   46.16   46.40</time>
   <energy>
    <i name="e_fr_energy">   -280.83213595 </i>
    <i name="e_wo_entrp">   -280.81474851 </i>
    <i name="e_0_energy">   -280.82344223 </i>
   </energy>
  </scstep>
  <scstep>
   <time name="diag">   11.46   11.52</time>
   <time name="diis">   31.60   31.75</time>
   <time name="orth">    2.24    2.29</time>
   <time name="total">   48.02   48.29</time>
   <energy>
    <i name="e_fr_energy">   -281.11443663 </i>
    <i name="e_wo_entrp">   -281.09817024 </i>
    <i name="e_0_energy">   -281.10630344 </i>
   </energy>
  </scstep>
  <scstep>
   <time name="diag">   11.07   11.11</time>
   <time name="diis">   32.07   32.16</time>
   <time name="orth">    2.21    2.26</time>
   <time name="total">   48.07   48.27</time>
   <energy>
    <i name="e_fr_energy">   -281.43326233 </i>
    <i name="e_wo_entrp">   -281.41793369 </i>
    <i name="e_0_energy">   -281.42559801 </i>
   </energy>
  </scstep>
  <scstep>
   <time name="diag">   11.75   11.79</time>
   <time name="diis">   31.56   31.65</time>
   <time name="orth">    2.26    2.30</time>
   <time name="total">   48.26   48.43</time>
   <energy>
    <i name="e_fr_energy">   -282.14337423 </i>
    <i name="e_wo_entrp">   -282.12970614 </i>
    <i name="e_0_energy">   -282.13654019 </i>
   </energy>
  </scstep>
  <scstep>
   <time name="diag">   11.12   11.26</time>
   <time name="diis">   28.07   28.19</time>
   <time name="orth">    2.15    2.27</time>
   <time name="total">   43.94   44.33</time>
   <energy>
    <i name="e_fr_energy">   -282.07847574 </i>
    <i name="e_wo_entrp">   -282.06514974 </i>
    <i name="e_0_energy">   -282.07181274 </i>
   </energy>
  </scstep>
  <scstep>
   <time name="diag">   10.85   10.90</time>
   <time name="diis">   31.96   32.28</time>
   <time name="orth">    2.68    2.71</time>
   <time name="total">   48.18   48.58</time>
   <energy>
    <i name="e_fr_energy">   -282.45035470 </i>
    <i name="e_wo_entrp">   -282.43765009 </i>
    <i name="e_0_energy">   -282.44400240 </i>
   </energy>
  </scstep>
  <scstep>
   <time name="diag">   11.54   11.58</time>
   <time name="diis">   40.90   41.02</time>
   <time name="orth">    2.19    2.20</time>
   <time name="total">   57.23   57.41</time>
   <energy>
    <i name="e_fr_energy">   -282.65153404 </i>
    <i name="e_wo_entrp">   -282.63543182 </i>
    <i name="e_0_energy">   -282.64348293 </i>
   </energy>
  </scstep>
  <scstep>
   <time name="diag">   11.10   11.14</time>
   <time name="diis">   32.56   32.65</time>
   <time name="orth">    2.83    2.84</time>
   <time name="total">   49.10   49.25</time>
   <energy>
    <i name="e_fr_energy">   -283.14261478 </i>
    <i name="e_wo_entrp">   -283.12970773 </i>
    <i name="e_0_energy">   -283.13616126 </i>
   </energy>
  </scstep>
  <scstep>
   <time name="diag">   11.28   11.32</time>
   <time name="diis">   30.92   31.01</time>
   <time name="orth">    2.14    2.21</time>
   <time name="total">   47.02   47.24</time>
   <energy>
    <i name="e_fr_energy">   -283.34588857 </i>
    <i name="e_wo_entrp">   -283.33343217 </i>
    <i name="e_0_energy">   -283.33966037 </i>
   </energy>
  </scstep>
  <scstep>
   <time name="diag">   10.99   11.04</time>
   <time name="diis">   29.81   29.90</time>
   <time name="orth">    2.22    2.28</time>
   <time name="total">   45.72   45.92</time>
   <energy>
    <i name="e_fr_energy">   -283.60220113 </i>
    <i name="e_wo_entrp">   -283.58855829 </i>
    <i name="e_0_energy">   -283.59537971 </i>
   </energy>
  </scstep>
  <scstep>
   <time name="diag">   11.44   11.50</time>
   <time name="diis">   27.14   27.24</time>
   <time name="orth">    2.18    2.22</time>
   <time name="total">   43.42   43.64</time>
   <energy>
    <i name="e_fr_energy">   -283.72035669 </i>
    <i name="e_wo_entrp">   -283.70632944 </i>
    <i name="e_0_energy">   -283.71334307 </i>
   </energy>
  </scstep>
  <scstep>
   <time name="diag">   11.29   11.37</time>
   <time name="diis">   28.86   28.96</time>
   <time name="orth">    2.24    2.28</time>
   <time name="total">   42.79   43.01</time>
   <energy>
    <i name="alphaZ">    728.40765498 </i>
    <i name="ewald">  78346.67276656 </i>
    <i name="hartreedc"> -97693.60159842 </i>
    <i name="XCdc">    470.39546120 </i>
    <i name="pawpsdc">  12044.60980504 </i>
    <i name="pawaedc"> -12074.71576059 </i>
    <i name="eentropy">     -0.01244061 </i>
    <i name="bandstr">   -475.21946021 </i>
    <i name="atom">  18369.74264395 </i>
    <i name="e_fr_energy">   -283.72092812 </i>
    <i name="e_wo_entrp">   -283.70848751 </i>
    <i name="e_0_energy">   -283.71470781 </i>
   </energy>
  </scstep>
  <dipole>
   <v name="dipole">     -0.11955922       0.00000000       0.00000000 </v>
   <i name="Tr[quadrupol]">  -1815.06718679 </i>
   <i name="Echarged">      0.00000000 </i>
   <i name="Edipol_quadrupol">      0.00000000 </i>
   <i name="Eion">      0.00000000 </i>
  </dipole>
  <structure>
   <crystal>
    <varray name="basis" >
     <v>       0.00000000       5.43015500       0.00000000 </v>
     <v>       0.00000000       0.00000000       5.43015500 </v>
     <v>      32.58093000       0.00000000       0.00000000 </v>
    </varray>
    <i name="volume">    960.70030722 </i>
    <varray name="rec_basis" >
     <v>       0.00000000       0.18415681       0.00000000 </v>
     <v>       0.00000000       0.00000000       0.18415681 </v>
     <v>       0.03069280       0.00000000       0.00000000 </v>
    </varray>
   </crystal>
   <varray name="positions" >
    <v>       0.00000000       0.50000000       0.20833300 </v>
    <v>       0.50000000       0.00000000       0.20833300 </v>
    <v>       0.00000000       0.00000000       0.29166700 </v>
    <v>       0.50000000       0.50000000       0.29166700 </v>
    <v>       0.00000000       0.50000000       0.37500000 </v>
    <v>       0.50000000       0.00000000       0.37500000 </v>
    <v>       0.00000000       0.00000000       0.45833300 </v>
    <v>       0.50000000       0.50000000       0.45833300 </v>
    <v>       0.00000000       0.50000000       0.54166700 </v>
    <v>       0.50000000       0.00000000       0.54166700 </v>
    <v>       0.00000000       0.00000000       0.62500000 </v>
    <v>       0.50000000       0.50000000       0.62500000 </v>
    <v>       0.00000000       0.50000000       0.70833300 </v>
    <v>       0.50000000       0.00000000       0.70833300 </v>
    <v>       0.00000000       0.00000000       0.79166700 </v>
    <v>       0.50000000       0.50000000       0.79166700 </v>
    <v>       0.38493800       0.38493800       0.18915600 </v>
    <v>       0.11506200       0.88493800       0.18915600 </v>
    <v>       0.61506200       0.61506200       0.22751000 </v>
    <v>       0.88493800       0.11506200       0.22751000 </v>
    <v>       0.11506200       0.61506200       0.27249000 </v>
    <v>       0.38493800       0.11506200       0.27249000 </v>
    <v>       0.88493800       0.38493800       0.31084400 </v>
    <v>       0.61506200       0.88493800       0.31084400 </v>
    <v>       0.38493800       0.38493800       0.35582300 </v>
    <v>       0.11506200       0.88493800       0.35582300 </v>
    <v>       0.61506200       0.61506200       0.39417700 </v>
    <v>       0.88493800       0.11506200       0.39417700 </v>
    <v>       0.11506200       0.61506200       0.43915600 </v>
    <v>       0.38493800       0.11506200       0.43915600 </v>
    <v>       0.88493800       0.38493800       0.47751000 </v>
    <v>       0.61506200       0.88493800       0.47751000 </v>
    <v>       0.38493800       0.38493800       0.52249000 </v>
    <v>       0.11506200       0.88493800       0.52249000 </v>
    <v>       0.61506200       0.61506200       0.56084400 </v>
    <v>       0.88493800       0.11506200       0.56084400 </v>
    <v>       0.11506200       0.61506200       0.60582300 </v>
    <v>       0.38493800       0.11506200       0.60582300 </v>
    <v>       0.88493800       0.38493800       0.64417700 </v>
    <v>       0.61506200       0.88493800       0.64417700 </v>
    <v>       0.38493800       0.38493800       0.68915600 </v>
    <v>       0.11506200       0.88493800       0.68915600 </v>
    <v>       0.61506200       0.61506200       0.72751000 </v>
    <v>       0.88493800       0.11506200       0.72751000 </v>
    <v>       0.11506200       0.61506200       0.77249000 </v>
    <v>       0.38493800       0.11506200       0.77249000 </v>
    <v>       0.88493800       0.38493800       0.81084400 </v>
    <v>       0.61506200       0.88493800       0.81084400 </v>
   </varray>
  </structure>
  <varray name="forces" >
   <v>       1.58379598       0.46877274       0.69802669 </v>
   <v>       0.75868788      -0.38171880       0.50804540 </v>
   <v>       0.07564999      -0.06189770      -0.03515195 </v>
   <v>       0.07612779      -0.03688645       0.04351531 </v>
   <v>      -0.04178246       0.02081495       0.02551846 </v>
   <v>       0.03345329       0.00327252       0.00306066 </v>
   <v>       0.01345827      -0.00332633      -0.00159523 </v>
   <v>       0.01636547      -0.00504316       0.00966186 </v>
   <v>       0.07802373       0.00681984       0.00148863 </v>
   <v>       0.07966631      -0.00921302       0.00280499 </v>
   <v>       0.09511757      -0.00307003       0.03092872 </v>
   <v>       0.09684837       0.00679064       0.02451623 </v>
   <v>       0.04561208       0.02478600      -0.04511089 </v>
   <v>       0.05599467      -0.01795582      -0.05464820 </v>
   <v>      -1.62317808      -0.50833548       0.68206524 </v>
   <v>      -1.67880732       0.53067264       0.72172547 </v>
   <v>      -0.29434130      -0.33147472      -0.48566914 </v>
   <v>      -0.30057508       0.14633643      -0.71744691 </v>
   <v>      -0.75536256       0.13075604      -0.15603925 </v>
   <v>      -0.73084692       0.22682510       0.14073676 </v>
   <v>      -0.59958664       0.04635051       0.04176770 </v>
   <v>       0.12373961      -0.20683592       0.30669157 </v>
   <v>       0.19742542      -0.17064758      -0.19788949 </v>
   <v>       0.17745293       0.11736459      -0.10605669 </v>
   <v>      -0.14463602      -0.14516447      -0.18737302 </v>
   <v>      -0.14608385       0.16735989      -0.15995769 </v>
   <v>       0.14223833       0.14297754       0.14980823 </v>
   <v>       0.14281556      -0.15799669       0.14368309 </v>
   <v>      -0.13382933       0.16015857       0.14955508 </v>
   <v>      -0.14748894      -0.14312883       0.15854956 </v>
   <v>       0.15898235      -0.16131266      -0.15060860 </v>
   <v>       0.15043154       0.14858607      -0.15482895 </v>
   <v>      -0.16306472      -0.14648429      -0.15161300 </v>
   <v>      -0.14754405       0.15963383      -0.15899488 </v>
   <v>       0.12238706       0.13753538       0.14655337 </v>
   <v>       0.11999336      -0.14564894       0.14543534 </v>
   <v>      -0.17418273       0.15480398       0.14291324 </v>
   <v>      -0.17288222      -0.15048883       0.13782648 </v>
   <v>       0.08945285      -0.15930147      -0.17312266 </v>
   <v>       0.08646974       0.15481133      -0.16509109 </v>
   <v>      -0.23950114      -0.15501137      -0.16189746 </v>
   <v>      -0.23522509       0.15423618      -0.16419172 </v>
   <v>       0.65449373       0.02371470       0.03070431 </v>
   <v>       0.61810531      -0.04321707       0.05444816 </v>
   <v>       0.81980122      -0.00777888       0.14511870 </v>
   <v>       0.82237372      -0.01265035       0.13593047 </v>
   <v>       0.14484093      -0.24591045      -0.68039245 </v>
   <v>       0.14911342       0.27711986      -0.67340046 </v>
  </varray>
  <varray name="stress" >
   <v>      -8.71557123       0.07425664       0.95486712 </v>
   <v>       0.07425664     -13.07505397      -0.45043472 </v>
   <v>       0.95486713      -0.45043472      -8.38015756 </v>
  </varray>
  <energy>
   <i name="e_fr_energy">   -283.71958190 </i>
   <i name="e_wo_entrp">   -283.71336160 </i>
   <i name="e_0_energy">     -0.01244061 </i>
  </energy>
  <time name="totalsc"> 3616.79 3636.21</time>
 </calculation>
 <calculation>
  <scstep>
   <time name="dav">   64.60   64.98</time>
   <time name="total">   67.51   67.92</time>
   <energy>
    <i name="alphaZ">    728.40765498 </i>
    <i name="ewald">  78416.83310720 </i>
    <i name="hartreedc"> -97758.50978927 </i>
    <i name="XCdc">    470.19643631 </i>
    <i name="pawpsdc">  12044.48805068 </i>
    <i name="pawaedc"> -12074.45276905 </i>
    <i name="eentropy">     -0.01280156 </i>
    <i name="bandstr">   -480.87826346 </i>
    <i name="atom">  18369.74264395 </i>
    <i name="e_fr_energy">   -284.18573022 </i>
    <i name="e_wo_entrp">   -284.17292866 </i>
    <i name="e_0_energy">   -284.17932944 </i>
   </energy>
  </scstep>
  <scstep>
   <time name="diag">   11.32   11.36</time>
   <time name="diis">   34.91   35.01</time>
   <time name="orth">    1.97    1.97</time>
   <time name="total">   50.83   50.99</time>
   <energy>
    <i name="e_fr_energy">   -284.33849100 </i>
    <i name="e_wo_entrp">   -284.32475791 </i>
    <i name="e_0_energy">   -284.33162445 </i>
   </energy>
  </scstep>
  <scstep>
   <time name="diag">   11.01   11.04</time>
   <time name="diis">   33.39   33.48</time>
   <time name="orth">    1.97    1.98</time>
   <time name="total">   49.05   49.19</time>
   <energy>
    <i name="e_fr_energy">   -284.23483327 </i>
    <i name="e_wo_entrp">   -284.22405749 </i>
    <i name="e_0_energy">   -284.22944538 </i>
   </energy>
  </scstep>
  <scstep>
   <time name="diag">   10.98   11.02</time>
   <time name="diis">   30.82   30.91</time>
   <time name="orth">    1.96    1.97</time>
   <time name="total">   46.38   46.52</time>
   <energy>
    <i name="e_fr_energy">   -284.26907418 </i>
    <i name="e_wo_entrp">   -284.26058465 </i>
    <i name="e_0_energy">   -284.26482942 </i>
   </energy>
  </scstep>
  <scstep>
   <time name="diag">   11.06   11.09</time>
   <time name="diis">   25.57   25.67</time>
   <time name="orth">    1.98    1.98</time>
   <time name="total">   41.19   41.35</time>
   <energy>
    <i name="e_fr_energy">   -284.27269538 </i>
    <i name="e_wo_entrp">   -284.26351977 </i>
    <i name="e_0_energy">   -284.26810757 </i>
   </energy>
  </scstep>
  <scstep>
   <time name="diag">   11.05   11.11</time>
   <time name="diis">   29.68   29.79</time>
   <time name="orth">    1.98    1.98</time>
   <time name="total">   45.34   45.53</time>
   <energy>
    <i name="e_fr_energy">   -284.27110338 </i>
    <i name="e_wo_entrp">   -284.26038019 </i>
    <i name="e_0_energy">   -284.26574179 </i>
   </energy>
  </scstep>
  <scstep>
   <time name="diag">   11.09   11.13</time>
   <time name="diis">   29.93   30.07</time>
   <time name="orth">    1.96    1.96</time>
   <time name="total">   45.57   45.76</time>
   <energy>
    <i name="e_fr_energy">   -284.24007697 </i>
    <i name="e_wo_entrp">   -284.22917068 </i>
    <i name="e_0_energy">   -284.23462382 </i>
   </energy>
  </scstep>
  <scstep>
   <time name="diag">   10.85   10.91</time>
   <time name="diis">   29.89   29.99</time>
   <time name="orth">    1.95    1.96</time>
   <time name="total">   45.26   45.44</time>
   <energy>
    <i name="e_fr_energy">   -284.26619978 </i>
    <i name="e_wo_entrp">   -284.25505075 </i>
    <i name="e_0_energy">   -284.26062526 </i>
   </energy>
  </scstep>
  <scstep>
   <time name="diag">   10.88   10.91</time>
   <time name="diis">   29.69   29.82</time>
   <time name="orth">    1.96    1.98</time>
   <time name="total">   45.13   45.32</time>
   <energy>
    <i name="e_fr_energy">   -284.26888517 </i>
    <i name="e_wo_entrp">   -284.25799172 </i>
    <i name="e_0_energy">   -284.26343845 </i>
   </energy>
  </scstep>
  <scstep>
   <time name="diag">   10.90   10.94</time>
   <time name="diis">   26.54   26.64</time>
   <time name="orth">    1.96    1.96</time>
   <time name="total">   42.21   42.50</time>
   <energy>
    <i name="e_fr_energy">   -284.28522263 </i>
    <i name="e_wo_entrp">   -284.27503560 </i>
    <i name="e_0_energy">   -284.28012912 </i>
   </energy>
  </scstep>
  <scstep>
   <time name="diag">   10.93   10.97</time>
   <time name="diis">   25.40   25.49</time>
   <time name="orth">    1.97    1.97</time>
   <time name="total">   40.91   41.07</time>
   <energy>
    <i name="e_fr_energy">   -284.30333724 </i>
    <i name="e_wo_entrp">   -284.29325039 </i>
    <i name="e_0_energy">   -284.29829381 </i>
   </energy>
  </scstep>
  <scstep>
   <time name="diag">   11.07   11.12</time>
   <time name="diis">   23.69   23.91</time>
   <time name="orth">    1.97    1.97</time>
   <time name="total">   39.41   39.75</time>
   <energy>
    <i name="e_fr_energy">   -284.31399926 </i>
    <i name="e_wo_entrp">   -284.30429748 </i>
    <i name="e_0_energy">   -284.30914837 </i>
   </energy>
  </scstep>
  <scstep>
   <time name="diag">   10.97   11.00</time>
   <time name="diis">   21.16   21.22</time>
   <time name="orth">    1.96    1.97</time>
   <time name="total">   36.69   36.79</time>
   <energy>
    <i name="e_fr_energy">   -284.33007585 </i>
    <i name="e_wo_entrp">   -284.32079046 </i>
    <i name="e_0_energy">   -284.32543316 </i>
   </energy>
  </scstep>
  <scstep>
   <time name="diag">   11.25   11.28</time>
   <time name="diis">   20.76   20.82</time>
   <time name="orth">    1.97    1.98</time>
   <time name="total">   36.59   36.69</time>
   <energy>
    <i name="e_fr_energy">   -284.34587580 </i>
    <i name="e_wo_entrp">   -284.33691464 </i>
    <i name="e_0_energy">   -284.34139522 </i>
   </energy>
  </scstep>
  <scstep>
   <time name="diag">   13.37   13.41</time>
   <time name="diis">   23.36   23.44</time>
   <time name="orth">    1.96    1.97</time>
   <time name="total">   41.41   41.55</time>
   <energy>
    <i name="e_fr_energy">   -284.37765176 </i>
    <i name="e_wo_entrp">   -284.36980723 </i>
    <i name="e_0_energy">   -284.37372949 </i>
   </energy>
  </scstep>
  <scstep>
   <time name="diag">   10.94   10.97</time>
   <time name="diis">   22.51   22.58</time>
   <time name="orth">    1.95    1.96</time>
   <time name="total">   38.01   38.13</time>
   <energy>
    <i name="e_fr_energy">   -284.39660126 </i>
    <i name="e_wo_entrp">   -284.38967184 </i>
    <i name="e_0_energy">   -284.39313655 </i>
   </energy>
  </scstep>
  <scstep>
   <time name="diag">   11.21   11.24</time>
   <time name="diis">   21.53   21.64</time>
   <time name="orth">    1.95    1.96</time>
   <time name="total">   37.28   37.44</time>
   <energy>
    <i name="e_fr_energy">   -284.40973395 </i>
    <i name="e_wo_entrp">   -284.40424130 </i>
    <i name="e_0_energy">   -284.40698762 </i>
   </energy>
  </scstep>
  <scstep>
   <time name="diag">   10.88   10.95</time>
   <time name="diis">   19.49   19.64</time>
   <time name="orth">    1.93    1.96</time>
   <time name="total">   34.90   35.17</time>
   <energy>
    <i name="e_fr_energy">   -284.41270950 </i>
    <i name="e_wo_entrp">   -284.40776771 </i>
    <i name="e_0_energy">   -284.41023860 </i>
   </energy>
  </scstep>
  <scstep>
   <time name="diag">   10.94   11.00</time>
   <time name="diis">   18.60   18.67</time>
   <time name="orth">    1.96    1.96</time>
   <time name="total">   31.91   32.06</time>
   <energy>
    <i name="alphaZ">    728.40765498 </i>
    <i name="ewald">  78416.83310720 </i>
    <i name="hartreedc"> -97750.64213217 </i>
    <i name="XCdc">    470.27502935 </i>
    <i name="pawpsdc">  12050.20398726 </i>
    <i name="pawaedc"> -12080.70487107 </i>
    <i name="eentropy">     -0.00503206 </i>
    <i name="bandstr">   -488.52282340 </i>
    <i name="atom">  18369.74264395 </i>
    <i name="e_fr_energy">   -284.41243597 </i>
    <i name="e_wo_entrp">   -284.40740391 </i>
    <i name="e_0_energy">   -284.40991994 </i>
   </energy>
  </scstep>
  <dipole>
   <v name="dipole">     -0.04811482       0.00000000       0.00000000 </v>
   <i name="Tr[quadrupol]">  -1812.05417793 </i>
   <i name="Echarged">      0.00000000 </i>
   <i name="Edipol_quadrupol">      0.00000000 </i>
   <i name="Eion">      0.00000000 </i>
  </dipole>
  <structure>
   <crystal>
    <varray name="basis" >
     <v>       0.00000000       5.43015500       0.00000000 </v>
     <v>       0.00000000       0.00000000       5.43015500 </v>
     <v>      32.58093000       0.00000000       0.00000000 </v>
    </varray>
    <i name="volume">    960.70030722 </i>
    <varray name="rec_basis" >
     <v>       0.00000000       0.18415681       0.00000000 </v>
     <v>       0.00000000       0.00000000       0.18415681 </v>
     <v>       0.03069280       0.00000000       0.00000000 </v>
    </varray>
   </crystal>
   <varray name="positions" >
    <v>       0.00117132       0.50174415       0.20899257 </v>
    <v>       0.49904620       0.00126945       0.20864895 </v>
    <v>      -0.00015466      -0.00008783       0.29169850 </v>
    <v>       0.49990783       0.50010873       0.29169870 </v>
    <v>       0.00000000       0.50000000       0.37500000 </v>
    <v>       0.50000000       0.00000000       0.37500000 </v>
    <v>       0.00000000       0.00000000       0.45833300 </v>
    <v>       0.50000000       0.50000000       0.45833300 </v>
    <v>       0.00000000       0.50000000       0.54166700 </v>
    <v>       0.50000000       0.00000000       0.54166700 </v>
    <v>       0.00000000       0.00000000       0.62500000 </v>
    <v>       0.50000000       0.50000000       0.62500000 </v>
    <v>       0.00006193       0.49988728       0.70835200 </v>
    <v>       0.49995513      -0.00013655       0.70835632 </v>
    <v>      -0.00127017       0.00170427       0.79099103 </v>
    <v>       0.50132598       0.50180336       0.79096786 </v>
    <v>       0.38410975       0.38372447       0.18903342 </v>
    <v>       0.11542765       0.88314533       0.18903083 </v>
    <v>       0.61538872       0.61467211       0.22719543 </v>
    <v>       0.88550476       0.11541366       0.22720564 </v>
    <v>       0.11517782       0.61516636       0.27224030 </v>
    <v>       0.38442118       0.11582833       0.27254153 </v>
    <v>       0.88451161       0.38444354       0.31092622 </v>
    <v>       0.61535526       0.88467300       0.31091790 </v>
    <v>       0.38493800       0.38493800       0.35582300 </v>
    <v>       0.11506200       0.88493800       0.35582300 </v>
    <v>       0.61506200       0.61506200       0.39417700 </v>
    <v>       0.88493800       0.11506200       0.39417700 </v>
    <v>       0.11506200       0.61506200       0.43915600 </v>
    <v>       0.38493800       0.11506200       0.43915600 </v>
    <v>       0.88493800       0.38493800       0.47751000 </v>
    <v>       0.61506200       0.88493800       0.47751000 </v>
    <v>       0.38493800       0.38493800       0.52249000 </v>
    <v>       0.11506200       0.88493800       0.52249000 </v>
    <v>       0.61506200       0.61506200       0.56084400 </v>
    <v>       0.88493800       0.11506200       0.56084400 </v>
    <v>       0.11506200       0.61506200       0.60582300 </v>
    <v>       0.38493800       0.11506200       0.60582300 </v>
    <v>       0.88493800       0.38493800       0.64417700 </v>
    <v>       0.61506200       0.88493800       0.64417700 </v>
    <v>       0.38455068       0.38453347       0.68905626 </v>
    <v>       0.11544739       0.88452774       0.68905804 </v>
    <v>       0.61512126       0.61513872       0.72778256 </v>
    <v>       0.88483001       0.11519805       0.72776741 </v>
    <v>       0.11504256       0.61542461       0.77283140 </v>
    <v>       0.38490639       0.11540165       0.77283248 </v>
    <v>       0.88432355       0.38323791       0.81090432 </v>
    <v>       0.61575444       0.88325538       0.81090610 </v>
   </varray>
  </structure>
  <varray name="forces" >
   <v>       1.32209966       0.44701134       0.59150702 </v>
   <v>       0.30038044      -0.31371961       0.26164685 </v>
   <v>       0.10706857      -0.09863515      -0.05304846 </v>
   <v>       0.06822890      -0.08788787       0.07912844 </v>
   <v>      -0.03866505       0.02569897       0.02113867 </v>
   <v>       0.06990427       0.01375806      -0.01880904 </v>
   <v>       0.00207134       0.00082182       0.00038095 </v>
   <v>       0.00362427      -0.00314128      -0.00112653 </v>
   <v>       0.00684163       0.00031430       0.00243800 </v>
   <v>       0.00958161       0.00014468       0.00237429 </v>
   <v>       0.00469409      -0.01505888       0.02184069 </v>
   <v>       0.00578575       0.01532844       0.02275832 </v>
   <v>       0.02714884       0.00543478      -0.06401601 </v>
   <v>       0.02603539      -0.00875759      -0.06254295 </v>
   <v>      -1.38038421      -0.48184966       0.62384166 </v>
   <v>      -1.36371983       0.47483995       0.61370621 </v>
   <v>      -0.33600829      -0.29334672      -0.33306537 </v>
   <v>      -0.32887516       0.07839588      -0.64237565 </v>
   <v>      -0.61581029       0.23339339      -0.24779344 </v>
   <v>      -0.56227691       0.29225040       0.16853592 </v>
   <v>      -0.37109077       0.03203769       0.05914420 </v>
   <v>       0.55342046      -0.24501318       0.35976286 </v>
   <v>       0.18274830      -0.13524578      -0.16863854 </v>
   <v>       0.14402211       0.06094484      -0.03374289 </v>
   <v>      -0.15828021      -0.13591075      -0.18526531 </v>
   <v>      -0.16562143       0.16352257      -0.15768114 </v>
   <v>       0.14719554       0.13795321       0.16068677 </v>
   <v>       0.15704102      -0.15887036       0.13501159 </v>
   <v>      -0.14010137       0.15104242       0.15220130 </v>
   <v>      -0.15502765      -0.15615741       0.15506407 </v>
   <v>       0.15417093      -0.15404872      -0.15586041 </v>
   <v>       0.14927659       0.14970479      -0.15017787 </v>
   <v>      -0.15609875      -0.15081916      -0.15268405 </v>
   <v>      -0.15578835       0.15215674      -0.15189114 </v>
   <v>       0.14237150       0.14861390       0.14930857 </v>
   <v>       0.14247520      -0.14986274       0.14751624 </v>
   <v>      -0.15558841       0.14495629       0.13867177 </v>
   <v>      -0.15589062      -0.14484819       0.13816313 </v>
   <v>       0.14789910      -0.16536082      -0.17380012 </v>
   <v>       0.14839720       0.16498161      -0.17363267 </v>
   <v>      -0.15085373      -0.12495093      -0.14320649 </v>
   <v>      -0.15214752       0.12466907      -0.14157492 </v>
   <v>       0.52135533       0.03357197       0.03074149 </v>
   <v>       0.53053695      -0.02919876       0.02472658 </v>
   <v>       0.63911553       0.02681731       0.16122720 </v>
   <v>       0.63994118      -0.02225308       0.16322259 </v>
   <v>       0.09454336      -0.22847326      -0.58595655 </v>
   <v>       0.09425351       0.22504544      -0.58785579 </v>
  </varray>
  <varray name="stress" >
   <v>     -11.20974999      -1.10866076       1.85251590 </v>
   <v>      -1.10866077     -17.47972557      -0.37650273 </v>
   <v>       1.85251588      -0.37650274     -12.55254389 </v>
  </varray>
  <energy>
   <i name="e_fr_energy">   -284.41221794 </i>
   <i name="e_wo_entrp">   -284.40970191 </i>
   <i name="e_0_energy">     -0.00503206 </i>
  </energy>
  <time name="totalsc">  880.73  884.69</time>
 </calculation>
 <calculation>
  <scstep>
   <time name="dav">   61.09   61.74</time>
   <time name="total">   63.70   64.36</time>
   <energy>
    <i name="alphaZ">    728.40765498 </i>
    <i name="ewald">  78596.70531373 </i>
    <i name="hartreedc"> -97929.71272346 </i>
    <i name="XCdc">    470.45771068 </i>
    <i name="pawpsdc">  12050.34590744 </i>
    <i name="pawaedc"> -12080.86588328 </i>
    <i name="eentropy">     -0.00379827 </i>
    <i name="bandstr">   -489.68642739 </i>
    <i name="atom">  18369.74264395 </i>
    <i name="e_fr_energy">   -284.60960162 </i>
    <i name="e_wo_entrp">   -284.60580335 </i>
    <i name="e_0_energy">   -284.60770249 </i>
   </energy>
  </scstep>
  <scstep>
   <time name="diag">   10.92   10.99</time>
   <time name="diis">   34.66   34.90</time>
   <time name="orth">    1.96    1.97</time>
   <time name="total">   50.16   50.48</time>
   <energy>
    <i name="e_fr_energy">   -285.06934042 </i>
    <i name="e_wo_entrp">   -285.06252377 </i>
    <i name="e_0_energy">   -285.06593209 </i>
   </energy>
  </scstep>
  <scstep>
   <time name="diag">   10.97   11.01</time>
   <time name="diis">   35.89   36.12</time>
   <time name="orth">    1.96    1.98</time>
   <time name="total">   51.49   51.79</time>
   <energy>
    <i name="e_fr_energy">   -284.78859498 </i>
    <i name="e_wo_entrp">   -284.78316476 </i>
    <i name="e_0_energy">   -284.78587987 </i>
   </energy>
  </scstep>
  <scstep>
   <time name="diag">   11.25   11.29</time>
   <time name="diis">   32.30   32.50</time>
   <time name="orth">    1.97    1.99</time>
   <time name="total">   48.12   48.39</time>
   <energy>
    <i name="e_fr_energy">   -284.81920934 </i>
    <i name="e_wo_entrp">   -284.81427427 </i>
    <i name="e_0_energy">   -284.81674180 </i>
   </energy>
  </scstep>
  <scstep>
   <time name="diag">   11.01   11.06</time>
   <time name="diis">   30.74   30.89</time>
   <time name="orth">    1.96    1.97</time>
   <time name="total">   46.34   46.56</time>
   <energy>
    <i name="e_fr_energy">   -284.80103066 </i>
    <i name="e_wo_entrp">   -284.79398734 </i>
    <i name="e_0_energy">   -284.79750900 </i>
   </energy>
  </scstep>
  <scstep>
   <time name="diag">   11.03   11.08</time>
   <time name="diis">   30.13   30.26</time>
   <time name="orth">    1.97    1.98</time>
   <time name="total">   45.75   45.94</time>
   <energy>
    <i name="e_fr_energy">   -284.81427311 </i>
    <i name="e_wo_entrp">   -284.80759115 </i>
    <i name="e_0_energy">   -284.81093213 </i>
   </energy>
  </scstep>
  <scstep>
   <time name="diag">   11.00   11.03</time>
   <time name="diis">   28.77   28.86</time>
   <time name="orth">    1.98    1.98</time>
   <time name="total">   44.44   44.59</time>
   <energy>
    <i name="e_fr_energy">   -284.81342877 </i>
    <i name="e_wo_entrp">   -284.80524529 </i>
    <i name="e_0_energy">   -284.80933703 </i>
   </energy>
  </scstep>
  <scstep>
   <time name="diag">   11.05   11.13</time>
   <time name="diis">   25.57   25.65</time>
   <time name="orth">    1.96    1.96</time>
   <time name="total">   41.18   41.35</time>
   <energy>
    <i name="e_fr_energy">   -284.80453867 </i>
    <i name="e_wo_entrp">   -284.79651448 </i>
    <i name="e_0_energy">   -284.80052658 </i>
   </energy>
  </scstep>
  <scstep>
   <time name="diag">   11.02   11.06</time>
   <time name="diis">   22.70   22.77</time>
   <time name="orth">    1.96    1.96</time>
   <time name="total">   36.15   36.27</time>
   <energy>
    <i name="alphaZ">    728.40765498 </i>
    <i name="ewald">  78596.70531373 </i>
    <i name="hartreedc"> -97934.45975193 </i>
    <i name="XCdc">    470.18064275 </i>
    <i name="pawpsdc">  12069.72069143 </i>
    <i name="pawaedc"> -12100.54560404 </i>
    <i name="eentropy">     -0.00846690 </i>
    <i name="bandstr">   -484.54804072 </i>
    <i name="atom">  18369.74264395 </i>
    <i name="e_fr_energy">   -284.80491676 </i>
    <i name="e_wo_entrp">   -284.79644985 </i>
    <i name="e_0_energy">   -284.80068330 </i>
   </energy>
  </scstep>
  <dipole>
   <v name="dipole">     62.54271048       0.00000000       0.00000000 </v>
   <i name="Tr[quadrupol]">  -2567.70429330 </i>
   <i name="Echarged">      0.00000000 </i>
   <i name="Edipol_quadrupol">      0.00000000 </i>
   <i name="Eion">      0.00000000 </i>
  </dipole>
  <structure>
   <crystal>
    <varray name="basis" >
     <v>       0.00000000       5.43015500       0.00000000 </v>
     <v>       0.00000000       0.00000000       5.43015500 </v>
     <v>      32.58093000       0.00000000       0.00000000 </v>
    </varray>
    <i name="volume">    960.70030722 </i>
    <varray name="rec_basis" >
     <v>       0.00000000       0.18415681       0.00000000 </v>
     <v>       0.00000000       0.00000000       0.18415681 </v>
     <v>       0.03069280       0.00000000       0.00000000 </v>
    </varray>
   </crystal>
   <varray name="positions" >
    <v>       0.00452866       0.50618675       0.21064754 </v>
    <v>       0.49668997       0.00323458       0.20902496 </v>
    <v>      -0.00089548      -0.00048626       0.29183253 </v>
    <v>       0.49924774       0.50070304       0.29178411 </v>
    <v>       0.00000000       0.50000000       0.37500000 </v>
    <v>       0.50000000       0.00000000       0.37500000 </v>
    <v>       0.00000000       0.00000000       0.45833300 </v>
    <v>       0.50000000       0.50000000       0.45833300 </v>
    <v>       0.00000000       0.50000000       0.54166700 </v>
    <v>       0.50000000       0.00000000       0.54166700 </v>
    <v>       0.00000000       0.00000000       0.62500000 </v>
    <v>       0.50000000       0.50000000       0.62500000 </v>
    <v>       0.00010275       0.49940648       0.70838598 </v>
    <v>       0.49988936      -0.00060629       0.70838891 </v>
    <v>      -0.00488917       0.00638972       0.78926310 </v>
    <v>       0.50489234       0.50641269       0.78926080 </v>
    <v>       0.38190653       0.38122293       0.18861282 </v>
    <v>       0.11601645       0.87832067       0.18861915 </v>
    <v>       0.61714165       0.61281102       0.22642458 </v>
    <v>       0.88769975       0.11667947       0.22650180 </v>
    <v>       0.11541844       0.61561058       0.27177578 </v>
    <v>       0.38258098       0.11853038       0.27323429 </v>
    <v>       0.88349582       0.38317695       0.31115498 </v>
    <v>       0.61581299       0.88441957       0.31109818 </v>
    <v>       0.38493800       0.38493800       0.35582300 </v>
    <v>       0.11506200       0.88493800       0.35582300 </v>
    <v>       0.61506200       0.61506200       0.39417700 </v>
    <v>       0.88493800       0.11506200       0.39417700 </v>
    <v>       0.11506200       0.61506200       0.43915600 </v>
    <v>       0.38493800       0.11506200       0.43915600 </v>
    <v>       0.88493800       0.38493800       0.47751000 </v>
    <v>       0.61506200       0.88493800       0.47751000 </v>
    <v>       0.38493800       0.38493800       0.52249000 </v>
    <v>       0.11506200       0.88493800       0.52249000 </v>
    <v>       0.61506200       0.61506200       0.56084400 </v>
    <v>       0.88493800       0.11506200       0.56084400 </v>
    <v>       0.11506200       0.61506200       0.60582300 </v>
    <v>       0.38493800       0.11506200       0.60582300 </v>
    <v>       0.88493800       0.38493800       0.64417700 </v>
    <v>       0.61506200       0.88493800       0.64417700 </v>
    <v>       0.38361221       0.38345790       0.68886743 </v>
    <v>       0.11638373       0.88346442       0.68886759 </v>
    <v>       0.61537340       0.61536961       0.72843518 </v>
    <v>       0.88461071       0.11538376       0.72843152 </v>
    <v>       0.11524398       0.61663553       0.77363143 </v>
    <v>       0.38473926       0.11662755       0.77363354 </v>
    <v>       0.88260757       0.37883700       0.81102267 </v>
    <v>       0.61744467       0.87884021       0.81102408 </v>
   </varray>
  </structure>
  <varray name="forces" >
   <v>       0.43160294       0.33116666       0.19048679 </v>
   <v>       0.29917252      -0.24560522       0.08840777 </v>
   <v>      -0.00038730      -0.04646955      -0.02001601 </v>
   <v>      -0.01926530      -0.05388859       0.00717269 </v>
   <v>      -0.04324658       0.02125813       0.00606268 </v>
   <v>       0.07267259       0.01827207      -0.01989885 </v>
   <v>      -0.00932328      -0.00286912       0.00418092 </v>
   <v>      -0.00561641       0.00045277       0.00232325 </v>
   <v>       0.00166343       0.00078548       0.00452806 </v>
   <v>       0.00346041      -0.00062858       0.00498676 </v>
   <v>       0.01563410      -0.01772743       0.01799069 </v>
   <v>       0.01562706       0.01761094       0.01782707 </v>
   <v>       0.15303795      -0.01723274      -0.08925154 </v>
   <v>       0.15266647       0.01703140      -0.08855286 </v>
   <v>      -0.29054712      -0.26728903       0.26490003 </v>
   <v>      -0.28825580       0.26695971       0.26285786 </v>
   <v>      -0.11463346      -0.14231341      -0.27398484 </v>
   <v>      -0.08634599       0.17016399      -0.35902415 </v>
   <v>      -0.29606226       0.09102043       0.10779137 </v>
   <v>      -0.31900486       0.02397032       0.11199064 </v>
   <v>       0.08537469       0.07044277       0.12100284 </v>
   <v>       0.20513741      -0.12895694       0.17771512 </v>
   <v>       0.11509894      -0.09236930      -0.05007794 </v>
   <v>       0.05823623       0.02780499      -0.05986574 </v>
   <v>      -0.13814884      -0.15714401      -0.13497397 </v>
   <v>      -0.16684005       0.14559589      -0.18483562 </v>
   <v>       0.17261882       0.13425852       0.15462337 </v>
   <v>       0.19196299      -0.15500309       0.13317975 </v>
   <v>      -0.13422384       0.15702382       0.16065541 </v>
   <v>      -0.14384702      -0.16252795       0.16331950 </v>
   <v>       0.15958254      -0.15787209      -0.15840637 </v>
   <v>       0.15679007       0.15561003      -0.15497100 </v>
   <v>      -0.15706769      -0.15617698      -0.15639380 </v>
   <v>      -0.15661783       0.15655412      -0.15697635 </v>
   <v>       0.14081489       0.15620357       0.15741749 </v>
   <v>       0.14048525      -0.15665320       0.15665428 </v>
   <v>      -0.17235275       0.14514069       0.13697380 </v>
   <v>      -0.17259250      -0.14528050       0.13677100 </v>
   <v>       0.20593946      -0.17180039      -0.17993150 </v>
   <v>       0.20626541       0.17122211      -0.18004769 </v>
   <v>      -0.06578378      -0.05345812      -0.08761320 </v>
   <v>      -0.06577205       0.05296793      -0.08794664 </v>
   <v>      -0.11546427       0.09314832       0.10399291 </v>
   <v>      -0.11334495      -0.09296733       0.10255371 </v>
   <v>       0.18333787       0.08905425       0.18220067 </v>
   <v>       0.18321087      -0.08712063       0.18316355 </v>
   <v>      -0.13766866      -0.20930078      -0.35924000 </v>
   <v>      -0.13798032       0.20693607      -0.35972193 </v>
  </varray>
  <varray name="stress" >
   <v>     -14.34605790      -1.01559503       1.38808196 </v>
   <v>      -1.01559500     -22.01829338      -0.36653367 </v>
   <v>       1.38808199      -0.36653363     -15.64549337 </v>
  </varray>
  <energy>
   <i name="e_fr_energy">     83.57965717 </i>
   <i name="e_wo_entrp">     83.58389062 </i>
   <i name="e_0_energy">     -0.00846690 </i>
  </energy>
  <time name="totalsc">  493.57  496.30</time>
 </calculation>
 <calculation>
  <scstep>
   <time name="dav">   63.81   64.85</time>
   <time name="total">   66.39   67.45</time>
   <energy>
    <i name="alphaZ">    728.40765498 </i>
    <i name="ewald">  78682.88420519 </i>
    <i name="hartreedc"> -98019.46889663 </i>
    <i name="XCdc">    470.23573125 </i>
    <i name="pawpsdc">  12069.19559026 </i>
    <i name="pawaedc"> -12099.94432825 </i>
    <i name="eentropy">     -0.00815185 </i>
    <i name="bandstr">   -485.87851132 </i>
    <i name="atom">  18369.74264395 </i>
    <i name="e_fr_energy">   -284.83406242 </i>
    <i name="e_wo_entrp">   -284.82591056 </i>
    <i name="e_0_energy">   -284.82998649 </i>
   </energy>
  </scstep>
  <scstep>
   <time name="diag">   11.03   11.06</time>
   <time name="diis">   36.68   36.79</time>
   <time name="orth">    1.96    1.97</time>
   <time name="total">   52.29   52.45</time>
   <energy>
    <i name="e_fr_energy">   -284.88450584 </i>
    <i name="e_wo_entrp">   -284.87568741 </i>
    <i name="e_0_energy">   -284.88009663 </i>
   </energy>
  </scstep>
  <scstep>
   <time name="diag">   10.86   11.24</time>
   <time name="diis">   37.05   37.24</time>
   <time name="orth">    1.97    1.97</time>
   <time name="total">   52.59   53.18</time>
   <energy>
    <i name="e_fr_energy">   -284.86699720 </i>
    <i name="e_wo_entrp">   -284.85863552 </i>
    <i name="e_0_energy">   -284.86281636 </i>
   </energy>
  </scstep>
  <scstep>
   <time name="diag">   10.85   10.89</time>
   <time name="diis">   26.54   26.64</time>
   <time name="orth">    1.97    1.98</time>
   <time name="total">   41.96   42.12</time>
   <energy>
    <i name="e_fr_energy">   -284.86677977 </i>
    <i name="e_wo_entrp">   -284.85870226 </i>
    <i name="e_0_energy">   -284.86274102 </i>
   </energy>
  </scstep>
  <scstep>
   <time name="diag">   10.84   10.88</time>
   <time name="diis">   25.52   25.61</time>
   <time name="orth">    1.96    1.97</time>
   <time name="total">   40.98   41.13</time>
   <energy>
    <i name="e_fr_energy">   -284.86576747 </i>
    <i name="e_wo_entrp">   -284.85655831 </i>
    <i name="e_0_energy">   -284.86116289 </i>
   </energy>
  </scstep>
  <scstep>
   <time name="diag">   10.87   10.93</time>
   <time name="diis">   24.72   24.85</time>
   <time name="orth">    1.97    1.98</time>
   <time name="total">   40.15   40.37</time>
   <energy>
    <i name="e_fr_energy">   -284.86603011 </i>
    <i name="e_wo_entrp">   -284.85751977 </i>
    <i name="e_0_energy">   -284.86177494 </i>
   </energy>
  </scstep>
  <scstep>
   <time name="diag">   10.93   10.97</time>
   <time name="diis">   22.75   22.83</time>
   <time name="orth">    1.96    1.99</time>
   <time name="total">   38.21   38.37</time>
   <energy>
    <i name="e_fr_energy">   -284.86430050 </i>
    <i name="e_wo_entrp">   -284.85459030 </i>
    <i name="e_0_energy">   -284.85944540 </i>
   </energy>
  </scstep>
  <scstep>
   <time name="diag">   10.83   10.87</time>
