
Running Job 1 of 1 mol.qin
qchem mol.qin_46377.0 /tmp/qchem46377/ 1
/global/common/edison/software/qchem/5.1/exe/qcprog.exe mol.qin_46377.0 /tmp/qchem46377/
Check license passed

                  Welcome to Q-Chem
     A Quantum Leap Into The Future Of Chemistry


 Q-Chem 5.1, Q-Chem, Inc., Pleasanton, CA (2018)

 Yihan Shao,  Zhengting Gan,  E. Epifanovsky,  A. T. B. Gilbert,  M. Wormit,  
 J. Kussmann,  A. W. Lange,  A. Behn,  Jia Deng,  Xintian Feng,  D. Ghosh,  
 M. Goldey,  P. R. Horn,  L. D. Jacobson,  I. Kaliman,  T. Kus,  A. Landau,  
 Jie Liu,  E. I. Proynov,  R. M. Richard,  R. P. Steele,  E. J. Sundstrom,  
 H. L. Woodcock III,  P. M. Zimmerman,  D. Zuev,  B. Albrecht,  E. Alguire,  
 S. A. Baeppler,  D. Barton,  Z. Benda,  Y. A. Bernard,  E. J. Berquist,  
 K. B. Bravaya,  H. Burton,  D. Casanova,  Chun-Min Chang,  Yunqing Chen,  
 A. Chien,  K. D. Closser,  M. P. Coons,  S. Coriani,  S. Dasgupta,  
 A. L. Dempwolff,  M. Diedenhofen,  Hainam Do,  R. G. Edgar,  Po-Tung Fang,  
 S. Faraji,  S. Fatehi,  Qingguo Feng,  K. D. Fenk,  J. Fosso-Tande,  
 Qinghui Ge,  A. Ghysels,  G. Gidofalvi,  J. Gomes,  J. Gonthier,  A. Gunina,  
 D. Hait,  M. W. D. Hanson-Heine,  P. H. P. Harbach,  A. W. Hauser,  
 J. E. Herr,  E. G. Hohenstein,  Z. C. Holden,  Kerwin Hui,  B. C. Huynh,  
 T.-C. Jagau,  Hyunjun Ji,  B. Kaduk,  K. Khistyaev,  Jaehoon Kim,  
 P. Klunzinger,  K. Koh,  D. Kosenkov,  L. Koulias,  T. Kowalczyk,  
 C. M. Krauter,  A. Kunitsa,  Ka Un Lao,  A. Laurent,  K. V. Lawler,  
 Joonho Lee,  D. Lefrancois,  S. Lehtola,  D. S. Levine,  Yi-Pei Li,  
 You-Sheng Lin,  Fenglai Liu,  E. Livshits,  A. Luenser,  P. Manohar,  
 E. Mansoor,  S. F. Manzer,  Shan-Ping Mao,  Yuezhi Mao,  N. Mardirossian,  
 A. V. Marenich,  T. Markovich,  L. A. Martinez-Martinez,  S. A. Maurer,  
 N. J. Mayhall,  S. C. McKenzie,  J.-M. Mewes,  A. F. Morrison,  
 J. W. Mullinax,  K. Nanda,  T. S. Nguyen-Beck,  R. Olivares-Amaya,  
 J. A. Parkhill,  T. M. Perrine,  F. Plasser,  P. Pokhilko,  S. Prager,  
 A. Prociuk,  E. Ramos,  D. R. Rehn,  F. Rob,  M. Schneider,  N. Sergueev,  
 S. M. Sharada,  S. Sharma,  D. W. Small,  T. Stauch,  T. Stein,  
 Yu-Chuan Su,  A. J. W. Thom,  A. Tkatchenko,  T. Tsuchimochi,  N. M. Tubman,  
 L. Vogt,  M. L. Vidal,  O. Vydrov,  M. A. Watson,  J. Wenzel,  
 M. de Wergifosse,  T. A. Wesolowski,  A. White,  J. Witte,  A. Yamada,  
 Jun Yang,  K. Yao,  S. Yeganeh,  S. R. Yost,  Zhi-Qiang You,  A. Zech,  
 Igor Ying Zhang,  Xing Zhang,  Yan Zhao,  Ying Zhu,  B. R. Brooks,  
 G. K. L. Chan,  C. J. Cramer,  M. S. Gordon,  W. J. Hehre,  A. Klamt,  
 M. W. Schmidt,  C. D. Sherrill,  D. G. Truhlar,  A. Aspuru-Guzik,  R. Baer,  
 A. T. Bell,  N. A. Besley,  Jeng-Da Chai,  R. A. DiStasio Jr.,  A. Dreuw,  
 B. D. Dunietz,  T. R. Furlani,  Chao-Ping Hsu,  Yousung Jung,  Jing Kong,  
 D. S. Lambrecht,  WanZhen Liang,  C. Ochsenfeld,  V. A. Rassolov,  
 L. V. Slipchenko,  J. E. Subotnik,  T. Van Voorhis,  J. M. Herbert,  
 A. I. Krylov,  P. M. W. Gill,  M. Head-Gordon

 Contributors to earlier versions of Q-Chem not listed above: 
 R. D. Adamson,  B. Austin,  J. Baker,  G. J. O. Beran,  K. Brandhorst,  
 S. T. Brown,  E. F. C. Byrd,  A. K. Chakraborty,  C.-L. Cheng,  
 Siu Hung Chien,  D. M. Chipman,  D. L. Crittenden,  H. Dachsel,  
 R. J. Doerksen,  A. D. Dutoi,  L. Fusti-Molnar,  W. A. Goddard III,  
 A. Golubeva-Zadorozhnaya,  S. R. Gwaltney,  G. Hawkins,  A. Heyden,  
 S. Hirata,  G. Kedziora,  F. J. Keil,  C. Kelley,  Jihan Kim,  R. A. King,  
 R. Z. Khaliullin,  P. P. Korambath,  W. Kurlancheek,  A. M. Lee,  M. S. Lee,  
 S. V. Levchenko,  Ching Yeh Lin,  D. Liotard,  R. C. Lochan,  I. Lotan,  
 P. E. Maslen,  N. Nair,  D. P. O'Neill,  D. Neuhauser,  E. Neuscamman,  
 C. M. Oana,  R. Olson,  B. Peters,  R. Peverati,  P. A. Pieniazek,  
 Y. M. Rhee,  J. Ritchie,  M. A. Rohrdanz,  E. Rosta,  N. J. Russ,  
 H. F. Schaefer III,  N. E. Schultz,  N. Shenvi,  A. C. Simmonett,  A. Sodt,  
 D. Stuck,  K. S. Thanthiriwatte,  V. Vanovschi,  Tao Wang,  A. Warshel,  
 C. F. Williams,  Q. Wu,  X. Xu,  W. Zhang

 Please cite Q-Chem as follows:
 Y. Shao et al., Mol. Phys. 113, 184-215 (2015)
 DOI: 10.1080/00268976.2014.952696

 Q-Chem 5.1.0 for Intel X86 EM64T Linux

 Parts of Q-Chem use Armadillo 8.300.2 (Tropical Shenanigans).
 http://arma.sourceforge.net/

 Q-Chem begins on Tue Nov 13 19:20:39 2018  

Host: edison03
0

     Scratch files written to /tmp/qchem46377//
 Jun2518 |scratch|qcdevops|jenkins|workspace|build_RNUM -1
Processing $rem in /global/common/edison/software/qchem/5.1/config/preferences.
 MEM_TOTAL  48000 
Symmetry turned off for PCM/SM12/SMD calculation

Checking the input file for inconsistencies... 	...done.

--------------------------------------------------------------
User input:
--------------------------------------------------------------
$molecule
-1 3
S      1.3366460256     -0.6344607405     -0.9597468405
C      0.7489740768      1.5960780327      1.3088541288
O      0.9709238431     -1.2113248510      0.4112900374
O      2.6449623201      0.2072156394     -0.9289357367
F      0.7824296965      2.7092205334      0.5940798831
F     -0.4368472075      1.4390947703      1.8669242993
F      1.7005613420      1.6021366627      2.2235272176
$end

$rem
job_type = opt
basis = 6-311++g*
max_scf_cycles = 200
gen_scfman = true
scf_algorithm = gdm
method = wb97xd
geom_opt_max_cycles = 200
solvent_method = pcm
xc_grid = 3
$end

$pcm
heavypoints 194
hpoints 194
radii uff
theory cpcm
vdwscale 1.1
$end

$solvent
dielectric 30.0
$end
--------------------------------------------------------------
 ----------------------------------------------------------------
             Standard Nuclear Orientation (Angstroms)
    I     Atom           X                Y                Z
 ----------------------------------------------------------------
    1      S       1.3366460256    -0.6344607405    -0.9597468405
    2      C       0.7489740768     1.5960780327     1.3088541288
    3      O       0.9709238431    -1.2113248510     0.4112900374
    4      O       2.6449623201     0.2072156394    -0.9289357367
    5      F       0.7824296965     2.7092205334     0.5940798831
    6      F      -0.4368472075     1.4390947703     1.8669242993
    7      F       1.7005613420     1.6021366627     2.2235272176
 ----------------------------------------------------------------
 Nuclear Repulsion Energy =   379.1079584500 hartrees
 There are       34 alpha and       32 beta electrons
 Requested basis set is 6-311++G(d)
 There are 49 shells and 162 basis functions

 Total QAlloc Memory Limit  48000 MB
 Mega-Array Size       188 MB
 MEM_STATIC part       192 MB
 Discretize the solute cavity surface with Lebedev spheres
	Using 194 Lebedev grid points for each H atom
	Using 194 Lebedev grid points for other atoms
	Atomic van der Waals radii will be scaled by 1.10
 Remove points where switching function is < 1.0e-08
 Keep 802 surface tesserae and discard 556 interior tesserae
 Molecular Surface Area = 152.255 Angst**2
 A cutoff of  1.0D-12 yielded   1020 shell pairs
 There are     11786 function pairs (     12804 Cartesian)
 
 -------------------------------------------------------
 OpenMP Integral Computing Module                       
 Release: version 1.0, May 2013, Q-Chem Inc. Pittsburgh 
 -------------------------------------------------------
 Integral Job Info:
 Integral job number is                      11
 Integral operator is                         1
 short-range coefficients              22203600
 long-range coefficients              100000000
 Omega coefficients                         200
 if combine SR and LR in K                    1
 Integral screening is                        0
 Integral computing path is                   2
 max size of driver memory is            800000
 size of driver memory is                593474
 size of scratch memory is              4293864
 max col of scratch BK array               1296
 max len of scratch array in speh3          155
 max len of scratch index in speh4           18
 max int batch size is                      520
 min int batch size is                       52
 fixed nKL is                                52
 max L of basis functions is                  2
 order of int derivative is                   0
 number of shells is                         49
 number of basis is                         169
 number of cartesian basis is               169
 number of contracted shell pairs          1020
 number of primitive shell pairs           3015
 maxK2 (contraction) of shell pair           36
 max number of K2 of shell pair               1
 max number of CS2 of shell pair            190
 max number of PS2 of shell pair            708
 mem total for path MDJ                  532188
 -------------------------------------------------------
 Smallest overlap matrix eigenvalue = 1.98E-03

 Scale SEOQF with 1.000000e-01/1.000000e-01/1.000000e-01

 Standard Electronic Orientation quadrupole field applied
 Nucleus-field energy     =     0.0000000027 hartrees
 Guess from superposition of atomic densities
 Warning:  Energy on first SCF cycle will be non-variational
 SAD guess density has 65.000000 electrons

 -----------------------------------------------------------------------
  General SCF calculation program by
  Eric Jon Sundstrom, Paul Horn, Yuezhi Mao, Dmitri Zuev, Alec White,
  David Stuck, Shaama M.S., Shane Yost, Joonho Lee, David Small,
  Daniel Levine, Susi Lehtola, Hugh Burton, Evgeny Epifanovsky
 -----------------------------------------------------------------------
 Exchange:     0.2220 Hartree-Fock + 1.0000 wB97X-D + LR-HF
 Correlation:  1.0000 wB97X-D
 Using SG-3 standard quadrature grid
 Dispersion:   Grimme D
 using 24 threads for integral computing
 -------------------------------------------------------
 OpenMP Integral computing Module                
 Release: version 1.0, May 2013, Q-Chem Inc. Pittsburgh 
 -------------------------------------------------------
 using 24 threads for integral computing
 -------------------------------------------------------
 OpenMP Integral computing Module                
 Release: version 1.0, May 2013, Q-Chem Inc. Pittsburgh 
 -------------------------------------------------------
 -------------------------------------------------------
 OpenMP BLAS3 based DFT computing Module                
 Release: version 1.0, May 2013, Q-Chem Inc. Pittsburgh 
 -------------------------------------------------------
 A unrestricted SCF calculation will be
 performed using Roothaan-Hall, GDM
 SCF converges when RMS gradient is below 1.0e-08
 ---------------------------------------
  Cycle       Energy         DIIS error
 ---------------------------------------
    1    -886.8836505030      2.21e-02  Roothaan Step
 ---------------------------------------
  Cycle       Energy        RMS Gradient
 ---------------------------------------
    1    -886.0300207950      2.43e-01   Descent step
    2    -886.2584137305      5.19e-02   Normal BFGS step
    3    -886.2902965587      3.14e-02   Normal BFGS step
    4    -886.2929965011      1.41e-02   Normal BFGS step
    5    -886.2940847530      5.60e-03   Normal BFGS step
    6    -886.2941876361      5.74e-03   Normal BFGS step
    7    -886.2942522758      1.43e-03   Normal BFGS step
    8    -886.2942660849      4.25e-04   Normal BFGS step
    9    -886.2942688297      1.22e-04   Normal BFGS step
   10    -886.2942689477      5.46e-05   Normal BFGS step
   11    -886.2942689689      2.66e-05   Normal BFGS step
   12    -886.2942689706      1.32e-05   Normal BFGS step
   13    -886.2942689719      7.77e-06   Normal BFGS step
   14    -886.2942689721      2.78e-06   Normal BFGS step
   15    -886.2942689721      5.38e-07   Normal BFGS step
   16    -886.2942689722      2.55e-07   Normal BFGS step
   17    -886.2942689722      1.02e-07   Normal BFGS step
   18    -886.2942689722      5.39e-08   Normal BFGS step
   19    -886.2942689722      4.24e-08   Normal BFGS step
   20    -886.2942689722      1.05e-08   Normal BFGS step
   21    -886.2942689722      1.83e-08   Normal BFGS step
   22    -886.2942689722      2.18e-09  Convergence criterion met
 ---------------------------------------
 SCF time:   CPU 555.05s  wall 28.00s 
<S^2> =          2.006754213

************** Final PCM Free Energy Summary **************
 G_electrostatic  =      -0.09252113 hartree =     -58.05788364 kcal/mol
 G_cavitation     =       0.00000000 hartree =       0.00000000 kcal/mol
 G_dispersion     =       0.00000000 hartree =       0.00000000 kcal/mol
 G_repulsion      =       0.00000000 hartree =       0.00000000 kcal/mol
 --------------------------------------------------
 Non-electrostatic Free Energy =       0.00000000 hartree =       0.00000000 kcal/mol
 Total                         =      -0.09252113 hartree =     -58.05788364 kcal/mol
 --------------------------------------------------
 SCF Energy (H0 + V/2)                       =    -886.29426897 
 Solute Internal Energy (H0)                 =    -886.20174784 
 Total Free Energy (H0 + V/2 + non-elec)     =    -886.29426897 hartree
                                             = -556158.04787305 kcal/mol
***********************************************************

 SCF   energy in the final basis set =     -886.2942689722
 Total energy in the final basis set =     -886.2942689722
 
 --------------------------------------------------------------
 
                    Orbital Energies (a.u.)
 --------------------------------------------------------------
 
 Alpha MOs
 -- Occupied --
-89.078 -24.863 -24.862 -24.862 -19.209 -19.205 -10.539  -8.114
 -6.064  -6.062  -6.059  -1.449  -1.361  -1.361  -1.121  -1.035
 -0.816  -0.711  -0.710  -0.683  -0.675  -0.584  -0.584  -0.549
 -0.549  -0.524  -0.496  -0.495  -0.485  -0.388  -0.357  -0.350
 -0.334  -0.237
 -- Virtual --
  0.082   0.091   0.093   0.095   0.119   0.124   0.127   0.182
  0.183   0.194   0.237   0.250   0.257   0.261   0.278   0.288
  0.289   0.303   0.322   0.331   0.347   0.353   0.363   0.381
  0.388   0.401   0.408   0.413   0.420   0.428   0.432   0.453
  0.472   0.502   0.516   0.537   0.636   0.718   0.733   0.803
  0.833   0.847   0.906   0.938   1.091   1.132   1.165   1.183
  1.202   1.213   1.218   1.230   1.257   1.275   1.380   1.406
  1.413   1.482   1.496   1.502   1.511   1.540   1.542   1.581
  1.674   1.687   1.767   1.803   1.885   1.910   1.923   1.939
  1.957   2.126   2.764   2.939   2.946   2.950   2.963   2.980
  3.015   3.025   3.027   3.049   3.158   3.414   3.605   3.778
  3.814   3.815   3.815   3.832   3.836   3.837   3.951   3.952
  4.174   4.294   4.295   4.403   4.978   4.986   5.084   5.122
  5.134   5.171   5.190   5.293   6.336   6.339   6.410   6.421
  6.427   6.432   6.433   6.864   6.870   8.110  17.394  17.465
 17.526  23.591  50.021  50.026  66.860  66.867  66.907 189.343
 
 Beta MOs
 -- Occupied --
-89.074 -24.860 -24.859 -24.859 -19.202 -19.198 -10.524  -8.111
 -6.062  -6.057  -6.050  -1.439  -1.353  -1.352  -1.105  -1.018
 -0.798  -0.700  -0.700  -0.654  -0.637  -0.575  -0.574  -0.541
 -0.540  -0.521  -0.484  -0.475  -0.450  -0.342  -0.333  -0.332
 -- Virtual --
 -0.012   0.018   0.086   0.094   0.097   0.098   0.123   0.127
  0.131   0.185   0.189   0.204   0.241   0.257   0.273   0.278
  0.289   0.296   0.299   0.310   0.326   0.337   0.350   0.357
  0.367   0.382   0.391   0.406   0.414   0.415   0.426   0.430
  0.436   0.457   0.474   0.504   0.519   0.539   0.664   0.724
  0.740   0.823   0.856   0.866   0.923   0.958   1.097   1.139
  1.184   1.197   1.214   1.222   1.225   1.243   1.266   1.290
  1.387   1.410   1.421   1.483   1.506   1.515   1.520   1.553
  1.557   1.623   1.683   1.707   1.793   1.813   1.897   1.919
  1.948   1.957   1.963   2.132   2.822   2.961   2.968   2.969
  2.972   3.005   3.035   3.044   3.046   3.071   3.164   3.426
  3.616   3.781   3.819   3.820   3.820   3.839   3.843   3.843
  3.962   3.963   4.183   4.301   4.302   4.413   4.986   4.994
  5.093   5.143   5.144   5.188   5.214   5.300   6.341   6.345
  6.418   6.426   6.429   6.438   6.440   6.871   6.877   8.113
 17.406  17.468  17.528  23.617  50.028  50.032  66.862  66.869
 66.909 189.346
 --------------------------------------------------------------
 
          Ground-State Mulliken Net Atomic Charges

     Atom                 Charge (a.u.)    Spin (a.u.)
  --------------------------------------------------------
      1 S                     0.282628       0.607361
      2 C                     0.200063       0.858254
      3 O                    -0.591974       0.217664
      4 O                    -0.638080       0.203794
      5 F                    -0.085282       0.037498
      6 F                    -0.083878       0.037366
      7 F                    -0.083476       0.038063
  --------------------------------------------------------
  Sum of atomic charges =    -1.000000
  Sum of spin   charges =     2.000000

 -----------------------------------------------------------------
                    Cartesian Multipole Moments
 -----------------------------------------------------------------
    Charge (ESU x 10^10)
                -4.8032
    Dipole Moment (Debye)
         X      -9.0550      Y       1.4476      Z       0.1608
       Tot       9.1714
    Quadrupole Moments (Debye-Ang)
        XX     -69.7355     XY      -0.4500     YY     -52.8461
        XZ       4.5564     YZ       2.2692     ZZ     -51.3813
    Octopole Moments (Debye-Ang^2)
       XXX    -228.1287    XXY     -29.5309    XYY     -61.4116
       YYY     -68.7066    XXZ      -0.3853    XYZ       3.4877
       YYZ     -17.1203    XZZ     -64.6172    YZZ     -23.8624
       ZZZ     -46.0340
    Hexadecapole Moments (Debye-Ang^3)
      XXXX    -797.1575   XXXY     -57.3603   XXYY    -207.8775
      XYYY     -39.1746   YYYY    -601.8054   XXXZ      69.7669
      XXYZ     -50.1096   XYYZ       4.4249   YYYZ    -157.3459
      XXZZ    -211.0714   XYZZ     -15.9079   YYZZ    -177.5276
      XZZZ      23.0555   YZZZ    -167.2669   ZZZZ    -488.8141
 -----------------------------------------------------------------
 Calculating analytic gradient of the SCF energy
 Gradient of SCF Energy
            1           2           3           4           5           6
    1  -0.0126460  -0.0054585   0.0021991   0.0122029   0.0003381   0.0216162
    2  -0.0135833   0.0230252   0.0006114   0.0084502  -0.0191432   0.0023120
    3  -0.0042227   0.0213778  -0.0020915   0.0033556   0.0112596  -0.0105834
            7
    1  -0.0182517
    2  -0.0016723
    3  -0.0190953
 Max gradient component =       2.303E-02
 RMS gradient           =       1.272E-02
 Computing fast CPCM-SWIG gradient
 Updating gradient with PCM contributions...
 -- total gradient after adding PCM contribution --
---------------------------------------------------
  Atom         X              Y              Z     
---------------------------------------------------
   1      -0.016721      -0.010046      -0.003555
   2      -0.000789      -0.000344       0.001037
   3      -0.001722      -0.001611       0.003832
   4       0.018144       0.012215      -0.000004
   5       0.000252       0.000050      -0.000550
   6       0.000661      -0.000152      -0.000595
   7       0.000175      -0.000112      -0.000164
---------------------------------------------------
 Number of fixed atoms: 0
 Gradient time:  CPU 39.32 s  wall 2.81 s
 Geometry Optimization Parameters
   NAtoms,    NIC,     NZ,  NCons,   NDum,   NFix, NCnnct, MaxDiis
        7      60       0       0       0       0       0       0


** GEOMETRY OPTIMIZATION IN DELOCALIZED INTERNAL COORDINATES **
   Searching for a Minimum

   Optimization Cycle:   1

                       Coordinates (Angstroms)
     ATOM                X               Y               Z
      1  S         1.3366460256   -0.6344607405   -0.9597468405
      2  C         0.7489740768    1.5960780327    1.3088541288
      3  O         0.9709238431   -1.2113248510    0.4112900374
      4  O         2.6449623201    0.2072156394   -0.9289357367
      5  F         0.7824296965    2.7092205334    0.5940798831
      6  F        -0.4368472075    1.4390947703    1.8669242993
      7  F         1.7005613420    1.6021366627    2.2235272176
   Point Group: c1    Number of degrees of freedom:    15


   Energy is   -886.294268972


 Attempting to Generate Delocalized Internal Coordinates

 15 Hessian modes will be used to form the next step
  Hessian Eigenvalues:
     0.011767    0.021065    0.026461    0.058513    0.074812    0.094951
     0.109915    0.226975    0.238277    0.242218    0.563422    0.611179
     0.614393    0.619448    0.619520

 Minimum Search - Taking Simple RFO Step
 Searching for Lamda that Minimizes Along All modes
 Value Taken    Lamda =  -0.00079663
 Step Taken.  Stepsize is  0.042406

                             Maximum     Tolerance    Cnvgd?
         Gradient           0.012058      0.000300      NO
         Displacement       0.026102      0.001200      NO
         Energy change     *********      0.000001      NO


 New Cartesian Coordinates Obtained by Inverse Iteration

 Displacement from previous Coordinates is:  0.033798
 ----------------------------------------------------------------
             Standard Nuclear Orientation (Angstroms)
    I     Atom           X                Y                Z
 ----------------------------------------------------------------
    1      S       1.3408552211    -0.6305745237    -0.9611460676
    2      C       0.7483661455     1.5970430970     1.3087610313
    3      O       0.9776605421    -1.2093072647     0.4062439537
    4      O       2.6369837914     0.1961168769    -0.9261206649
    5      F       0.7816010708     2.7109416770     0.5957033759
    6      F      -0.4373610138     1.4401244935     1.8687086550
    7      F       1.6995443394     1.6036156910     2.2238427055
 ----------------------------------------------------------------
 Nuclear Repulsion Energy =   379.7831079255 hartrees
 There are       34 alpha and       32 beta electrons
 Discretize the solute cavity surface with Lebedev spheres
	Using 194 Lebedev grid points for each H atom
	Using 194 Lebedev grid points for other atoms
	Atomic van der Waals radii will be scaled by 1.10
 Remove points where switching function is < 1.0e-08
 Keep 800 surface tesserae and discard 558 interior tesserae
 Molecular Surface Area = 152.076 Angst**2
 Applying Cartesian multipole field
    Component          Value
    ---------          -----
     (2,0,0)        1.00000E-11
     (0,2,0)        2.00000E-11
     (0,0,2)       -3.00000E-11
 Nucleus-field energy     =     0.0000000027 hartrees
 Requested basis set is 6-311++G(d)
 There are 49 shells and 162 basis functions
 A cutoff of  1.0D-12 yielded   1020 shell pairs
 There are     11786 function pairs (     12804 Cartesian)
 Smallest overlap matrix eigenvalue = 1.97E-03
 Guess MOs from SCF MO coefficient file
 Reading MOs from coefficient file
 Reading MOs from coefficient file

 -----------------------------------------------------------------------
  General SCF calculation program by
  Eric Jon Sundstrom, Paul Horn, Yuezhi Mao, Dmitri Zuev, Alec White,
  David Stuck, Shaama M.S., Shane Yost, Joonho Lee, David Small,
  Daniel Levine, Susi Lehtola, Hugh Burton, Evgeny Epifanovsky
 -----------------------------------------------------------------------
 Exchange:     0.2220 Hartree-Fock + 1.0000 wB97X-D + LR-HF
 Correlation:  1.0000 wB97X-D
 Using SG-3 standard quadrature grid
 Dispersion:   Grimme D
 using 24 threads for integral computing
 -------------------------------------------------------
 OpenMP Integral computing Module                
 Release: version 1.0, May 2013, Q-Chem Inc. Pittsburgh 
 -------------------------------------------------------
 using 24 threads for integral computing
 -------------------------------------------------------
 OpenMP Integral computing Module                
 Release: version 1.0, May 2013, Q-Chem Inc. Pittsburgh 
 -------------------------------------------------------
 -------------------------------------------------------
 OpenMP BLAS3 based DFT computing Module                
 Release: version 1.0, May 2013, Q-Chem Inc. Pittsburgh 
 -------------------------------------------------------
 A unrestricted SCF calculation will be
 performed using Roothaan-Hall, GDM
 SCF converges when RMS gradient is below 1.0e-08
 ---------------------------------------
  Cycle       Energy         DIIS error
 ---------------------------------------
    1    -875.9431299825      3.09e-04  Roothaan Step
 ---------------------------------------
  Cycle       Energy        RMS Gradient
 ---------------------------------------
    1    -886.2927627370      2.18e-02   Normal BFGS step
    2    -886.2937385261      1.61e-02   Normal BFGS step
    3    -886.2947598668      2.52e-03   Normal BFGS step
    4    -886.2948169496      1.59e-03   Normal BFGS step
    5    -886.2948264095      5.35e-04   Normal BFGS step
    6    -886.2948283716      4.43e-04   Normal BFGS step
    7    -886.2948289305      2.01e-04   Normal BFGS step
    8    -886.2948290338      1.16e-04   Normal BFGS step
    9    -886.2948291144      2.61e-05   Normal BFGS step
   10    -886.2948291186      1.60e-05   Normal BFGS step
   11    -886.2948291197      5.68e-06   Normal BFGS step
   12    -886.2948291200      2.69e-06   Normal BFGS step
   13    -886.2948291200      1.67e-06   Normal BFGS step
   14    -886.2948291200      6.60e-07   Normal BFGS step
   15    -886.2948291201      1.36e-07   Normal BFGS step
   16    -886.2948291200      4.91e-08   Normal BFGS step
   17    -886.2948291201      3.03e-08   Normal BFGS step
   18    -886.2948291200      1.49e-08   Normal BFGS step
   19    -886.2948291201      9.36e-09  Convergence criterion met
 ---------------------------------------
 SCF time:   CPU 490.20s  wall 24.00s 
<S^2> =          2.006681883

************** Final PCM Free Energy Summary **************
 G_electrostatic  =      -0.09241346 hartree =     -57.99032446 kcal/mol
 G_cavitation     =       0.00000000 hartree =       0.00000000 kcal/mol
 G_dispersion     =       0.00000000 hartree =       0.00000000 kcal/mol
 G_repulsion      =       0.00000000 hartree =       0.00000000 kcal/mol
 --------------------------------------------------
 Non-electrostatic Free Energy =       0.00000000 hartree =       0.00000000 kcal/mol
 Total                         =      -0.09241346 hartree =     -57.99032446 kcal/mol
 --------------------------------------------------
 SCF Energy (H0 + V/2)                       =    -886.29482912 
 Solute Internal Energy (H0)                 =    -886.20241566 
 Total Free Energy (H0 + V/2 + non-elec)     =    -886.29482912 hartree
                                             = -556158.39937116 kcal/mol
***********************************************************

 SCF   energy in the final basis set =     -886.2948291201
 Total energy in the final basis set =     -886.2948291201
 
 --------------------------------------------------------------
 
                    Orbital Energies (a.u.)
 --------------------------------------------------------------
 
 Alpha MOs
 -- Occupied --
-89.077 -24.862 -24.862 -24.862 -19.207 -19.204 -10.539  -8.113
 -6.063  -6.060  -6.057  -1.449  -1.361  -1.361  -1.125  -1.038
 -0.816  -0.711  -0.710  -0.681  -0.675  -0.584  -0.584  -0.549
 -0.549  -0.524  -0.497  -0.496  -0.486  -0.389  -0.357  -0.351
 -0.335  -0.234
 -- Virtual --
  0.082   0.091   0.093   0.095   0.120   0.124   0.127   0.182
  0.186   0.197   0.237   0.250   0.257   0.261   0.279   0.289
  0.290   0.303   0.322   0.331   0.347   0.353   0.363   0.381
  0.388   0.401   0.409   0.413   0.420   0.428   0.432   0.455
  0.472   0.503   0.516   0.538   0.637   0.717   0.733   0.805
  0.836   0.849   0.907   0.939   1.094   1.129   1.171   1.183
  1.202   1.216   1.217   1.232   1.259   1.276   1.380   1.406
  1.413   1.482   1.496   1.501   1.511   1.540   1.542   1.580
  1.674   1.686   1.768   1.804   1.885   1.910   1.924   1.939
  1.957   2.126   2.764   2.939   2.945   2.948   2.963   2.980
  3.017   3.026   3.028   3.053   3.168   3.427   3.619   3.778
  3.814   3.815   3.815   3.832   3.837   3.837   3.951   3.951
  4.174   4.293   4.294   4.403   4.978   4.985   5.086   5.122
  5.138   5.170   5.192   5.301   6.336   6.339   6.410   6.421
  6.426   6.432   6.433   6.864   6.869   8.123  17.395  17.472
 17.533  23.591  50.024  50.026  66.860  66.867  66.907 189.357
 
 Beta MOs
 -- Occupied --
-89.073 -24.860 -24.859 -24.859 -19.200 -19.198 -10.524  -8.110
 -6.060  -6.055  -6.049  -1.439  -1.353  -1.352  -1.109  -1.021
 -0.798  -0.700  -0.700  -0.652  -0.637  -0.575  -0.574  -0.541
 -0.540  -0.521  -0.485  -0.477  -0.452  -0.342  -0.335  -0.332
 -- Virtual --
 -0.012   0.020   0.086   0.095   0.097   0.098   0.124   0.127
  0.131   0.186   0.192   0.208   0.241   0.258   0.273   0.278
  0.289   0.296   0.299   0.310   0.327   0.336   0.350   0.357
  0.367   0.383   0.391   0.407   0.414   0.416   0.426   0.430
  0.436   0.459   0.474   0.504   0.519   0.539   0.665   0.724
  0.740   0.825   0.859   0.868   0.924   0.959   1.099   1.135
  1.190   1.198   1.215   1.223   1.227   1.245   1.268   1.290
  1.387   1.410   1.420   1.483   1.506   1.515   1.520   1.553
  1.557   1.622   1.682   1.706   1.794   1.813   1.897   1.919
  1.948   1.957   1.963   2.132   2.822   2.959   2.968   2.969
  2.970   3.005   3.036   3.044   3.049   3.075   3.174   3.439
  3.630   3.782   3.819   3.820   3.820   3.839   3.843   3.843
  3.962   3.962   4.184   4.301   4.302   4.413   4.986   4.994
  5.095   5.145   5.147   5.187   5.215   5.309   6.341   6.345
  6.418   6.427   6.429   6.438   6.440   6.871   6.876   8.126
 17.407  17.474  17.536  23.617  50.030  50.032  66.862  66.869
 66.909 189.360
 --------------------------------------------------------------
 
          Ground-State Mulliken Net Atomic Charges

     Atom                 Charge (a.u.)    Spin (a.u.)
  --------------------------------------------------------
      1 S                     0.277007       0.612476
      2 C                     0.200782       0.857815
      3 O                    -0.596673       0.214544
      4 O                    -0.627360       0.202099
      5 F                    -0.085136       0.037502
      6 F                    -0.084865       0.037486
      7 F                    -0.083754       0.038078
  --------------------------------------------------------
  Sum of atomic charges =    -1.000000
  Sum of spin   charges =     2.000000

 -----------------------------------------------------------------
                    Cartesian Multipole Moments
 -----------------------------------------------------------------
    Charge (ESU x 10^10)
                -4.8032
    Dipole Moment (Debye)
         X      -8.9596      Y       1.5323      Z       0.1378
       Tot       9.0908
    Quadrupole Moments (Debye-Ang)
        XX     -69.3474     XY      -0.2825     YY     -52.8607
        XZ       4.4160     YZ       2.1820     ZZ     -51.3626
    Octopole Moments (Debye-Ang^2)
       XXX    -226.7466    XXY     -29.1934    XYY     -61.3563
       YYY     -68.5679    XXZ      -0.8673    XYZ       3.3694
       YYZ     -17.1364    XZZ     -64.3813    YZZ     -23.7824
       ZZZ     -46.1173
    Hexadecapole Moments (Debye-Ang^3)
      XXXX    -791.5352   XXXY     -55.9236   XXYY    -207.4839
      XYYY     -38.2591   YYYY    -601.9479   XXXZ      68.1660
      XXYZ     -50.5097   XYYZ       4.3066   YYYZ    -157.9990
      XXZZ    -210.1630   XYZZ     -15.4765   YYZZ    -177.6595
      XZZZ      22.5909   YZZZ    -168.0371   ZZZZ    -489.0099
 -----------------------------------------------------------------
 Calculating analytic gradient of the SCF energy
 Gradient of SCF Energy
            1           2           3           4           5           6
    1  -0.0033803  -0.0050344   0.0034984   0.0015612   0.0004163   0.0213446
    2  -0.0080957   0.0229647   0.0020826   0.0015117  -0.0192339   0.0022993
    3  -0.0018334   0.0208581  -0.0046922   0.0035419   0.0114656  -0.0102886
            7
    1  -0.0184058
    2  -0.0015287
    3  -0.0190513
 Max gradient component =       2.296E-02
 RMS gradient           =       1.174E-02
 Computing fast CPCM-SWIG gradient
 Updating gradient with PCM contributions...
 -- total gradient after adding PCM contribution --
---------------------------------------------------
  Atom         X              Y              Z     
---------------------------------------------------
   1      -0.007203      -0.004498      -0.000932
   2      -0.000371      -0.000430       0.000315
   3      -0.000324      -0.000013       0.000806
   4       0.007242       0.004999       0.000374
   5       0.000317      -0.000002      -0.000258
   6       0.000383      -0.000118      -0.000194
   7      -0.000043       0.000062      -0.000111
---------------------------------------------------
 Number of fixed atoms: 0
 Gradient time:  CPU 39.40 s  wall 2.70 s
 Geometry Optimization Parameters
   NAtoms,    NIC,     NZ,  NCons,   NDum,   NFix, NCnnct, MaxDiis
        7      60       0       0       0       0       0       0

 Cartesian Hessian Update
 Hessian Updated using BFGS Update


** GEOMETRY OPTIMIZATION IN DELOCALIZED INTERNAL COORDINATES **
   Searching for a Minimum

   Optimization Cycle:   2

                       Coordinates (Angstroms)
     ATOM                X               Y               Z
      1  S         1.3408552211   -0.6305745237   -0.9611460676
      2  C         0.7483661455    1.5970430970    1.3087610313
      3  O         0.9776605421   -1.2093072647    0.4062439537
      4  O         2.6369837914    0.1961168769   -0.9261206649
      5  F         0.7816010708    2.7109416770    0.5957033759
      6  F        -0.4373610138    1.4401244935    1.8687086550
      7  F         1.6995443394    1.6036156910    2.2238427055
   Point Group: c1    Number of degrees of freedom:    15


   Energy is   -886.294829120

 Hessian Updated using BFGS Update

 15 Hessian modes will be used to form the next step
  Hessian Eigenvalues:
     0.011754    0.021068    0.026460    0.058522    0.074896    0.094972
     0.110139    0.226997    0.237388    0.241262    0.341093    0.611167
     0.617744    0.619431    0.619856

 Minimum Search - Taking Simple RFO Step
 Searching for Lamda that Minimizes Along All modes
 Value Taken    Lamda =  -0.00022215
 Step Taken.  Stepsize is  0.033448

                             Maximum     Tolerance    Cnvgd?
         Gradient           0.004268      0.000300      NO
         Displacement       0.017161      0.001200      NO
         Energy change     -0.000560      0.000001      NO


 New Cartesian Coordinates Obtained by Inverse Iteration

 Displacement from previous Coordinates is:  0.028256
 ----------------------------------------------------------------
             Standard Nuclear Orientation (Angstroms)
    I     Atom           X                Y                Z
 ----------------------------------------------------------------
    1      S       1.3457684707    -0.6296396751    -0.9631115589
    2      C       0.7476132121     1.5994852509     1.3102610194
    3      O       0.9812214670    -1.2111718347     0.4017268463
    4      O       2.6336884968     0.1866328057    -0.9278457496
    5      F       0.7790111767     2.7139564885     0.5984057039
    6      F      -0.4384515725     1.4429648598     1.8709966527
    7      F       1.6987988457     1.6057321517     2.2255600753
 ----------------------------------------------------------------
 Nuclear Repulsion Energy =   379.9617353930 hartrees
 There are       34 alpha and       32 beta electrons
 Discretize the solute cavity surface with Lebedev spheres
	Using 194 Lebedev grid points for each H atom
	Using 194 Lebedev grid points for other atoms
	Atomic van der Waals radii will be scaled by 1.10
 Remove points where switching function is < 1.0e-08
 Keep 799 surface tesserae and discard 559 interior tesserae
 Molecular Surface Area = 152.105 Angst**2
 Applying Cartesian multipole field
    Component          Value
    ---------          -----
     (2,0,0)        1.00000E-11
     (0,2,0)        2.00000E-11
     (0,0,2)       -3.00000E-11
 Nucleus-field energy     =     0.0000000027 hartrees
 Requested basis set is 6-311++G(d)
 There are 49 shells and 162 basis functions
 A cutoff of  1.0D-12 yielded   1020 shell pairs
 There are     11786 function pairs (     12804 Cartesian)
 Smallest overlap matrix eigenvalue = 1.97E-03
 Guess MOs from SCF MO coefficient file
 Reading MOs from coefficient file
 Reading MOs from coefficient file

 -----------------------------------------------------------------------
  General SCF calculation program by
  Eric Jon Sundstrom, Paul Horn, Yuezhi Mao, Dmitri Zuev, Alec White,
  David Stuck, Shaama M.S., Shane Yost, Joonho Lee, David Small,
  Daniel Levine, Susi Lehtola, Hugh Burton, Evgeny Epifanovsky
 -----------------------------------------------------------------------
 Exchange:     0.2220 Hartree-Fock + 1.0000 wB97X-D + LR-HF
 Correlation:  1.0000 wB97X-D
 Using SG-3 standard quadrature grid
 Dispersion:   Grimme D
 using 24 threads for integral computing
 -------------------------------------------------------
 OpenMP Integral computing Module                
 Release: version 1.0, May 2013, Q-Chem Inc. Pittsburgh 
 -------------------------------------------------------
 using 24 threads for integral computing
 -------------------------------------------------------
 OpenMP Integral computing Module                
 Release: version 1.0, May 2013, Q-Chem Inc. Pittsburgh 
 -------------------------------------------------------
 -------------------------------------------------------
 OpenMP BLAS3 based DFT computing Module                
 Release: version 1.0, May 2013, Q-Chem Inc. Pittsburgh 
 -------------------------------------------------------
 A unrestricted SCF calculation will be
 performed using Roothaan-Hall, GDM
 SCF converges when RMS gradient is below 1.0e-08
 ---------------------------------------
  Cycle       Energy         DIIS error
 ---------------------------------------
    1    -875.9390171510      2.94e-04  Roothaan Step
 ---------------------------------------
  Cycle       Energy        RMS Gradient
 ---------------------------------------
    1    -886.2928793974      2.15e-02   Normal BFGS step
    2    -886.2938288508      1.62e-02   Normal BFGS step
    3    -886.2948683002      2.37e-03   Normal BFGS step
    4    -886.2949223140      1.57e-03   Normal BFGS step
    5    -886.2949315114      7.98e-04   Normal BFGS step
    6    -886.2949338900      5.51e-04   Normal BFGS step
    7    -886.2949346422      1.64e-04   Normal BFGS step
    8    -886.2949348194      1.14e-04   Normal BFGS step
    9    -886.2949348852      2.80e-05   Normal BFGS step
   10    -886.2949348894      1.38e-05   Normal BFGS step
   11    -886.2949348905      4.90e-06   Normal BFGS step
   12    -886.2949348907      1.91e-06   Normal BFGS step
   13    -886.2949348907      1.75e-06   Normal BFGS step
   14    -886.2949348907      8.45e-07   Normal BFGS step
   15    -886.2949348907      1.14e-07   Normal BFGS step
   16    -886.2949348907      5.26e-08   Normal BFGS step
   17    -886.2949348907      1.79e-08   Normal BFGS step
   18    -886.2949348907      9.70e-09  Convergence criterion met
 ---------------------------------------
 SCF time:   CPU 473.93s  wall 24.00s 
<S^2> =          2.006643870

************** Final PCM Free Energy Summary **************
 G_electrostatic  =      -0.09232155 hartree =     -57.93264811 kcal/mol
 G_cavitation     =       0.00000000 hartree =       0.00000000 kcal/mol
 G_dispersion     =       0.00000000 hartree =       0.00000000 kcal/mol
 G_repulsion      =       0.00000000 hartree =       0.00000000 kcal/mol
 --------------------------------------------------
 Non-electrostatic Free Energy =       0.00000000 hartree =       0.00000000 kcal/mol
 Total                         =      -0.09232155 hartree =     -57.93264811 kcal/mol
 --------------------------------------------------
 SCF Energy (H0 + V/2)                       =    -886.29493489 
 Solute Internal Energy (H0)                 =    -886.20261334 
 Total Free Energy (H0 + V/2 + non-elec)     =    -886.29493489 hartree
                                             = -556158.46574326 kcal/mol
***********************************************************

 SCF   energy in the final basis set =     -886.2949348907
 Total energy in the final basis set =     -886.2949348907
 
 --------------------------------------------------------------
 
                    Orbital Energies (a.u.)
 --------------------------------------------------------------
 
 Alpha MOs
 -- Occupied --
-89.076 -24.862 -24.862 -24.862 -19.205 -19.204 -10.540  -8.112
 -6.062  -6.060  -6.057  -1.449  -1.361  -1.361  -1.128  -1.040
 -0.816  -0.711  -0.710  -0.679  -0.675  -0.584  -0.584  -0.549
 -0.549  -0.524  -0.498  -0.497  -0.488  -0.390  -0.357  -0.351
 -0.335  -0.232
 -- Virtual --
  0.082   0.091   0.094   0.095   0.120   0.124   0.127   0.182
  0.188   0.199   0.237   0.250   0.257   0.261   0.279   0.288
  0.290   0.303   0.322   0.331   0.347   0.353   0.362   0.381
  0.388   0.401   0.410   0.413   0.420   0.428   0.432   0.457
  0.473   0.502   0.516   0.538   0.637   0.717   0.733   0.807
  0.838   0.851   0.907   0.939   1.094   1.128   1.175   1.184
  1.202   1.215   1.219   1.234   1.259   1.276   1.379   1.406
  1.413   1.481   1.496   1.501   1.511   1.540   1.542   1.580
  1.672   1.686   1.768   1.803   1.885   1.909   1.924   1.938
  1.957   2.126   2.764   2.938   2.945   2.947   2.963   2.979
  3.018   3.025   3.031   3.055   3.174   3.435   3.627   3.778
  3.814   3.814   3.815   3.832   3.836   3.837   3.950   3.951
  4.174   4.293   4.294   4.403   4.978   4.985   5.087   5.122
  5.141   5.169   5.192   5.307   6.336   6.339   6.410   6.421
  6.426   6.431   6.433   6.864   6.868   8.132  17.396  17.475
 17.540  23.590  50.025  50.026  66.859  66.867  66.907 189.365
 
 Beta MOs
 -- Occupied --
-89.072 -24.860 -24.859 -24.859 -19.198 -19.198 -10.524  -8.109
 -6.060  -6.055  -6.048  -1.439  -1.353  -1.352  -1.112  -1.023
 -0.798  -0.700  -0.700  -0.650  -0.637  -0.575  -0.574  -0.541
 -0.540  -0.521  -0.486  -0.478  -0.454  -0.343  -0.336  -0.332
 -- Virtual --
 -0.013   0.022   0.086   0.095   0.097   0.098   0.124   0.127
  0.131   0.186   0.194   0.210   0.241   0.258   0.274   0.278
  0.289   0.296   0.299   0.310   0.327   0.336   0.350   0.357
  0.367   0.383   0.391   0.407   0.414   0.416   0.425   0.430
  0.436   0.461   0.475   0.504   0.519   0.540   0.665   0.724
  0.740   0.827   0.861   0.870   0.924   0.959   1.099   1.134
  1.193   1.199   1.215   1.222   1.230   1.246   1.269   1.290
  1.387   1.410   1.420   1.483   1.506   1.514   1.520   1.553
  1.557   1.621   1.681   1.705   1.795   1.813   1.897   1.919
  1.948   1.957   1.963   2.132   2.822   2.958   2.967   2.968
  2.969   3.004   3.035   3.044   3.052   3.077   3.180   3.447
  3.638   3.781   3.819   3.820   3.820   3.839   3.843   3.843
  3.962   3.962   4.184   4.300   4.301   4.413   4.986   4.994
  5.096   5.145   5.149   5.186   5.215   5.314   6.341   6.345
  6.418   6.426   6.429   6.437   6.439   6.871   6.875   8.135
 17.408  17.477  17.542  23.616  50.031  50.032  66.862  66.869
 66.909 189.368
 --------------------------------------------------------------
 
          Ground-State Mulliken Net Atomic Charges

     Atom                 Charge (a.u.)    Spin (a.u.)
  --------------------------------------------------------
      1 S                     0.271814       0.615737
      2 C                     0.200974       0.857657
      3 O                    -0.600110       0.212438
      4 O                    -0.618616       0.200963
      5 F                    -0.084857       0.037493
      6 F                    -0.085561       0.037590
      7 F                    -0.083644       0.038123
  --------------------------------------------------------
  Sum of atomic charges =    -1.000000
  Sum of spin   charges =     2.000000

 -----------------------------------------------------------------
                    Cartesian Multipole Moments
 -----------------------------------------------------------------
    Charge (ESU x 10^10)
                -4.8032
    Dipole Moment (Debye)
         X      -8.8856      Y       1.6120      Z       0.1358
       Tot       9.0317
    Quadrupole Moments (Debye-Ang)
        XX     -69.0745     XY      -0.1365     YY     -52.8888
        XZ       4.3515     YZ       2.1227     ZZ     -51.3598
    Octopole Moments (Debye-Ang^2)
       XXX    -225.8815    XXY     -28.8879    XYY     -61.3264
       YYY     -68.3294    XXZ      -1.1025    XYZ       3.2922
       YYZ     -17.1313    XZZ     -64.2658    YZZ     -23.6849
       ZZZ     -46.0942
    Hexadecapole Moments (Debye-Ang^3)
      XXXX    -788.5760   XXXY     -54.5174   XXYY    -207.4946
      XYYY     -37.2083   YYYY    -603.3489   XXXZ      67.6642
      XXYZ     -50.9356   XYYZ       4.3514   YYYZ    -158.8389
      XXZZ    -209.9015   XYZZ     -15.0403   YYZZ    -178.0744
      XZZZ      22.7055   YZZZ    -168.9635   ZZZZ    -490.0392
 -----------------------------------------------------------------
 Calculating analytic gradient of the SCF energy
 Gradient of SCF Energy
            1           2           3           4           5           6
    1   0.0041575  -0.0045392   0.0039239  -0.0064439   0.0002036   0.0209976
    2  -0.0035307   0.0227891   0.0026113  -0.0035613  -0.0192424   0.0024497
    3  -0.0005753   0.0203903  -0.0057041   0.0032955   0.0115676  -0.0101690
            7
    1  -0.0182995
    2  -0.0015157
    3  -0.0188051
 Max gradient component =       2.279E-02
 RMS gradient           =       1.165E-02
 Computing fast CPCM-SWIG gradient
 Updating gradient with PCM contributions...
 -- total gradient after adding PCM contribution --
---------------------------------------------------
  Atom         X              Y              Z     
---------------------------------------------------
   1       0.000601       0.000137       0.000568
   2       0.000192      -0.000529      -0.000180
   3       0.000046       0.000482      -0.000522
   4      -0.000905      -0.000233       0.000150
   5       0.000023      -0.000004      -0.000099
   6       0.000035       0.000096      -0.000042
   7       0.000008       0.000053       0.000125
---------------------------------------------------
 Number of fixed atoms: 0
 Gradient time:  CPU 41.54 s  wall 2.97 s
 Geometry Optimization Parameters
   NAtoms,    NIC,     NZ,  NCons,   NDum,   NFix, NCnnct, MaxDiis
        7      60       0       0       0       0       0       0

 Cartesian Hessian Update
 Hessian Updated using BFGS Update


** GEOMETRY OPTIMIZATION IN DELOCALIZED INTERNAL COORDINATES **
   Searching for a Minimum

   Optimization Cycle:   3

                       Coordinates (Angstroms)
     ATOM                X               Y               Z
      1  S         1.3457684707   -0.6296396751   -0.9631115589
      2  C         0.7476132121    1.5994852509    1.3102610194
      3  O         0.9812214670   -1.2111718347    0.4017268463
      4  O         2.6336884968    0.1866328057   -0.9278457496
      5  F         0.7790111767    2.7139564885    0.5984057039
      6  F        -0.4384515725    1.4429648598    1.8709966527
      7  F         1.6987988457    1.6057321517    2.2255600753
   Point Group: c1    Number of degrees of freedom:    15


   Energy is   -886.294934891

 Hessian Updated using BFGS Update

 15 Hessian modes will be used to form the next step
  Hessian Eigenvalues:
     0.011730    0.019996    0.026317    0.058541    0.074954    0.094952
     0.109676    0.226685    0.236554    0.241784    0.384082    0.611178
     0.619081    0.619671    0.621838

 Minimum Search - Taking Simple RFO Step
 Searching for Lamda that Minimizes Along All modes
 Value Taken    Lamda =  -0.00000696
 Step Taken.  Stepsize is  0.015150

                             Maximum     Tolerance    Cnvgd?
         Gradient           0.000816      0.000300      NO
         Displacement       0.011059      0.001200      NO
         Energy change     -0.000106      0.000001      NO


 New Cartesian Coordinates Obtained by Inverse Iteration

 Displacement from previous Coordinates is:  0.011382
 ----------------------------------------------------------------
             Standard Nuclear Orientation (Angstroms)
    I     Atom           X                Y                Z
 ----------------------------------------------------------------
    1      S       1.3459746790    -0.6307095111    -0.9645770048
    2      C       0.7468402647     1.6010111727     1.3112284644
    3      O       0.9817774298    -1.2132109537     0.4005044202
    4      O       2.6355628734     0.1842134365    -0.9295016167
    5      F       0.7782069282     2.7156484192     0.5997068850
    6      F      -0.4389713076     1.4439288321     1.8724523738
    7      F       1.6982592291     1.6070786513     2.2261794672
 ----------------------------------------------------------------
 Nuclear Repulsion Energy =   379.7547522566 hartrees
 There are       34 alpha and       32 beta electrons
 Discretize the solute cavity surface with Lebedev spheres
	Using 194 Lebedev grid points for each H atom
	Using 194 Lebedev grid points for other atoms
	Atomic van der Waals radii will be scaled by 1.10
 Remove points where switching function is < 1.0e-08
 Keep 801 surface tesserae and discard 557 interior tesserae
 Molecular Surface Area = 152.216 Angst**2
 Applying Cartesian multipole field
    Component          Value
    ---------          -----
     (2,0,0)        1.00000E-11
     (0,2,0)        2.00000E-11
     (0,0,2)       -3.00000E-11
 Nucleus-field energy     =     0.0000000027 hartrees
 Requested basis set is 6-311++G(d)
 There are 49 shells and 162 basis functions
 A cutoff of  1.0D-12 yielded   1020 shell pairs
 There are     11786 function pairs (     12804 Cartesian)
 Smallest overlap matrix eigenvalue = 1.97E-03
 Guess MOs from SCF MO coefficient file
 Reading MOs from coefficient file
 Reading MOs from coefficient file

 -----------------------------------------------------------------------
  General SCF calculation program by
  Eric Jon Sundstrom, Paul Horn, Yuezhi Mao, Dmitri Zuev, Alec White,
  David Stuck, Shaama M.S., Shane Yost, Joonho Lee, David Small,
  Daniel Levine, Susi Lehtola, Hugh Burton, Evgeny Epifanovsky
 -----------------------------------------------------------------------
 Exchange:     0.2220 Hartree-Fock + 1.0000 wB97X-D + LR-HF
 Correlation:  1.0000 wB97X-D
 Using SG-3 standard quadrature grid
 Dispersion:   Grimme D
 using 24 threads for integral computing
 -------------------------------------------------------
 OpenMP Integral computing Module                
 Release: version 1.0, May 2013, Q-Chem Inc. Pittsburgh 
 -------------------------------------------------------
 using 24 threads for integral computing
 -------------------------------------------------------
 OpenMP Integral computing Module                
 Release: version 1.0, May 2013, Q-Chem Inc. Pittsburgh 
 -------------------------------------------------------
 -------------------------------------------------------
 OpenMP BLAS3 based DFT computing Module                
 Release: version 1.0, May 2013, Q-Chem Inc. Pittsburgh 
 -------------------------------------------------------
 A unrestricted SCF calculation will be
 performed using Roothaan-Hall, GDM
 SCF converges when RMS gradient is below 1.0e-08
 ---------------------------------------
  Cycle       Energy         DIIS error
 ---------------------------------------
    1    -875.9410610418      2.78e-04  Roothaan Step
 ---------------------------------------
  Cycle       Energy        RMS Gradient
 ---------------------------------------
    1    -886.2927932949      2.24e-02   Normal BFGS step
    2    -886.2936689867      1.79e-02   Normal BFGS step
    3    -886.2948785369      2.13e-03   Normal BFGS step
    4    -886.2949283595      1.57e-03   Normal BFGS step
    5    -886.2949375616      9.84e-04   Normal BFGS step
    6    -886.2949399818      4.53e-04   Normal BFGS step
    7    -886.2949407394      2.11e-04   Normal BFGS step
    8    -886.2949409214      1.06e-04   Normal BFGS step
    9    -886.2949409826      2.90e-05   Normal BFGS step
   10    -886.2949409865      1.07e-05   Normal BFGS step
   11    -886.2949409875      4.96e-06   Normal BFGS step
   12    -886.2949409877      1.64e-06   Normal BFGS step
   13    -886.2949409877      1.33e-06   Normal BFGS step
   14    -886.2949409877      6.47e-07   Normal BFGS step
   15    -886.2949409877      1.51e-07   Normal BFGS step
   16    -886.2949409877      5.14e-08   Normal BFGS step
   17    -886.2949409877      2.28e-08   Normal BFGS step
   18    -886.2949409877      9.13e-09  Convergence criterion met
 ---------------------------------------
 SCF time:   CPU 474.66s  wall 24.00s 
<S^2> =          2.006647802

************** Final PCM Free Energy Summary **************
 G_electrostatic  =      -0.09235654 hartree =     -57.95460107 kcal/mol
 G_cavitation     =       0.00000000 hartree =       0.00000000 kcal/mol
 G_dispersion     =       0.00000000 hartree =       0.00000000 kcal/mol
 G_repulsion      =       0.00000000 hartree =       0.00000000 kcal/mol
 --------------------------------------------------
 Non-electrostatic Free Energy =       0.00000000 hartree =       0.00000000 kcal/mol
 Total                         =      -0.09235654 hartree =     -57.95460107 kcal/mol
 --------------------------------------------------
 SCF Energy (H0 + V/2)                       =    -886.29494099 
 Solute Internal Energy (H0)                 =    -886.20258445 
 Total Free Energy (H0 + V/2 + non-elec)     =    -886.29494099 hartree
                                             = -556158.46956918 kcal/mol
***********************************************************

 SCF   energy in the final basis set =     -886.2949409877
 Total energy in the final basis set =     -886.2949409877
 
 --------------------------------------------------------------
 
                    Orbital Energies (a.u.)
 --------------------------------------------------------------
 
 Alpha MOs
 -- Occupied --
-89.076 -24.863 -24.863 -24.862 -19.205 -19.204 -10.540  -8.112
 -6.062  -6.060  -6.057  -1.449  -1.361  -1.361  -1.127  -1.040
 -0.816  -0.711  -0.710  -0.679  -0.675  -0.584  -0.584  -0.549
 -0.549  -0.524  -0.498  -0.497  -0.488  -0.390  -0.357  -0.351
 -0.335  -0.232
 -- Virtual --
  0.082   0.091   0.094   0.095   0.120   0.124   0.127   0.182
  0.187   0.199   0.237   0.250   0.257   0.261   0.278   0.288
  0.290   0.303   0.322   0.331   0.347   0.353   0.362   0.381
  0.388   0.401   0.410   0.413   0.420   0.428   0.432   0.457
  0.472   0.502   0.516   0.538   0.638   0.717   0.733   0.807
  0.837   0.851   0.907   0.939   1.094   1.128   1.175   1.184
  1.201   1.215   1.219   1.233   1.259   1.276   1.379   1.406
  1.412   1.481   1.496   1.501   1.510   1.540   1.542   1.580
  1.672   1.686   1.768   1.803   1.884   1.909   1.924   1.938
  1.957   2.126   2.764   2.938   2.945   2.947   2.963   2.979
  3.017   3.025   3.030   3.055   3.173   3.434   3.627   3.778
  3.814   3.814   3.815   3.831   3.836   3.836   3.950   3.951
  4.174   4.293   4.294   4.402   4.978   4.985   5.087   5.122
  5.141   5.169   5.191   5.307   6.335   6.339   6.410   6.421
  6.426   6.431   6.433   6.864   6.868   8.131  17.396  17.475
 17.539  23.590  50.025  50.026  66.859  66.867  66.907 189.364
 
 Beta MOs
 -- Occupied --
-89.072 -24.860 -24.860 -24.860 -19.198 -19.198 -10.525  -8.109
 -6.060  -6.055  -6.048  -1.439  -1.353  -1.353  -1.112  -1.023
 -0.798  -0.700  -0.700  -0.650  -0.637  -0.575  -0.574  -0.541
 -0.541  -0.521  -0.486  -0.478  -0.454  -0.343  -0.335  -0.332
 -- Virtual --
 -0.013   0.022   0.086   0.095   0.097   0.098   0.124   0.127
  0.131   0.186   0.193   0.210   0.241   0.258   0.274   0.278
  0.289   0.296   0.299   0.310   0.327   0.336   0.350   0.356
  0.367   0.382   0.391   0.407   0.414   0.416   0.425   0.430
  0.436   0.461   0.475   0.504   0.518   0.539   0.665   0.724
  0.739   0.827   0.861   0.870   0.924   0.959   1.099   1.134
  1.193   1.199   1.215   1.222   1.230   1.245   1.269   1.289
  1.387   1.410   1.420   1.483   1.506   1.514   1.520   1.553
  1.556   1.621   1.681   1.705   1.795   1.813   1.896   1.919
  1.948   1.957   1.963   2.132   2.822   2.958   2.967   2.968
  2.969   3.004   3.035   3.043   3.052   3.077   3.179   3.446
  3.637   3.781   3.819   3.819   3.820   3.839   3.843   3.843
  3.962   3.962   4.184   4.300   4.301   4.413   4.986   4.994
  5.095   5.145   5.149   5.186   5.215   5.314   6.341   6.344
  6.418   6.426   6.429   6.437   6.439   6.871   6.875   8.134
 17.408  17.477  17.542  23.616  50.031  50.032  66.861  66.869
 66.909 189.367
 --------------------------------------------------------------
 
          Ground-State Mulliken Net Atomic Charges

     Atom                 Charge (a.u.)    Spin (a.u.)
  --------------------------------------------------------
      1 S                     0.272380       0.615448
      2 C                     0.200765       0.857833
      3 O                    -0.600388       0.212473
      4 O                    -0.619076       0.201009
      5 F                    -0.084721       0.037495
      6 F                    -0.085485       0.037611
      7 F                    -0.083476       0.038130
  --------------------------------------------------------
  Sum of atomic charges =    -1.000000
  Sum of spin   charges =     2.000000

 -----------------------------------------------------------------
                    Cartesian Multipole Moments
 -----------------------------------------------------------------
    Charge (ESU x 10^10)
                -4.8032
    Dipole Moment (Debye)
         X      -8.8960      Y       1.6261      Z       0.1420
       Tot       9.0445
    Quadrupole Moments (Debye-Ang)
        XX     -69.1181     XY      -0.1114     YY     -52.8918
        XZ       4.3707     YZ       2.1240     ZZ     -51.3585
    Octopole Moments (Debye-Ang^2)
       XXX    -226.0634    XXY     -28.8149    XYY     -61.3327
       YYY     -68.2429    XXZ      -1.0193    XYZ       3.2886
       YYZ     -17.1186    XZZ     -64.2926    YZZ     -23.6675
       ZZZ     -46.0290
    Hexadecapole Moments (Debye-Ang^3)
      XXXX    -789.5267   XXXY     -54.1283   XXYY    -207.6933
      XYYY     -36.9313   YYYY    -604.2670   XXXZ      68.1481
      XXYZ     -51.0737   XYYZ       4.4150   YYYZ    -159.1690
      XXZZ    -210.1663   XYZZ     -14.9544   YYZZ    -178.3046
      XZZZ      23.0120   YZZZ    -169.3113   ZZZZ    -490.6966
 -----------------------------------------------------------------
 Calculating analytic gradient of the SCF energy
 Gradient of SCF Energy
            1           2           3           4           5           6
    1   0.0038001  -0.0044968   0.0038230  -0.0059875   0.0002568   0.0209398
    2  -0.0036701   0.0227323   0.0024660  -0.0032657  -0.0192148   0.0024254
    3  -0.0009670   0.0203113  -0.0053220   0.0033129   0.0115672  -0.0101004
            7
    1  -0.0183353
    2  -0.0014731
    3  -0.0188021
 Max gradient component =       2.273E-02
 RMS gradient           =       1.160E-02
 Computing fast CPCM-SWIG gradient
 Updating gradient with PCM contributions...
 -- total gradient after adding PCM contribution --
---------------------------------------------------
  Atom         X              Y              Z     
---------------------------------------------------
   1       0.000227      -0.000005       0.000145
   2       0.000201      -0.000506      -0.000219
   3      -0.000052       0.000288      -0.000134
   4      -0.000418       0.000059       0.000157
   5       0.000090       0.000023      -0.000088
   6      -0.000004       0.000055       0.000040
   7      -0.000044       0.000086       0.000099
---------------------------------------------------
 Number of fixed atoms: 0
 Gradient time:  CPU 41.03 s  wall 2.87 s
 Geometry Optimization Parameters
   NAtoms,    NIC,     NZ,  NCons,   NDum,   NFix, NCnnct, MaxDiis
        7      60       0       0       0       0       0       0

 Cartesian Hessian Update
 Hessian Updated using BFGS Update


** GEOMETRY OPTIMIZATION IN DELOCALIZED INTERNAL COORDINATES **
   Searching for a Minimum

   Optimization Cycle:   4

                       Coordinates (Angstroms)
     ATOM                X               Y               Z
      1  S         1.3459746790   -0.6307095111   -0.9645770048
      2  C         0.7468402647    1.6010111727    1.3112284644
      3  O         0.9817774298   -1.2132109537    0.4005044202
      4  O         2.6355628734    0.1842134365   -0.9295016167
      5  F         0.7782069282    2.7156484192    0.5997068850
      6  F        -0.4389713076    1.4439288321    1.8724523738
      7  F         1.6982592291    1.6070786513    2.2261794672
   Point Group: c1    Number of degrees of freedom:    15


   Energy is   -886.294940988

 Hessian Updated using BFGS Update

 15 Hessian modes will be used to form the next step
  Hessian Eigenvalues:
     0.003908    0.011939    0.025846    0.058227    0.076438    0.095347
     0.107407    0.223380    0.235475    0.241299    0.440372    0.609946
     0.618623    0.619679    0.702945

 Minimum Search - Taking Simple RFO Step
 Searching for Lamda that Minimizes Along All modes
 Value Taken    Lamda =  -0.00002783
 Step Taken.  Stepsize is  0.082719

                             Maximum     Tolerance    Cnvgd?
         Gradient           0.000312      0.000300      NO
         Displacement       0.059057      0.001200      NO
         Energy change     -0.000006      0.000001      NO


 New Cartesian Coordinates Obtained by Inverse Iteration

 Displacement from previous Coordinates is:  0.062792
 ----------------------------------------------------------------
             Standard Nuclear Orientation (Angstroms)
    I     Atom           X                Y                Z
 ----------------------------------------------------------------
    1      S       1.3477718123    -0.6358075618    -0.9720463889
    2      C       0.7428620436     1.6094991455     1.3168801124
    3      O       0.9855288840    -1.2237297237     0.3929629044
    4      O       2.6448556861     0.1693854640    -0.9383989119
    5      F       0.7725853152     2.7248392583     0.6069919888
    6      F      -0.4418672201     1.4497596087     1.8798059326
    7      F       1.6959135756     1.6140138561     2.2297973515
 ----------------------------------------------------------------
 Nuclear Repulsion Energy =   378.7642991473 hartrees
 There are       34 alpha and       32 beta electrons
 Discretize the solute cavity surface with Lebedev spheres
	Using 194 Lebedev grid points for each H atom
	Using 194 Lebedev grid points for other atoms
	Atomic van der Waals radii will be scaled by 1.10
 Remove points where switching function is < 1.0e-08
 Keep 804 surface tesserae and discard 554 interior tesserae
 Molecular Surface Area = 152.793 Angst**2
 Applying Cartesian multipole field
    Component          Value
    ---------          -----
     (2,0,0)        1.00000E-11
     (0,2,0)        2.00000E-11
     (0,0,2)       -3.00000E-11
 Nucleus-field energy     =     0.0000000027 hartrees
 Requested basis set is 6-311++G(d)
 There are 49 shells and 162 basis functions
 A cutoff of  1.0D-12 yielded   1018 shell pairs
 There are     11745 function pairs (     12752 Cartesian)
 Smallest overlap matrix eigenvalue = 1.99E-03
 Guess MOs from SCF MO coefficient file
 Reading MOs from coefficient file
 Reading MOs from coefficient file

 -----------------------------------------------------------------------
  General SCF calculation program by
  Eric Jon Sundstrom, Paul Horn, Yuezhi Mao, Dmitri Zuev, Alec White,
  David Stuck, Shaama M.S., Shane Yost, Joonho Lee, David Small,
  Daniel Levine, Susi Lehtola, Hugh Burton, Evgeny Epifanovsky
 -----------------------------------------------------------------------
 Exchange:     0.2220 Hartree-Fock + 1.0000 wB97X-D + LR-HF
 Correlation:  1.0000 wB97X-D
 Using SG-3 standard quadrature grid
 Dispersion:   Grimme D
 using 24 threads for integral computing
 -------------------------------------------------------
 OpenMP Integral computing Module                
 Release: version 1.0, May 2013, Q-Chem Inc. Pittsburgh 
 -------------------------------------------------------
 using 24 threads for integral computing
 -------------------------------------------------------
 OpenMP Integral computing Module                
 Release: version 1.0, May 2013, Q-Chem Inc. Pittsburgh 
 -------------------------------------------------------
 -------------------------------------------------------
 OpenMP BLAS3 based DFT computing Module                
 Release: version 1.0, May 2013, Q-Chem Inc. Pittsburgh 
 -------------------------------------------------------
 A unrestricted SCF calculation will be
 performed using Roothaan-Hall, GDM
 SCF converges when RMS gradient is below 1.0e-08
 ---------------------------------------
  Cycle       Energy         DIIS error
 ---------------------------------------
    1    -875.9437694007      2.81e-04  Roothaan Step
 ---------------------------------------
  Cycle       Energy        RMS Gradient
 ---------------------------------------
    1    -886.2927669785      2.26e-02   Normal BFGS step
    2    -886.2936438576      1.83e-02   Normal BFGS step
    3    -886.2948952435      2.10e-03   Normal BFGS step
    4    -886.2949458644      1.56e-03   Normal BFGS step
    5    -886.2949551233      9.02e-04   Normal BFGS step
    6    -886.2949575096      4.53e-04   Normal BFGS step
    7    -886.2949582320      2.31e-04   Normal BFGS step
    8    -886.2949584268      1.03e-04   Normal BFGS step
    9    -886.2949584912      3.99e-05   Normal BFGS step
   10    -886.2949584964      2.27e-05   Normal BFGS step
   11    -886.2949584978      5.87e-06   Normal BFGS step
   12    -886.2949584981      2.84e-06   Normal BFGS step
   13    -886.2949584982      1.99e-06   Normal BFGS step
   14    -886.2949584982      8.22e-07   Normal BFGS step
   15    -886.2949584982      9.39e-08   Normal BFGS step
   16    -886.2949584982      4.86e-08   Normal BFGS step
   17    -886.2949584982      1.84e-08   Normal BFGS step
   18    -886.2949584982      9.88e-09  Convergence criterion met
 ---------------------------------------
 SCF time:   CPU 491.56s  wall 25.00s 
<S^2> =          2.006655863

************** Final PCM Free Energy Summary **************
 G_electrostatic  =      -0.09252674 hartree =     -58.06140262 kcal/mol
 G_cavitation     =       0.00000000 hartree =       0.00000000 kcal/mol
 G_dispersion     =       0.00000000 hartree =       0.00000000 kcal/mol
 G_repulsion      =       0.00000000 hartree =       0.00000000 kcal/mol
 --------------------------------------------------
 Non-electrostatic Free Energy =       0.00000000 hartree =       0.00000000 kcal/mol
 Total                         =      -0.09252674 hartree =     -58.06140262 kcal/mol
 --------------------------------------------------
 SCF Energy (H0 + V/2)                       =    -886.29495850 
 Solute Internal Energy (H0)                 =    -886.20243176 
 Total Free Energy (H0 + V/2 + non-elec)     =    -886.29495850 hartree
                                             = -556158.48055718 kcal/mol
***********************************************************

 SCF   energy in the final basis set =     -886.2949584982
 Total energy in the final basis set =     -886.2949584982
 
 --------------------------------------------------------------
 
                    Orbital Energies (a.u.)
 --------------------------------------------------------------
 
 Alpha MOs
 -- Occupied --
-89.076 -24.863 -24.863 -24.863 -19.205 -19.204 -10.540  -8.113
 -6.062  -6.060  -6.057  -1.449  -1.362  -1.361  -1.127  -1.039
 -0.817  -0.711  -0.711  -0.679  -0.675  -0.585  -0.585  -0.550
 -0.550  -0.525  -0.498  -0.496  -0.487  -0.389  -0.357  -0.351
 -0.336  -0.232
 -- Virtual --
  0.082   0.091   0.093   0.095   0.120   0.124   0.127   0.181
  0.187   0.199   0.237   0.250   0.256   0.260   0.278   0.287
  0.289   0.302   0.322   0.331   0.347   0.352   0.362   0.381
  0.388   0.401   0.410   0.413   0.420   0.428   0.432   0.456
  0.472   0.502   0.515   0.537   0.639   0.717   0.733   0.807
  0.837   0.850   0.905   0.937   1.094   1.128   1.174   1.184
  1.201   1.215   1.218   1.232   1.258   1.273   1.379   1.404
  1.411   1.481   1.495   1.500   1.509   1.539   1.541   1.581
  1.672   1.685   1.768   1.803   1.882   1.907   1.923   1.938
  1.956   2.126   2.762   2.938   2.945   2.947   2.963   2.976
  3.017   3.024   3.030   3.054   3.172   3.433   3.625   3.778
  3.813   3.814   3.815   3.831   3.836   3.836   3.950   3.950
  4.173   4.292   4.294   4.402   4.977   4.985   5.086   5.121
  5.140   5.167   5.189   5.305   6.335   6.338   6.409   6.420
  6.425   6.430   6.432   6.864   6.868   8.128  17.396  17.473
 17.538  23.590  50.025  50.026  66.859  66.866  66.906 189.362
 
 Beta MOs
 -- Occupied --
-89.072 -24.860 -24.860 -24.860 -19.198 -19.198 -10.525  -8.109
 -6.060  -6.055  -6.048  -1.439  -1.354  -1.353  -1.111  -1.023
 -0.799  -0.701  -0.701  -0.651  -0.638  -0.575  -0.575  -0.541
 -0.541  -0.522  -0.485  -0.478  -0.453  -0.342  -0.335  -0.332
 -- Virtual --
 -0.014   0.022   0.086   0.095   0.097   0.098   0.124   0.127
  0.131   0.186   0.193   0.209   0.241   0.258   0.273   0.277
  0.289   0.295   0.299   0.309   0.326   0.336   0.350   0.356
  0.366   0.382   0.390   0.407   0.414   0.416   0.426   0.430
  0.436   0.461   0.474   0.504   0.517   0.538   0.666   0.723
  0.739   0.826   0.861   0.869   0.924   0.956   1.098   1.134
  1.193   1.199   1.214   1.222   1.229   1.244   1.268   1.286
  1.386   1.409   1.418   1.483   1.506   1.513   1.519   1.552
  1.555   1.622   1.680   1.705   1.795   1.812   1.894   1.917
  1.946   1.956   1.962   2.132   2.821   2.958   2.967   2.968
  2.969   3.002   3.034   3.042   3.051   3.076   3.178   3.444
  3.635   3.781   3.818   3.819   3.820   3.838   3.842   3.842
  3.961   3.962   4.183   4.300   4.301   4.412   4.985   4.993
  5.095   5.144   5.148   5.183   5.212   5.312   6.340   6.344
  6.417   6.425   6.428   6.436   6.438   6.871   6.875   8.131
 17.408  17.476  17.540  23.616  50.031  50.032  66.861  66.868
 66.908 189.365
 --------------------------------------------------------------
 
          Ground-State Mulliken Net Atomic Charges

     Atom                 Charge (a.u.)    Spin (a.u.)
  --------------------------------------------------------
      1 S                     0.273895       0.614787
      2 C                     0.199226       0.858819
      3 O                    -0.601794       0.212170
      4 O                    -0.620080       0.200870
      5 F                    -0.083886       0.037511
      6 F                    -0.084910       0.037678
      7 F                    -0.082451       0.038164
  --------------------------------------------------------
  Sum of atomic charges =    -1.000000
  Sum of spin   charges =     2.000000

 -----------------------------------------------------------------
                    Cartesian Multipole Moments
 -----------------------------------------------------------------
    Charge (ESU x 10^10)
                -4.8032
    Dipole Moment (Debye)
         X      -8.9397      Y       1.7131      Z       0.1831
       Tot       9.1042
    Quadrupole Moments (Debye-Ang)
        XX     -69.3061     XY       0.0510     YY     -52.9038
        XZ       4.4695     YZ       2.1186     ZZ     -51.3483
    Octopole Moments (Debye-Ang^2)
       XXX    -226.8974    XXY     -28.3682    XYY     -61.3485
       YYY     -67.7643    XXZ      -0.6082    XYZ       3.2497
       YYZ     -17.0353    XZZ     -64.4189    YZZ     -23.5441
       ZZZ     -45.6581
    Hexadecapole Moments (Debye-Ang^3)
      XXXX    -794.1468   XXXY     -51.7735   XXYY    -208.7107
      XYYY     -35.2523   YYYY    -609.1712   XXXZ      70.5925
      XXYZ     -51.8875   XYYZ       4.7603   YYYZ    -161.0284
      XXZZ    -211.5166   XYZZ     -14.4016   YYZZ    -179.5212
      XZZZ      24.6145   YZZZ    -171.2688   ZZZZ    -494.1971
 -----------------------------------------------------------------
 Calculating analytic gradient of the SCF energy
 Gradient of SCF Energy
            1           2           3           4           5           6
    1   0.0033021  -0.0042495   0.0035427  -0.0052311   0.0002940   0.0206717
    2  -0.0037123   0.0224754   0.0020479  -0.0027579  -0.0191549   0.0024508
    3  -0.0021484   0.0199702  -0.0041614   0.0033643   0.0115768  -0.0099505
            7
    1  -0.0183299
    2  -0.0013491
    3  -0.0186510
 Max gradient component =       2.248E-02
 RMS gradient           =       1.144E-02
 Computing fast CPCM-SWIG gradient
 Updating gradient with PCM contributions...
 -- total gradient after adding PCM contribution --
---------------------------------------------------
  Atom         X              Y              Z     
---------------------------------------------------
   1      -0.000290      -0.000045      -0.001126
   2       0.000330      -0.000286      -0.000269
   3      -0.000323      -0.000363       0.000994
   4       0.000441       0.000517       0.000154
   5       0.000127       0.000047      -0.000027
   6      -0.000171       0.000015       0.000198
   7      -0.000115       0.000114       0.000076
---------------------------------------------------
 Number of fixed atoms: 0
 Gradient time:  CPU 39.98 s  wall 2.83 s
 Geometry Optimization Parameters
   NAtoms,    NIC,     NZ,  NCons,   NDum,   NFix, NCnnct, MaxDiis
        7      60       0       0       0       0       0       0

 Cartesian Hessian Update
 Hessian Updated using BFGS Update


** GEOMETRY OPTIMIZATION IN DELOCALIZED INTERNAL COORDINATES **
   Searching for a Minimum

   Optimization Cycle:   5

                       Coordinates (Angstroms)
     ATOM                X               Y               Z
      1  S         1.3477718123   -0.6358075618   -0.9720463889
      2  C         0.7428620436    1.6094991455    1.3168801124
      3  O         0.9855288840   -1.2237297237    0.3929629044
      4  O         2.6448556861    0.1693854640   -0.9383989119
      5  F         0.7725853152    2.7248392583    0.6069919888
      6  F        -0.4418672201    1.4497596087    1.8798059326
      7  F         1.6959135756    1.6140138561    2.2297973515
   Point Group: c1    Number of degrees of freedom:    15


   Energy is   -886.294958498

 Hessian Updated using BFGS Update

 15 Hessian modes will be used to form the next step
  Hessian Eigenvalues:
     0.002434    0.011947    0.025822    0.058238    0.076400    0.095256
     0.106770    0.221823    0.235355    0.241285    0.448390    0.610308
     0.618703    0.619889    0.811331

 Minimum Search - Taking Simple RFO Step
 Searching for Lamda that Minimizes Along All modes
 Value Taken    Lamda =  -0.00000903
 Step Taken.  Stepsize is  0.051366

                             Maximum     Tolerance    Cnvgd?
         Gradient           0.000916      0.000300      NO
         Displacement       0.036420      0.001200      NO
         Energy change     -0.000018      0.000001      NO


 New Cartesian Coordinates Obtained by Inverse Iteration

 Displacement from previous Coordinates is:  0.038954
 ----------------------------------------------------------------
             Standard Nuclear Orientation (Angstroms)
    I     Atom           X                Y                Z
 ----------------------------------------------------------------
    1      S       1.3489148912    -0.6383677140    -0.9760688815
    2      C       0.7403093297     1.6147805217     1.3204355633
    3      O       0.9881592078    -1.2293647868     0.3879287828
    4      O       2.6505327476     0.1592028843    -0.9438630043
    5      F       0.7686629314     2.7305318824     0.6115562252
    6      F      -0.4435943680     1.4531467570     1.8841870922
    7      F       1.6946653568     1.6180305024     2.2318172113
 ----------------------------------------------------------------
 Nuclear Repulsion Energy =   378.2450766744 hartrees
 There are       34 alpha and       32 beta electrons
 Discretize the solute cavity surface with Lebedev spheres
	Using 194 Lebedev grid points for each H atom
	Using 194 Lebedev grid points for other atoms
	Atomic van der Waals radii will be scaled by 1.10
 Remove points where switching function is < 1.0e-08
 Keep 806 surface tesserae and discard 552 interior tesserae
 Molecular Surface Area = 153.124 Angst**2
 Applying Cartesian multipole field
    Component          Value
    ---------          -----
     (2,0,0)        1.00000E-11
     (0,2,0)        2.00000E-11
     (0,0,2)       -3.00000E-11
 Nucleus-field energy     =     0.0000000027 hartrees
 Requested basis set is 6-311++G(d)
 There are 49 shells and 162 basis functions
 A cutoff of  1.0D-12 yielded   1017 shell pairs
 There are     11729 function pairs (     12736 Cartesian)
 Smallest overlap matrix eigenvalue = 2.00E-03
 Guess MOs from SCF MO coefficient file
 Reading MOs from coefficient file
 Reading MOs from coefficient file

 -----------------------------------------------------------------------
  General SCF calculation program by
  Eric Jon Sundstrom, Paul Horn, Yuezhi Mao, Dmitri Zuev, Alec White,
  David Stuck, Shaama M.S., Shane Yost, Joonho Lee, David Small,
  Daniel Levine, Susi Lehtola, Hugh Burton, Evgeny Epifanovsky
 -----------------------------------------------------------------------
 Exchange:     0.2220 Hartree-Fock + 1.0000 wB97X-D + LR-HF
 Correlation:  1.0000 wB97X-D
 Using SG-3 standard quadrature grid
 Dispersion:   Grimme D
 using 24 threads for integral computing
 -------------------------------------------------------
 OpenMP Integral computing Module                
 Release: version 1.0, May 2013, Q-Chem Inc. Pittsburgh 
 -------------------------------------------------------
 using 24 threads for integral computing
 -------------------------------------------------------
 OpenMP Integral computing Module                
 Release: version 1.0, May 2013, Q-Chem Inc. Pittsburgh 
 -------------------------------------------------------
 -------------------------------------------------------
 OpenMP BLAS3 based DFT computing Module                
 Release: version 1.0, May 2013, Q-Chem Inc. Pittsburgh 
 -------------------------------------------------------
 A unrestricted SCF calculation will be
 performed using Roothaan-Hall, GDM
 SCF converges when RMS gradient is below 1.0e-08
 ---------------------------------------
  Cycle       Energy         DIIS error
 ---------------------------------------
    1    -875.9590594473      2.81e-04  Roothaan Step
 ---------------------------------------
  Cycle       Energy        RMS Gradient
 ---------------------------------------
    1    -886.2927911784      2.25e-02   Normal BFGS step
    2    -886.2936843012      1.79e-02   Normal BFGS step
    3    -886.2949017780      2.15e-03   Normal BFGS step
    4    -886.2949529192      1.58e-03   Normal BFGS step
    5    -886.2949621905      9.19e-04   Normal BFGS step
    6    -886.2949645783      4.53e-04   Normal BFGS step
    7    -886.2949653045      2.28e-04   Normal BFGS step
[...]
    6      F      -0.4685657048     1.4346792011     1.9179624714
    7      F       1.6731249175     1.6117125251     2.2385297126
 ----------------------------------------------------------------
 Nuclear Repulsion Energy =   376.9510403675 hartrees
 There are       34 alpha and       32 beta electrons
 Discretize the solute cavity surface with Lebedev spheres
	Using 194 Lebedev grid points for each H atom
	Using 194 Lebedev grid points for other atoms
	Atomic van der Waals radii will be scaled by 1.10
 Remove points where switching function is < 1.0e-08
 Keep 810 surface tesserae and discard 548 interior tesserae
 Molecular Surface Area = 153.723 Angst**2
 Applying Cartesian multipole field
    Component          Value
    ---------          -----
     (2,0,0)        1.00000E-11
     (0,2,0)        2.00000E-11
     (0,0,2)       -3.00000E-11
 Nucleus-field energy     =     0.0000000021 hartrees
 Requested basis set is 6-311++G(d)
 There are 49 shells and 162 basis functions
 A cutoff of  1.0D-12 yielded   1017 shell pairs
 There are     11739 function pairs (     12748 Cartesian)
 Smallest overlap matrix eigenvalue = 2.01E-03
 Guess MOs from SCF MO coefficient file
 Reading MOs from coefficient file
 Reading MOs from coefficient file

 -----------------------------------------------------------------------
  General SCF calculation program by
  Eric Jon Sundstrom, Paul Horn, Yuezhi Mao, Dmitri Zuev, Alec White,
  David Stuck, Shaama M.S., Shane Yost, Joonho Lee, David Small,
  Daniel Levine, Susi Lehtola, Hugh Burton, Evgeny Epifanovsky
 -----------------------------------------------------------------------
 Exchange:     0.2220 Hartree-Fock + 1.0000 wB97X-D + LR-HF
 Correlation:  1.0000 wB97X-D
 Using SG-3 standard quadrature grid
 Dispersion:   Grimme D
 using 24 threads for integral computing
 -------------------------------------------------------
 OpenMP Integral computing Module                
 Release: version 1.0, May 2013, Q-Chem Inc. Pittsburgh 
 -------------------------------------------------------
 using 24 threads for integral computing
 -------------------------------------------------------
 OpenMP Integral computing Module                
 Release: version 1.0, May 2013, Q-Chem Inc. Pittsburgh 
 -------------------------------------------------------
 -------------------------------------------------------
 OpenMP BLAS3 based DFT computing Module                
 Release: version 1.0, May 2013, Q-Chem Inc. Pittsburgh 
 -------------------------------------------------------
 A unrestricted SCF calculation will be
 performed using Roothaan-Hall, GDM
 SCF converges when RMS gradient is below 1.0e-08
 ---------------------------------------
  Cycle       Energy         DIIS error
 ---------------------------------------
    1    -876.0335295599      2.79e-04  Roothaan Step
 ---------------------------------------
  Cycle       Energy        RMS Gradient
 ---------------------------------------
    1    -886.2928750913      2.27e-02   Normal BFGS step
    2    -886.2937247625      1.82e-02   Normal BFGS step
    3    -886.2949976043      1.97e-03   Normal BFGS step
    4    -886.2950452992      1.57e-03   Normal BFGS step
    5    -886.2950560248      1.57e-03   Normal BFGS step
    6    -886.2950607256      3.13e-04   Normal BFGS step
    7    -886.2950615665      1.93e-04   Normal BFGS step
    8    -886.2950618151      9.77e-05   Normal BFGS step
    9    -886.2950618648      3.10e-05   Normal BFGS step
   10    -886.2950618705      1.52e-05   Normal BFGS step
   11    -886.2950618717      5.08e-06   Normal BFGS step
   12    -886.2950618720      2.81e-06   Normal BFGS step
   13    -886.2950618721      2.15e-06   Normal BFGS step
   14    -886.2950618721      8.31e-07   Normal BFGS step
   15    -886.2950618721      1.46e-07   Normal BFGS step
   16    -886.2950618721      6.07e-08   Normal BFGS step
   17    -886.2950618721      3.26e-08   Normal BFGS step
   18    -886.2950618721      1.41e-08   Normal BFGS step
   19    -886.2950618721      9.39e-09  Convergence criterion met
 ---------------------------------------
 SCF time:   CPU 478.52s  wall 24.00s 
<S^2> =          2.006736025

************** Final PCM Free Energy Summary **************
 G_electrostatic  =      -0.09233760 hartree =     -57.94272095 kcal/mol
 G_cavitation     =       0.00000000 hartree =       0.00000000 kcal/mol
 G_dispersion     =       0.00000000 hartree =       0.00000000 kcal/mol
 G_repulsion      =       0.00000000 hartree =       0.00000000 kcal/mol
 --------------------------------------------------
 Non-electrostatic Free Energy =       0.00000000 hartree =       0.00000000 kcal/mol
 Total                         =      -0.09233760 hartree =     -57.94272095 kcal/mol
 --------------------------------------------------
 SCF Energy (H0 + V/2)                       =    -886.29506187 
 Solute Internal Energy (H0)                 =    -886.20272427 
 Total Free Energy (H0 + V/2 + non-elec)     =    -886.29506187 hartree
                                             = -556158.54542526 kcal/mol
***********************************************************

 SCF   energy in the final basis set =     -886.2950618721
 Total energy in the final basis set =     -886.2950618721
 
 --------------------------------------------------------------
 
                    Orbital Energies (a.u.)
 --------------------------------------------------------------
 
 Alpha MOs
 -- Occupied --
-89.076 -24.862 -24.862 -24.862 -19.206 -19.205 -10.539  -8.113
 -6.062  -6.060  -6.057  -1.448  -1.361  -1.360  -1.128  -1.040
 -0.816  -0.710  -0.710  -0.680  -0.674  -0.584  -0.584  -0.549
 -0.549  -0.524  -0.499  -0.497  -0.488  -0.393  -0.354  -0.351
 -0.336  -0.233
 -- Virtual --
  0.082   0.091   0.093   0.095   0.121   0.124   0.128   0.180
  0.188   0.197   0.237   0.251   0.257   0.264   0.274   0.280
  0.289   0.305   0.324   0.333   0.344   0.351   0.363   0.381
  0.388   0.402   0.411   0.411   0.423   0.429   0.434   0.456
  0.469   0.500   0.510   0.528   0.652   0.716   0.727   0.812
  0.837   0.852   0.896   0.931   1.092   1.134   1.174   1.188
  1.199   1.214   1.222   1.229   1.266   1.286   1.373   1.392
  1.411   1.481   1.493   1.499   1.513   1.540   1.541   1.581
  1.671   1.683   1.765   1.806   1.869   1.913   1.925   1.939
  1.959   2.127   2.762   2.936   2.944   2.944   2.962   2.981
  3.016   3.025   3.035   3.051   3.173   3.433   3.624   3.778
  3.814   3.814   3.815   3.832   3.836   3.837   3.950   3.951
  4.174   4.291   4.293   4.405   4.977   4.985   5.083   5.118
  5.140   5.156   5.202   5.306   6.336   6.337   6.410   6.419
  6.425   6.428   6.434   6.861   6.868   8.126  17.396  17.472
 17.539  23.590  50.024  50.025  66.859  66.866  66.907 189.359
 
 Beta MOs
 -- Occupied --
-89.072 -24.859 -24.859 -24.859 -19.199 -19.198 -10.524  -8.110
 -6.060  -6.055  -6.048  -1.439  -1.353  -1.352  -1.112  -1.024
 -0.798  -0.700  -0.700  -0.651  -0.637  -0.575  -0.574  -0.541
 -0.540  -0.521  -0.486  -0.478  -0.454  -0.343  -0.336  -0.332
 -- Virtual --
 -0.012   0.022   0.086   0.095   0.097   0.098   0.125   0.127
  0.131   0.184   0.194   0.208   0.241   0.261   0.273   0.275
  0.285   0.291   0.297   0.311   0.330   0.339   0.348   0.355
  0.367   0.383   0.391   0.407   0.412   0.416   0.428   0.431
  0.438   0.460   0.472   0.502   0.511   0.531   0.677   0.722
  0.734   0.834   0.861   0.870   0.919   0.947   1.097   1.140
  1.194   1.203   1.209   1.222   1.232   1.241   1.272   1.302
  1.379   1.400   1.416   1.482   1.503   1.510   1.522   1.555
  1.556   1.626   1.680   1.699   1.793   1.815   1.882   1.921
  1.952   1.956   1.963   2.134   2.819   2.958   2.965   2.967
  2.968   3.005   3.033   3.047   3.056   3.073   3.179   3.445
  3.635   3.782   3.819   3.819   3.820   3.839   3.842   3.843
  3.961   3.962   4.184   4.299   4.301   4.416   4.985   4.994
  5.091   5.144   5.148   5.169   5.227   5.313   6.341   6.343
  6.418   6.425   6.428   6.433   6.441   6.868   6.875   8.130
 17.409  17.474  17.541  23.617  50.029  50.032  66.861  66.868
 66.909 189.362
 --------------------------------------------------------------
 
          Ground-State Mulliken Net Atomic Charges

     Atom                 Charge (a.u.)    Spin (a.u.)
  --------------------------------------------------------
      1 S                     0.279013       0.620097
      2 C                     0.198106       0.854996
      3 O                    -0.594449       0.215173
      4 O                    -0.627440       0.197188
      5 F                    -0.084536       0.037804
      6 F                    -0.085885       0.037893
      7 F                    -0.084810       0.036848
  --------------------------------------------------------
  Sum of atomic charges =    -1.000000
  Sum of spin   charges =     2.000000

 -----------------------------------------------------------------
                    Cartesian Multipole Moments
 -----------------------------------------------------------------
    Charge (ESU x 10^10)
                -4.8032
    Dipole Moment (Debye)
         X      -9.3416      Y       1.8093      Z       0.4602
       Tot       9.5263
    Quadrupole Moments (Debye-Ang)
        XX     -71.5291     XY       1.3340     YY     -51.8586
        XZ       5.8215     YZ       1.3789     ZZ     -52.2439
    Octopole Moments (Debye-Ang^2)
       XXX    -237.1938    XXY     -24.1523    XYY     -60.1035
       YYY     -71.1042    XXZ       4.8041    XYZ       1.6643
       YYZ     -16.7900    XZZ     -67.3674    YZZ     -23.4204
       ZZZ     -43.8107
    Hexadecapole Moments (Debye-Ang^3)
      XXXX    -852.9385   XXXY     -28.0898   XXYY    -208.4563
      XYYY     -27.1526   YYYY    -596.1103   XXXZ     101.1633
      XXYZ     -58.6815   XYYZ       8.2257   YYYZ    -170.1855
      XXZZ    -228.3197   XYZZ      -9.8788   YYZZ    -181.3736
      XZZZ      40.6122   YZZZ    -178.8429   ZZZZ    -519.6261
 -----------------------------------------------------------------
 Calculating analytic gradient of the SCF energy
 Gradient of SCF Energy
            1           2           3           4           5           6
    1   0.0038822  -0.0049444   0.0040740  -0.0062299   0.0004082   0.0207934
    2  -0.0043410   0.0215063   0.0011430  -0.0021986  -0.0179016   0.0029387
    3  -0.0020110   0.0209789  -0.0057654   0.0043158   0.0108476  -0.0103893
            7
    1  -0.0179836
    2  -0.0011468
    3  -0.0179767
 Max gradient component =       2.151E-02
 RMS gradient           =       1.137E-02
 Computing fast CPCM-SWIG gradient
 Updating gradient with PCM contributions...
 -- total gradient after adding PCM contribution --
---------------------------------------------------
  Atom         X              Y              Z     
---------------------------------------------------
   1      -0.000048      -0.000034       0.000041
   2       0.000036       0.000024       0.000006
   3      -0.000017       0.000014      -0.000039
   4       0.000023       0.000029      -0.000026
   5      -0.000010       0.000003       0.000027
   6       0.000011      -0.000044      -0.000007
   7       0.000005       0.000007      -0.000002
---------------------------------------------------
 Number of fixed atoms: 0
 Gradient time:  CPU 39.22 s  wall 2.73 s
 Geometry Optimization Parameters
   NAtoms,    NIC,     NZ,  NCons,   NDum,   NFix, NCnnct, MaxDiis
        7      60       0       0       0       0       0       0

 Cartesian Hessian Update
 Hessian Updated using BFGS Update


** GEOMETRY OPTIMIZATION IN DELOCALIZED INTERNAL COORDINATES **
   Searching for a Minimum

   Optimization Cycle:  20

                       Coordinates (Angstroms)
     ATOM                X               Y               Z
      1  S         1.3563405601   -0.6054543534   -0.9883628508
      2  C         0.7048165639    1.6193064964    1.3409686817
      3  O         1.0029328672   -1.0792612323    0.4222167559
      4  O         2.7663159274   -0.0286869222   -1.0763073072
      5  F         0.7126849654    2.7556643323    0.6609855254
      6  F        -0.4685657048    1.4346792011    1.9179624714
      7  F         1.6731249175    1.6117125251    2.2385297126
   Point Group: c1    Number of degrees of freedom:    15


   Energy is   -886.295061872

 Hessian Updated using BFGS Update

 15 Hessian modes will be used to form the next step
  Hessian Eigenvalues:
     0.000349    0.002180    0.003719    0.012786    0.060383    0.076429
     0.092466    0.192289    0.215897    0.235929    0.437365    0.447379
     0.614872    0.617890    0.620309

 Minimum Search - Taking Simple RFO Step
 Searching for Lamda that Minimizes Along All modes
 Value Taken    Lamda =   0.00000000
 Step Taken.  Stepsize is  0.008906

                             Maximum     Tolerance    Cnvgd?
         Gradient           0.000056      0.000300     YES
         Displacement       0.004682      0.001200      NO
         Energy change     -0.000000      0.000001     YES


                       Distance Matrix (Angstroms)
             S (  1)   C (  2)   O (  3)   O (  4)   F (  5)   F (  6)
   C (  2)  3.286309
   O (  3)  1.529420  2.866225
   O (  4)  1.525918  3.578950  2.541417
   F (  5)  3.798916  1.324292  3.853298  3.871459
   F (  6)  3.992387  1.320543  3.274517  4.644518  2.172636
   F (  7)  3.927979  1.320339  3.315040  3.856698  2.172491  2.172773

 
 Final energy is   -886.295061872076     


 ******************************
 **  OPTIMIZATION CONVERGED  **
 ******************************

                       Coordinates (Angstroms)
     ATOM                X               Y               Z
      1  S         1.3563405601   -0.6054543534   -0.9883628508
      2  C         0.7048165639    1.6193064964    1.3409686817
      3  O         1.0029328672   -1.0792612323    0.4222167559
      4  O         2.7663159274   -0.0286869222   -1.0763073072
      5  F         0.7126849654    2.7556643323    0.6609855254
      6  F        -0.4685657048    1.4346792011    1.9179624714
      7  F         1.6731249175    1.6117125251    2.2385297126

Z-matrix Print:
$molecule
-1 3
S 
O  1 1.525918
O  1 1.529420 2 112.567259
C  3 2.866225 1 91.604320 2 74.154782 0
F  4 1.320339 3 97.828641 1 -117.383466 0
F  4 1.320543 3 95.787732 1 130.721090 0
F  4 1.324292 3 129.992449 1 7.785826 0
$end

 
 --------------------------------------------------------------
 
                    Orbital Energies (a.u.)
 --------------------------------------------------------------
 
 Alpha MOs
 -- Occupied --
-89.076 -24.862 -24.862 -24.862 -19.206 -19.205 -10.539  -8.113
 -6.062  -6.060  -6.057  -1.448  -1.361  -1.360  -1.128  -1.040
 -0.816  -0.710  -0.710  -0.680  -0.674  -0.584  -0.584  -0.549
 -0.549  -0.524  -0.499  -0.497  -0.488  -0.393  -0.354  -0.351
 -0.336  -0.233
 -- Virtual --
  0.082   0.091   0.093   0.095   0.121   0.124   0.128   0.180
  0.188   0.197   0.237   0.251   0.257   0.264   0.274   0.280
  0.289   0.305   0.324   0.333   0.344   0.351   0.363   0.381
  0.388   0.402   0.411   0.411   0.423   0.429   0.434   0.456
  0.469   0.500   0.510   0.528   0.652   0.716   0.727   0.812
  0.837   0.852   0.896   0.931   1.092   1.134   1.174   1.188
  1.199   1.214   1.222   1.229   1.266   1.286   1.373   1.392
  1.411   1.481   1.493   1.499   1.513   1.540   1.541   1.581
  1.671   1.683   1.765   1.806   1.869   1.913   1.925   1.939
  1.959   2.127   2.762   2.936   2.944   2.944   2.962   2.981
  3.016   3.025   3.035   3.051   3.173   3.433   3.624   3.778
  3.814   3.814   3.815   3.832   3.836   3.837   3.950   3.951
  4.174   4.291   4.293   4.405   4.977   4.985   5.083   5.118
  5.140   5.156   5.202   5.306   6.336   6.337   6.410   6.419
  6.425   6.428   6.434   6.861   6.868   8.126  17.396  17.472
 17.539  23.590  50.024  50.025  66.859  66.866  66.907 189.359
 
 Beta MOs
 -- Occupied --
-89.072 -24.859 -24.859 -24.859 -19.199 -19.198 -10.524  -8.110
 -6.060  -6.055  -6.048  -1.439  -1.353  -1.352  -1.112  -1.024
 -0.798  -0.700  -0.700  -0.651  -0.637  -0.575  -0.574  -0.541
 -0.540  -0.521  -0.486  -0.478  -0.454  -0.343  -0.336  -0.332
 -- Virtual --
 -0.012   0.022   0.086   0.095   0.097   0.098   0.125   0.127
  0.131   0.184   0.194   0.208   0.241   0.261   0.273   0.275
  0.285   0.291   0.297   0.311   0.330   0.339   0.348   0.355
  0.367   0.383   0.391   0.407   0.412   0.416   0.428   0.431
  0.438   0.460   0.472   0.502   0.511   0.531   0.677   0.722
  0.734   0.834   0.861   0.870   0.919   0.947   1.097   1.140
  1.194   1.203   1.209   1.222   1.232   1.241   1.272   1.302
  1.379   1.400   1.416   1.482   1.503   1.510   1.522   1.555
  1.556   1.626   1.680   1.699   1.793   1.815   1.882   1.921
  1.952   1.956   1.963   2.134   2.819   2.958   2.965   2.967
  2.968   3.005   3.033   3.047   3.056   3.073   3.179   3.445
  3.635   3.782   3.819   3.819   3.820   3.839   3.842   3.843
  3.961   3.962   4.184   4.299   4.301   4.416   4.985   4.994
  5.091   5.144   5.148   5.169   5.227   5.313   6.341   6.343
  6.418   6.425   6.428   6.433   6.441   6.868   6.875   8.130
 17.409  17.474  17.541  23.617  50.029  50.032  66.861  66.868
 66.909 189.362
 --------------------------------------------------------------
 
          Ground-State Mulliken Net Atomic Charges

     Atom                 Charge (a.u.)    Spin (a.u.)
  --------------------------------------------------------
      1 S                     0.279013       0.620097
      2 C                     0.198106       0.854996
      3 O                    -0.594449       0.215173
      4 O                    -0.627440       0.197188
      5 F                    -0.084536       0.037804
      6 F                    -0.085885       0.037893
      7 F                    -0.084810       0.036848
  --------------------------------------------------------
  Sum of atomic charges =    -1.000000
  Sum of spin   charges =     2.000000

 -----------------------------------------------------------------
                    Cartesian Multipole Moments
 -----------------------------------------------------------------
    Charge (ESU x 10^10)
                -4.8032
    Dipole Moment (Debye)
         X      -9.3416      Y       1.8093      Z       0.4602
       Tot       9.5263
    Quadrupole Moments (Debye-Ang)
        XX     -71.5291     XY       1.3340     YY     -51.8586
        XZ       5.8215     YZ       1.3789     ZZ     -52.2439
    Octopole Moments (Debye-Ang^2)
       XXX    -237.1938    XXY     -24.1523    XYY     -60.1035
       YYY     -71.1042    XXZ       4.8041    XYZ       1.6643
       YYZ     -16.7900    XZZ     -67.3674    YZZ     -23.4204
       ZZZ     -43.8107
    Hexadecapole Moments (Debye-Ang^3)
      XXXX    -852.9385   XXXY     -28.0898   XXYY    -208.4563
      XYYY     -27.1526   YYYY    -596.1103   XXXZ     101.1633
      XXYZ     -58.6815   XYYZ       8.2257   YYYZ    -170.1855
      XXZZ    -228.3197   XYZZ      -9.8788   YYZZ    -181.3736
      XZZZ      40.6122   YZZZ    -178.8429   ZZZZ    -519.6261
 -----------------------------------------------------------------
Archival summary:
1\1\nid04092\OPT\ProcedureUnspecified\BasisUnspecified\1321(1-,3)\sblau\TueNov1319:30:052018TueNov1319:30:052018\0\\#,OPT,ProcedureUnspecified,BasisUnspecified,\\-1,3\S\O,1,1.52592\O,1,1.52942,2,112.567\C,3,2.86623,1,91.6043,2,74.1548,0\F,4,1.32034,3,97.8286,1,-117.383,0\F,4,1.32054,3,95.7877,1,130.721,0\F,4,1.32429,3,129.992,1,7.78583,0\\\@

 Total job time:  566.29s(wall), 10976.60s(cpu) 
 Tue Nov 13 19:30:05 2018

        *************************************************************
        *                                                           *
        *  Thank you very much for using Q-Chem.  Have a nice day.  *
        *                                                           *
        *************************************************************


