
Running Job 1 of 1 mol.qin
qchem mol.qin_46972.0 /tmp/qchem46972/ 1
/global/common/edison/software/qchem/5.1/exe/qcprog.exe mol.qin_46972.0 /tmp/qchem46972/
Check license passed

                  Welcome to Q-Chem
     A Quantum Leap Into The Future Of Chemistry


 Q-Chem 5.1, Q-Chem, Inc., Pleasanton, CA (2018)

 Yihan Shao,  Zhengting Gan,  E. Epifanovsky,  A. T. B. Gilbert,  M. Wormit,  
 J. Kussmann,  A. W. Lange,  A. Behn,  Jia Deng,  Xintian Feng,  D. Ghosh,  
 M. Goldey,  P. R. Horn,  L. D. Jacobson,  I. Kaliman,  T. Kus,  A. Landau,  
 Jie Liu,  E. I. Proynov,  R. M. Richard,  R. P. Steele,  E. J. Sundstrom,  
 H. L. Woodcock III,  P. M. Zimmerman,  D. Zuev,  B. Albrecht,  E. Alguire,  
 S. A. Baeppler,  D. Barton,  Z. Benda,  Y. A. Bernard,  E. J. Berquist,  
 K. B. Bravaya,  H. Burton,  D. Casanova,  Chun-Min Chang,  Yunqing Chen,  
 A. Chien,  K. D. Closser,  M. P. Coons,  S. Coriani,  S. Dasgupta,  
 A. L. Dempwolff,  M. Diedenhofen,  Hainam Do,  R. G. Edgar,  Po-Tung Fang,  
 S. Faraji,  S. Fatehi,  Qingguo Feng,  K. D. Fenk,  J. Fosso-Tande,  
 Qinghui Ge,  A. Ghysels,  G. Gidofalvi,  J. Gomes,  J. Gonthier,  A. Gunina,  
 D. Hait,  M. W. D. Hanson-Heine,  P. H. P. Harbach,  A. W. Hauser,  
 J. E. Herr,  E. G. Hohenstein,  Z. C. Holden,  Kerwin Hui,  B. C. Huynh,  
 T.-C. Jagau,  Hyunjun Ji,  B. Kaduk,  K. Khistyaev,  Jaehoon Kim,  
 P. Klunzinger,  K. Koh,  D. Kosenkov,  L. Koulias,  T. Kowalczyk,  
 C. M. Krauter,  A. Kunitsa,  Ka Un Lao,  A. Laurent,  K. V. Lawler,  
 Joonho Lee,  D. Lefrancois,  S. Lehtola,  D. S. Levine,  Yi-Pei Li,  
 You-Sheng Lin,  Fenglai Liu,  E. Livshits,  A. Luenser,  P. Manohar,  
 E. Mansoor,  S. F. Manzer,  Shan-Ping Mao,  Yuezhi Mao,  N. Mardirossian,  
 A. V. Marenich,  T. Markovich,  L. A. Martinez-Martinez,  S. A. Maurer,  
 N. J. Mayhall,  S. C. McKenzie,  J.-M. Mewes,  A. F. Morrison,  
 J. W. Mullinax,  K. Nanda,  T. S. Nguyen-Beck,  R. Olivares-Amaya,  
 J. A. Parkhill,  T. M. Perrine,  F. Plasser,  P. Pokhilko,  S. Prager,  
 A. Prociuk,  E. Ramos,  D. R. Rehn,  F. Rob,  M. Schneider,  N. Sergueev,  
 S. M. Sharada,  S. Sharma,  D. W. Small,  T. Stauch,  T. Stein,  
 Yu-Chuan Su,  A. J. W. Thom,  A. Tkatchenko,  T. Tsuchimochi,  N. M. Tubman,  
 L. Vogt,  M. L. Vidal,  O. Vydrov,  M. A. Watson,  J. Wenzel,  
 M. de Wergifosse,  T. A. Wesolowski,  A. White,  J. Witte,  A. Yamada,  
 Jun Yang,  K. Yao,  S. Yeganeh,  S. R. Yost,  Zhi-Qiang You,  A. Zech,  
 Igor Ying Zhang,  Xing Zhang,  Yan Zhao,  Ying Zhu,  B. R. Brooks,  
 G. K. L. Chan,  C. J. Cramer,  M. S. Gordon,  W. J. Hehre,  A. Klamt,  
 M. W. Schmidt,  C. D. Sherrill,  D. G. Truhlar,  A. Aspuru-Guzik,  R. Baer,  
 A. T. Bell,  N. A. Besley,  Jeng-Da Chai,  R. A. DiStasio Jr.,  A. Dreuw,  
 B. D. Dunietz,  T. R. Furlani,  Chao-Ping Hsu,  Yousung Jung,  Jing Kong,  
 D. S. Lambrecht,  WanZhen Liang,  C. Ochsenfeld,  V. A. Rassolov,  
 L. V. Slipchenko,  J. E. Subotnik,  T. Van Voorhis,  J. M. Herbert,  
 A. I. Krylov,  P. M. W. Gill,  M. Head-Gordon

 Contributors to earlier versions of Q-Chem not listed above: 
 R. D. Adamson,  B. Austin,  J. Baker,  G. J. O. Beran,  K. Brandhorst,  
 S. T. Brown,  E. F. C. Byrd,  A. K. Chakraborty,  C.-L. Cheng,  
 Siu Hung Chien,  D. M. Chipman,  D. L. Crittenden,  H. Dachsel,  
 R. J. Doerksen,  A. D. Dutoi,  L. Fusti-Molnar,  W. A. Goddard III,  
 A. Golubeva-Zadorozhnaya,  S. R. Gwaltney,  G. Hawkins,  A. Heyden,  
 S. Hirata,  G. Kedziora,  F. J. Keil,  C. Kelley,  Jihan Kim,  R. A. King,  
 R. Z. Khaliullin,  P. P. Korambath,  W. Kurlancheek,  A. M. Lee,  M. S. Lee,  
 S. V. Levchenko,  Ching Yeh Lin,  D. Liotard,  R. C. Lochan,  I. Lotan,  
 P. E. Maslen,  N. Nair,  D. P. O'Neill,  D. Neuhauser,  E. Neuscamman,  
 C. M. Oana,  R. Olson,  B. Peters,  R. Peverati,  P. A. Pieniazek,  
 Y. M. Rhee,  J. Ritchie,  M. A. Rohrdanz,  E. Rosta,  N. J. Russ,  
 H. F. Schaefer III,  N. E. Schultz,  N. Shenvi,  A. C. Simmonett,  A. Sodt,  
 D. Stuck,  K. S. Thanthiriwatte,  V. Vanovschi,  Tao Wang,  A. Warshel,  
 C. F. Williams,  Q. Wu,  X. Xu,  W. Zhang

 Please cite Q-Chem as follows:
 Y. Shao et al., Mol. Phys. 113, 184-215 (2015)
 DOI: 10.1080/00268976.2014.952696

 Q-Chem 5.1.0 for Intel X86 EM64T Linux

 Parts of Q-Chem use Armadillo 8.300.2 (Tropical Shenanigans).
 http://arma.sourceforge.net/

 Q-Chem begins on Tue Nov 13 19:37:45 2018  

Host: edison03
0

     Scratch files written to /tmp/qchem46972//
 Jun2518 |scratch|qcdevops|jenkins|workspace|build_RNUM -1
Processing $rem in /global/common/edison/software/qchem/5.1/config/preferences.
 MEM_TOTAL  48000 
Symmetry turned off for PCM/SM12/SMD calculation

Checking the input file for inconsistencies... 	...done.

--------------------------------------------------------------
User input:
--------------------------------------------------------------
$molecule
-1 3
S      1.3646206188     -0.5897013915     -1.0052055543
C      0.6622528382      1.6338437335      1.3787906116
O      1.0436577853     -0.9798350930      0.4434608194
O      2.8708571595     -0.2655549844     -1.2212702349
F      0.6635376757      2.7707646382      0.6968865129
F     -0.5039862309      1.4565788911      1.9746264829
F      1.6432134260      1.6273137965      2.2633910128
$end

$rem
job_type = opt
basis = 6-311++g*
max_scf_cycles = 200
gen_scfman = true
scf_algorithm = gdm
method = wb97xd
geom_opt_max_cycles = 200
solvent_method = pcm
xc_grid = 3
$end

$pcm
heavypoints 194
hpoints 194
radii uff
theory cpcm
vdwscale 1.1
$end

$solvent
dielectric 30.0
$end
--------------------------------------------------------------
 ----------------------------------------------------------------
             Standard Nuclear Orientation (Angstroms)
    I     Atom           X                Y                Z
 ----------------------------------------------------------------
    1      S       1.3646206188    -0.5897013915    -1.0052055543
    2      C       0.6622528382     1.6338437335     1.3787906116
    3      O       1.0436577853    -0.9798350930     0.4434608194
    4      O       2.8708571595    -0.2655549844    -1.2212702349
    5      F       0.6635376757     2.7707646382     0.6968865129
    6      F      -0.5039862309     1.4565788911     1.9746264829
    7      F       1.6432134260     1.6273137965     2.2633910128
 ----------------------------------------------------------------
 Nuclear Repulsion Energy =   372.9177671943 hartrees
 There are       34 alpha and       32 beta electrons
 Requested basis set is 6-311++G(d)
 There are 49 shells and 162 basis functions

 Total QAlloc Memory Limit  48000 MB
 Mega-Array Size       188 MB
 MEM_STATIC part       192 MB
 Discretize the solute cavity surface with Lebedev spheres
	Using 194 Lebedev grid points for each H atom
	Using 194 Lebedev grid points for other atoms
	Atomic van der Waals radii will be scaled by 1.10
 Remove points where switching function is < 1.0e-08
 Keep 814 surface tesserae and discard 544 interior tesserae
 Molecular Surface Area = 154.891 Angst**2
 A cutoff of  1.0D-12 yielded   1013 shell pairs
 There are     11686 function pairs (     12694 Cartesian)
 
 -------------------------------------------------------
 OpenMP Integral Computing Module                       
 Release: version 1.0, May 2013, Q-Chem Inc. Pittsburgh 
 -------------------------------------------------------
 Integral Job Info:
 Integral job number is                      11
 Integral operator is                         1
 short-range coefficients              22203600
 long-range coefficients              100000000
 Omega coefficients                         200
 if combine SR and LR in K                    1
 Integral screening is                        0
 Integral computing path is                   2
 max size of driver memory is            800000
 size of driver memory is                593474
 size of scratch memory is              4293864
 max col of scratch BK array               1296
 max len of scratch array in speh3          155
 max len of scratch index in speh4           18
 max int batch size is                      520
 min int batch size is                       52
 fixed nKL is                                52
 max L of basis functions is                  2
 order of int derivative is                   0
 number of shells is                         49
 number of basis is                         169
 number of cartesian basis is               169
 number of contracted shell pairs          1013
 number of primitive shell pairs           2997
 maxK2 (contraction) of shell pair           36
 max number of K2 of shell pair               1
 max number of CS2 of shell pair            190
 max number of PS2 of shell pair            708
 mem total for path MDJ                  531148
 -------------------------------------------------------
 Smallest overlap matrix eigenvalue = 2.04E-03

 Scale SEOQF with 1.000000e-01/1.000000e-01/1.000000e-01

 Standard Electronic Orientation quadrupole field applied
 Nucleus-field energy     =     0.0000000015 hartrees
 Guess from superposition of atomic densities
 Warning:  Energy on first SCF cycle will be non-variational
 SAD guess density has 65.000000 electrons

 -----------------------------------------------------------------------
  General SCF calculation program by
  Eric Jon Sundstrom, Paul Horn, Yuezhi Mao, Dmitri Zuev, Alec White,
  David Stuck, Shaama M.S., Shane Yost, Joonho Lee, David Small,
  Daniel Levine, Susi Lehtola, Hugh Burton, Evgeny Epifanovsky
 -----------------------------------------------------------------------
 Exchange:     0.2220 Hartree-Fock + 1.0000 wB97X-D + LR-HF
 Correlation:  1.0000 wB97X-D
 Using SG-3 standard quadrature grid
 Dispersion:   Grimme D
 using 24 threads for integral computing
 -------------------------------------------------------
 OpenMP Integral computing Module                
 Release: version 1.0, May 2013, Q-Chem Inc. Pittsburgh 
 -------------------------------------------------------
 using 24 threads for integral computing
 -------------------------------------------------------
 OpenMP Integral computing Module                
 Release: version 1.0, May 2013, Q-Chem Inc. Pittsburgh 
 -------------------------------------------------------
 -------------------------------------------------------
 OpenMP BLAS3 based DFT computing Module                
 Release: version 1.0, May 2013, Q-Chem Inc. Pittsburgh 
 -------------------------------------------------------
 A unrestricted SCF calculation will be
 performed using Roothaan-Hall, GDM
 SCF converges when RMS gradient is below 1.0e-08
 ---------------------------------------
  Cycle       Energy         DIIS error
 ---------------------------------------
    1    -886.8699643260      2.20e-02  Roothaan Step
 ---------------------------------------
  Cycle       Energy        RMS Gradient
 ---------------------------------------
    1    -886.0315225722      2.42e-01   Descent step
    2    -886.2591522141      5.20e-02   Normal BFGS step
    3    -886.2898689499      3.12e-02   Normal BFGS step
    4    -886.2929113709      1.64e-02   Normal BFGS step
    5    -886.2941229433      6.17e-03   Normal BFGS step
    6    -886.2942360117      6.38e-03   Normal BFGS step
    7    -886.2943180630      1.45e-03   Normal BFGS step
    8    -886.2943320793      4.37e-04   Normal BFGS step
    9    -886.2943349361      1.75e-04   Normal BFGS step
   10    -886.2943350741      7.77e-05   Normal BFGS step
   11    -886.2943351067      2.37e-05   Normal BFGS step
   12    -886.2943351109      1.49e-05   Normal BFGS step
   13    -886.2943351135      8.34e-06   Normal BFGS step
   14    -886.2943351139      2.99e-06   Normal BFGS step
   15    -886.2943351140      1.15e-06   Normal BFGS step
   16    -886.2943351140      5.06e-07   Normal BFGS step
   17    -886.2943351140      1.96e-07   Normal BFGS step
   18    -886.2943351140      8.18e-08   Normal BFGS step
   19    -886.2943351140      5.90e-08   Normal BFGS step
   20    -886.2943351140      1.48e-08   Normal BFGS step
   21    -886.2943351140      8.29e-09  Convergence criterion met
 ---------------------------------------
 SCF time:   CPU 568.86s  wall 29.00s 
<S^2> =          2.006954598

************** Final PCM Free Energy Summary **************
 G_electrostatic  =      -0.09229287 hartree =     -57.91464743 kcal/mol
 G_cavitation     =       0.00000000 hartree =       0.00000000 kcal/mol
 G_dispersion     =       0.00000000 hartree =       0.00000000 kcal/mol
 G_repulsion      =       0.00000000 hartree =       0.00000000 kcal/mol
 --------------------------------------------------
 Non-electrostatic Free Energy =       0.00000000 hartree =       0.00000000 kcal/mol
 Total                         =      -0.09229287 hartree =     -57.91464743 kcal/mol
 --------------------------------------------------
 SCF Energy (H0 + V/2)                       =    -886.29433511 
 Solute Internal Energy (H0)                 =    -886.20204225 
 Total Free Energy (H0 + V/2 + non-elec)     =    -886.29433511 hartree
                                             = -556158.08937767 kcal/mol
***********************************************************

 SCF   energy in the final basis set =     -886.2943351140
 Total energy in the final basis set =     -886.2943351140
 
 --------------------------------------------------------------
 
                    Orbital Energies (a.u.)
 --------------------------------------------------------------
 
 Alpha MOs
 -- Occupied --
-89.079 -24.862 -24.862 -24.861 -19.210 -19.206 -10.538  -8.115
 -6.065  -6.063  -6.059  -1.447  -1.360  -1.359  -1.121  -1.036
 -0.815  -0.709  -0.709  -0.684  -0.673  -0.584  -0.583  -0.548
 -0.548  -0.523  -0.497  -0.496  -0.485  -0.394  -0.352  -0.350
 -0.337  -0.238
 -- Virtual --
  0.082   0.091   0.092   0.095   0.122   0.124   0.128   0.177
  0.184   0.189   0.239   0.251   0.256   0.264   0.270   0.279
  0.286   0.310   0.322   0.337   0.340   0.348   0.367   0.381
  0.387   0.402   0.409   0.411   0.423   0.431   0.436   0.453
  0.456   0.498   0.510   0.523   0.665   0.710   0.718   0.817
  0.831   0.848   0.880   0.931   1.091   1.143   1.162   1.188
  1.194   1.213   1.217   1.228   1.263   1.293   1.361   1.387
  1.410   1.480   1.494   1.501   1.515   1.539   1.544   1.581
  1.667   1.682   1.759   1.807   1.866   1.912   1.925   1.940
  1.956   2.129   2.761   2.937   2.944   2.947   2.962   2.984
  3.014   3.016   3.033   3.047   3.157   3.413   3.602   3.779
  3.815   3.815   3.816   3.833   3.837   3.838   3.949   3.950
  4.175   4.290   4.292   4.407   4.975   4.984   5.079   5.122
  5.133   5.153   5.201   5.296   6.335   6.338   6.411   6.417
  6.426   6.427   6.435   6.859   6.866   8.101  17.394  17.460
 17.527  23.590  50.017  50.022  66.860  66.865  66.907 189.333
 
 Beta MOs
 -- Occupied --
-89.075 -24.859 -24.859 -24.858 -19.203 -19.199 -10.523  -8.112
 -6.062  -6.057  -6.051  -1.438  -1.352  -1.351  -1.105  -1.019
 -0.798  -0.699  -0.699  -0.656  -0.636  -0.574  -0.573  -0.540
 -0.540  -0.520  -0.485  -0.476  -0.450  -0.343  -0.334  -0.333
 -- Virtual --
 -0.011   0.017   0.086   0.094   0.096   0.098   0.126   0.128
  0.131   0.181   0.190   0.200   0.242   0.262   0.267   0.276
  0.283   0.290   0.294   0.317   0.329   0.342   0.345   0.351
  0.371   0.383   0.390   0.407   0.411   0.416   0.428   0.433
  0.439   0.457   0.460   0.500   0.511   0.527   0.688   0.716
  0.727   0.838   0.857   0.864   0.907   0.943   1.096   1.150
  1.182   1.201   1.205   1.221   1.228   1.241   1.268   1.310
  1.368   1.396   1.415   1.482   1.504   1.512   1.523   1.554
  1.559   1.627   1.678   1.695   1.787   1.815   1.879   1.921
  1.951   1.957   1.961   2.135   2.818   2.959   2.965   2.967
  2.969   3.007   3.031   3.039   3.054   3.070   3.163   3.425
  3.613   3.782   3.820   3.820   3.821   3.840   3.843   3.844
  3.960   3.961   4.185   4.297   4.299   4.418   4.983   4.992
  5.087   5.140   5.148   5.166   5.228   5.304   6.341   6.344
  6.418   6.423   6.428   6.432   6.442   6.866   6.873   8.104
 17.406  17.462  17.529  23.616  50.024  50.028  66.862  66.867
 66.910 189.336
 --------------------------------------------------------------
 
          Ground-State Mulliken Net Atomic Charges

     Atom                 Charge (a.u.)    Spin (a.u.)
  --------------------------------------------------------
      1 S                     0.288669       0.615909
      2 C                     0.205375       0.852688
      3 O                    -0.585307       0.218695
      4 O                    -0.645801       0.200467
      5 F                    -0.086768       0.038236
      6 F                    -0.089682       0.037198
      7 F                    -0.086486       0.036807
  --------------------------------------------------------
  Sum of atomic charges =    -1.000000
  Sum of spin   charges =     2.000000

 -----------------------------------------------------------------
                    Cartesian Multipole Moments
 -----------------------------------------------------------------
    Charge (ESU x 10^10)
                -4.8032
    Dipole Moment (Debye)
         X      -9.8886      Y       2.1173      Z       0.8252
       Tot      10.1464
    Quadrupole Moments (Debye-Ang)
        XX     -74.1438     XY       3.3979     YY     -51.4657
        XZ       7.5352     YZ       0.3313     ZZ     -53.4132
    Octopole Moments (Debye-Ang^2)
       XXX    -248.5633    XXY     -16.8335    XYY     -60.3418
       YYY     -71.9052    XXZ      11.3737    XYZ      -0.9769
       YYZ     -16.4143    XZZ     -71.4081    YZZ     -22.4521
       ZZZ     -41.5944
    Hexadecapole Moments (Debye-Ang^3)
      XXXX    -915.6086   XXXY       9.3316   XXYY    -214.4824
      XYYY     -12.3741   YYYY    -596.0681   XXXZ     137.3486
      XXYZ     -71.0783   XYYZ      13.4090   YYYZ    -183.1158
      XXZZ    -250.3627   XYZZ      -1.5409   YYZZ    -187.1829
      XZZZ      60.8221   YZZZ    -192.5146   ZZZZ    -554.8393
 -----------------------------------------------------------------
 Calculating analytic gradient of the SCF energy
 Gradient of SCF Energy
            1           2           3           4           5           6
    1  -0.0151060  -0.0048386   0.0028792   0.0141620   0.0002485   0.0199180
    2  -0.0077897   0.0208291  -0.0009592   0.0028085  -0.0166589   0.0025830
    3  -0.0029003   0.0207698  -0.0023653   0.0012582   0.0104596  -0.0103829
            7
    1  -0.0172631
    2  -0.0008129
    3  -0.0168392
 Max gradient component =       2.083E-02
 RMS gradient           =       1.173E-02
 Computing fast CPCM-SWIG gradient
 Updating gradient with PCM contributions...
 -- total gradient after adding PCM contribution --
---------------------------------------------------
  Atom         X              Y              Z     
---------------------------------------------------
   1      -0.019496      -0.003519      -0.000863
   2      -0.000010      -0.000538       0.000117
   3      -0.001789      -0.001084       0.004499
   4       0.021416       0.004759      -0.003855
   5       0.000021       0.000235      -0.000273
   6      -0.000440       0.000151       0.000246
   7       0.000298      -0.000005       0.000129
---------------------------------------------------
 Number of fixed atoms: 0
 Gradient time:  CPU 40.70 s  wall 2.88 s
 Geometry Optimization Parameters
   NAtoms,    NIC,     NZ,  NCons,   NDum,   NFix, NCnnct, MaxDiis
        7      32       0       0       0       0       0       0


** GEOMETRY OPTIMIZATION IN DELOCALIZED INTERNAL COORDINATES **
   Searching for a Minimum

   Optimization Cycle:   1

                       Coordinates (Angstroms)
     ATOM                X               Y               Z
      1  S         1.3646206188   -0.5897013915   -1.0052055543
      2  C         0.6622528382    1.6338437335    1.3787906116
      3  O         1.0436577853   -0.9798350930    0.4434608194
      4  O         2.8708571595   -0.2655549844   -1.2212702349
      5  F         0.6635376757    2.7707646382    0.6968865129
      6  F        -0.5039862309    1.4565788911    1.9746264829
      7  F         1.6432134260    1.6273137965    2.2633910128
   Point Group: c1    Number of degrees of freedom:    15


   Energy is   -886.294335114


 Attempting to Generate Delocalized Internal Coordinates

 15 Hessian modes will be used to form the next step
  Hessian Eigenvalues:
     0.002000    0.023236    0.027495    0.120505    0.172771    0.250000
     0.250000    0.250000    0.250000    0.250000    0.605235    0.608125
     0.615410    0.617014    0.663729

 Minimum Search - Taking Simple RFO Step
 Searching for Lamda that Minimizes Along All modes
 Value Taken    Lamda =  -0.00088332
 Step Taken.  Stepsize is  0.055571

                             Maximum     Tolerance    Cnvgd?
         Gradient           0.013685      0.000300      NO
         Displacement       0.041897      0.001200      NO
         Energy change     *********      0.000001      NO


 New Cartesian Coordinates Obtained by Inverse Iteration

 Displacement from previous Coordinates is:  0.074762
 ----------------------------------------------------------------
             Standard Nuclear Orientation (Angstroms)
    I     Atom           X                Y                Z
 ----------------------------------------------------------------
    1      S       1.3621750872    -0.5914294246    -1.0024420947
    2      C       0.6676591465     1.6330201834     1.3766174248
    3      O       1.0603585431    -0.9816372017     0.4459823658
    4      O       2.8463456717    -0.2568923689    -1.2169692988
    5      F       0.6748347785     2.7704255205     0.6961522101
    6      F      -0.5047641808     1.4528437513     1.9583693282
    7      F       1.6375442264     1.6270791304     2.2729697150
 ----------------------------------------------------------------
 Nuclear Repulsion Energy =   373.9950743187 hartrees
 There are       34 alpha and       32 beta electrons
 Discretize the solute cavity surface with Lebedev spheres
	Using 194 Lebedev grid points for each H atom
	Using 194 Lebedev grid points for other atoms
	Atomic van der Waals radii will be scaled by 1.10
 Remove points where switching function is < 1.0e-08
 Keep 810 surface tesserae and discard 548 interior tesserae
 Molecular Surface Area = 154.553 Angst**2
 Applying Cartesian multipole field
    Component          Value
    ---------          -----
     (2,0,0)        1.00000E-11
     (0,2,0)        2.00000E-11
     (0,0,2)       -3.00000E-11
 Nucleus-field energy     =     0.0000000015 hartrees
 Requested basis set is 6-311++G(d)
 There are 49 shells and 162 basis functions
 A cutoff of  1.0D-12 yielded   1013 shell pairs
 There are     11686 function pairs (     12694 Cartesian)
 Smallest overlap matrix eigenvalue = 2.03E-03
 Guess MOs from SCF MO coefficient file
 Reading MOs from coefficient file
 Reading MOs from coefficient file

 -----------------------------------------------------------------------
  General SCF calculation program by
  Eric Jon Sundstrom, Paul Horn, Yuezhi Mao, Dmitri Zuev, Alec White,
  David Stuck, Shaama M.S., Shane Yost, Joonho Lee, David Small,
  Daniel Levine, Susi Lehtola, Hugh Burton, Evgeny Epifanovsky
 -----------------------------------------------------------------------
 Exchange:     0.2220 Hartree-Fock + 1.0000 wB97X-D + LR-HF
 Correlation:  1.0000 wB97X-D
 Using SG-3 standard quadrature grid
 Dispersion:   Grimme D
 using 24 threads for integral computing
 -------------------------------------------------------
 OpenMP Integral computing Module                
 Release: version 1.0, May 2013, Q-Chem Inc. Pittsburgh 
 -------------------------------------------------------
 using 24 threads for integral computing
 -------------------------------------------------------
 OpenMP Integral computing Module                
 Release: version 1.0, May 2013, Q-Chem Inc. Pittsburgh 
 -------------------------------------------------------
 -------------------------------------------------------
 OpenMP BLAS3 based DFT computing Module                
 Release: version 1.0, May 2013, Q-Chem Inc. Pittsburgh 
 -------------------------------------------------------
 A unrestricted SCF calculation will be
 performed using Roothaan-Hall, GDM
 SCF converges when RMS gradient is below 1.0e-08
 ---------------------------------------
  Cycle       Energy         DIIS error
 ---------------------------------------
    1    -876.1691922622      3.31e-04  Roothaan Step
 ---------------------------------------
  Cycle       Energy        RMS Gradient
 ---------------------------------------
    1    -886.2927959788      2.28e-02   Normal BFGS step
    2    -886.2937308824      1.70e-02   Normal BFGS step
    3    -886.2948622634      2.57e-03   Normal BFGS step
    4    -886.2949164357      1.47e-03   Normal BFGS step
    5    -886.2949260191      1.59e-03   Normal BFGS step
    6    -886.2949306046      3.32e-04   Normal BFGS step
    7    -886.2949314025      1.98e-04   Normal BFGS step
    8    -886.2949316952      1.04e-04   Normal BFGS step
    9    -886.2949317463      4.06e-05   Normal BFGS step
   10    -886.2949317536      2.13e-05   Normal BFGS step
   11    -886.2949317553      8.07e-06   Normal BFGS step
   12    -886.2949317557      3.85e-06   Normal BFGS step
   13    -886.2949317559      2.32e-06   Normal BFGS step
   14    -886.2949317559      7.18e-07   Normal BFGS step
   15    -886.2949317559      1.92e-07   Normal BFGS step
   16    -886.2949317559      1.28e-07   Normal BFGS step
   17    -886.2949317559      5.62e-08   Normal BFGS step
   18    -886.2949317559      2.37e-08   Normal BFGS step
   19    -886.2949317559      1.49e-08   Normal BFGS step
   20    -886.2949317559      4.78e-09  Convergence criterion met
 ---------------------------------------
 SCF time:   CPU 535.64s  wall 28.00s 
<S^2> =          2.006861131

************** Final PCM Free Energy Summary **************
 G_electrostatic  =      -0.09222431 hartree =     -57.87162546 kcal/mol
 G_cavitation     =       0.00000000 hartree =       0.00000000 kcal/mol
 G_dispersion     =       0.00000000 hartree =       0.00000000 kcal/mol
 G_repulsion      =       0.00000000 hartree =       0.00000000 kcal/mol
 --------------------------------------------------
 Non-electrostatic Free Energy =       0.00000000 hartree =       0.00000000 kcal/mol
 Total                         =      -0.09222431 hartree =     -57.87162546 kcal/mol
 --------------------------------------------------
 SCF Energy (H0 + V/2)                       =    -886.29493176 
 Solute Internal Energy (H0)                 =    -886.20270745 
 Total Free Energy (H0 + V/2 + non-elec)     =    -886.29493176 hartree
                                             = -556158.46377611 kcal/mol
***********************************************************

 SCF   energy in the final basis set =     -886.2949317559
 Total energy in the final basis set =     -886.2949317559
 
 --------------------------------------------------------------
 
                    Orbital Energies (a.u.)
 --------------------------------------------------------------
 
 Alpha MOs
 -- Occupied --
-89.077 -24.861 -24.861 -24.861 -19.208 -19.205 -10.538  -8.114
 -6.063  -6.061  -6.058  -1.447  -1.360  -1.359  -1.126  -1.039
 -0.815  -0.709  -0.709  -0.682  -0.673  -0.584  -0.583  -0.548
 -0.548  -0.523  -0.498  -0.497  -0.487  -0.395  -0.352  -0.350
 -0.337  -0.235
 -- Virtual --
  0.082   0.091   0.093   0.095   0.122   0.125   0.128   0.177
  0.186   0.194   0.239   0.252   0.256   0.265   0.270   0.279
  0.287   0.310   0.323   0.337   0.340   0.349   0.367   0.382
  0.387   0.402   0.409   0.412   0.423   0.431   0.436   0.455
  0.459   0.497   0.510   0.525   0.666   0.711   0.718   0.819
  0.834   0.851   0.882   0.931   1.093   1.140   1.169   1.188
  1.195   1.214   1.221   1.228   1.268   1.293   1.362   1.387
  1.410   1.480   1.494   1.501   1.516   1.539   1.544   1.582
  1.663   1.683   1.760   1.808   1.866   1.912   1.925   1.940
  1.956   2.129   2.762   2.937   2.943   2.946   2.961   2.985
  3.015   3.020   3.037   3.051   3.169   3.426   3.618   3.779
  3.815   3.815   3.816   3.833   3.837   3.838   3.949   3.950
  4.176   4.290   4.293   4.408   4.975   4.984   5.081   5.121
  5.137   5.155   5.202   5.305   6.335   6.338   6.411   6.417
  6.426   6.428   6.435   6.860   6.867   8.116  17.395  17.467
 17.535  23.590  50.018  50.025  66.860  66.865  66.908 189.348
 
 Beta MOs
 -- Occupied --
-89.074 -24.859 -24.858 -24.858 -19.201 -19.199 -10.523  -8.111
 -6.061  -6.056  -6.049  -1.438  -1.352  -1.351  -1.110  -1.022
 -0.798  -0.699  -0.699  -0.653  -0.636  -0.574  -0.573  -0.540
 -0.539  -0.520  -0.486  -0.478  -0.453  -0.343  -0.336  -0.333
 -- Virtual --
 -0.011   0.020   0.086   0.094   0.097   0.098   0.126   0.128
  0.131   0.181   0.192   0.205   0.242   0.263   0.268   0.276
  0.283   0.290   0.295   0.317   0.329   0.342   0.345   0.352
  0.371   0.384   0.390   0.407   0.411   0.417   0.428   0.433
  0.439   0.457   0.463   0.499   0.512   0.529   0.689   0.716
  0.727   0.841   0.860   0.868   0.909   0.944   1.098   1.147
  1.190   1.200   1.205   1.222   1.231   1.241   1.274   1.311
  1.369   1.395   1.415   1.482   1.504   1.512   1.523   1.554
  1.559   1.627   1.674   1.697   1.789   1.816   1.879   1.921
  1.951   1.958   1.961   2.135   2.819   2.958   2.965   2.967
  2.968   3.008   3.031   3.043   3.058   3.074   3.175   3.438
  3.628   3.782   3.820   3.820   3.821   3.840   3.843   3.844
  3.961   3.961   4.185   4.298   4.300   4.418   4.983   4.993
  5.089   5.144   5.148   5.167   5.229   5.313   6.341   6.344
  6.418   6.423   6.428   6.432   6.443   6.867   6.873   8.119
 17.408  17.470  17.537  23.617  50.024  50.031  66.862  66.868
 66.910 189.351
 --------------------------------------------------------------
 
          Ground-State Mulliken Net Atomic Charges

     Atom                 Charge (a.u.)    Spin (a.u.)
  --------------------------------------------------------
      1 S                     0.285753       0.621696
      2 C                     0.204542       0.852416
      3 O                    -0.591181       0.215459
      4 O                    -0.636451       0.198371
      5 F                    -0.086815       0.038136
      6 F                    -0.089349       0.037101
      7 F                    -0.086499       0.036822
  --------------------------------------------------------
  Sum of atomic charges =    -1.000000
  Sum of spin   charges =     2.000000

 -----------------------------------------------------------------
                    Cartesian Multipole Moments
 -----------------------------------------------------------------
    Charge (ESU x 10^10)
                -4.8032
    Dipole Moment (Debye)
         X      -9.7716      Y       2.1204      Z       0.7683
       Tot      10.0285
    Quadrupole Moments (Debye-Ang)
        XX     -73.4915     XY       3.3318     YY     -51.4752
        XZ       7.2362     YZ       0.3884     ZZ     -53.3603
    Octopole Moments (Debye-Ang^2)
       XXX    -245.5799    XXY     -17.2000    XYY     -60.2387
       YYY     -71.8085    XXZ      10.2813    XYZ      -0.7688
       YYZ     -16.5294    XZZ     -71.0000    YZZ     -22.4594
       ZZZ     -41.9585
    Hexadecapole Moments (Debye-Ang^3)
      XXXX    -899.8651   XXXY       7.1090   XXYY    -213.1526
      XYYY     -13.2244   YYYY    -595.9696   XXXZ     131.8685
      XXYZ     -70.1021   XYYZ      12.4868   YYYZ    -182.4824
      XXZZ    -247.7117   XYZZ      -2.1039   YYZZ    -186.9183
      XZZZ      57.9934   YZZZ    -191.8525   ZZZZ    -552.8622
 -----------------------------------------------------------------
 Calculating analytic gradient of the SCF energy
 Gradient of SCF Energy
            1           2           3           4           5           6
    1  -0.0041141  -0.0050808   0.0047129   0.0012425   0.0001590   0.0205051
    2  -0.0059662   0.0211076   0.0001847  -0.0001731  -0.0169865   0.0026852
    3  -0.0023152   0.0210144  -0.0058563   0.0041126   0.0105985  -0.0103218
            7
    1  -0.0174245
    2  -0.0008517
    3  -0.0172322
 Max gradient component =       2.111E-02
 RMS gradient           =       1.109E-02
 Computing fast CPCM-SWIG gradient
 Updating gradient with PCM contributions...
 -- total gradient after adding PCM contribution --
---------------------------------------------------
  Atom         X              Y              Z     
---------------------------------------------------
   1      -0.008314      -0.001716      -0.000105
   2      -0.000064      -0.000199       0.000250
   3       0.000408       0.000176       0.000560
   4       0.008027       0.001662      -0.000672
   5      -0.000013      -0.000042      -0.000125
   6      -0.000029       0.000186       0.000107
   7      -0.000015      -0.000066      -0.000015
---------------------------------------------------
 Number of fixed atoms: 0
 Gradient time:  CPU 39.54 s  wall 2.76 s
 Geometry Optimization Parameters
   NAtoms,    NIC,     NZ,  NCons,   NDum,   NFix, NCnnct, MaxDiis
        7      32       0       0       0       0       0       0

 Cartesian Hessian Update
 Hessian Updated using BFGS Update


** GEOMETRY OPTIMIZATION IN DELOCALIZED INTERNAL COORDINATES **
   Searching for a Minimum

   Optimization Cycle:   2

                       Coordinates (Angstroms)
     ATOM                X               Y               Z
      1  S         1.3621750872   -0.5914294246   -1.0024420947
      2  C         0.6676591465    1.6330201834    1.3766174248
      3  O         1.0603585431   -0.9816372017    0.4459823658
      4  O         2.8463456717   -0.2568923689   -1.2169692988
      5  F         0.6748347785    2.7704255205    0.6961522101
      6  F        -0.5047641808    1.4528437513    1.9583693282
      7  F         1.6375442264    1.6270791304    2.2729697150
   Point Group: c1    Number of degrees of freedom:    15


   Energy is   -886.294931756

 Hessian Updated using BFGS Update

 12 Hessian modes will be used to form the next step
  Hessian Eigenvalues:
     0.001986    0.023235    0.027464    0.120410    0.172766    0.245261
     0.259577    0.395563    0.605270    0.615474    0.617094    0.670558

 Minimum Search - Taking Simple RFO Step
 Searching for Lamda that Minimizes Along All modes
 Value Taken    Lamda =  -0.00021099
 Step Taken.  Stepsize is  0.066561

                             Maximum     Tolerance    Cnvgd?
         Gradient           0.005838      0.000300      NO
         Displacement       0.040746      0.001200      NO
         Energy change     -0.000597      0.000001      NO


 New Cartesian Coordinates Obtained by Inverse Iteration

 Displacement from previous Coordinates is:  0.115709
 ----------------------------------------------------------------
             Standard Nuclear Orientation (Angstroms)
    I     Atom           X                Y                Z
 ----------------------------------------------------------------
    1      S       1.3594315929    -0.5984213468    -0.9926096307
    2      C       0.6738739996     1.6320199618     1.3765292257
    3      O       1.0800044290    -0.9859556598     0.4599254725
    4      O       2.8215250627    -0.2417046954    -1.2354072423
    5      F       0.6960848619     2.7691646663     0.6960821645
    6      F      -0.5109132145     1.4518999913     1.9324824526
    7      F       1.6241465410     1.6264066729     2.2936772080
 ----------------------------------------------------------------
 Nuclear Repulsion Energy =   374.5482827480 hartrees
 There are       34 alpha and       32 beta electrons
 Discretize the solute cavity surface with Lebedev spheres
	Using 194 Lebedev grid points for each H atom
	Using 194 Lebedev grid points for other atoms
	Atomic van der Waals radii will be scaled by 1.10
 Remove points where switching function is < 1.0e-08
 Keep 807 surface tesserae and discard 551 interior tesserae
 Molecular Surface Area = 154.379 Angst**2
 Applying Cartesian multipole field
    Component          Value
    ---------          -----
     (2,0,0)        1.00000E-11
     (0,2,0)        2.00000E-11
     (0,0,2)       -3.00000E-11
 Nucleus-field energy     =     0.0000000014 hartrees
 Requested basis set is 6-311++G(d)
 There are 49 shells and 162 basis functions
 A cutoff of  1.0D-12 yielded   1013 shell pairs
 There are     11686 function pairs (     12694 Cartesian)
 Smallest overlap matrix eigenvalue = 2.02E-03
 Guess MOs from SCF MO coefficient file
 Reading MOs from coefficient file
 Reading MOs from coefficient file

 -----------------------------------------------------------------------
  General SCF calculation program by
  Eric Jon Sundstrom, Paul Horn, Yuezhi Mao, Dmitri Zuev, Alec White,
  David Stuck, Shaama M.S., Shane Yost, Joonho Lee, David Small,
  Daniel Levine, Susi Lehtola, Hugh Burton, Evgeny Epifanovsky
 -----------------------------------------------------------------------
 Exchange:     0.2220 Hartree-Fock + 1.0000 wB97X-D + LR-HF
 Correlation:  1.0000 wB97X-D
 Using SG-3 standard quadrature grid
 Dispersion:   Grimme D
 using 24 threads for integral computing
 -------------------------------------------------------
 OpenMP Integral computing Module                
 Release: version 1.0, May 2013, Q-Chem Inc. Pittsburgh 
 -------------------------------------------------------
 using 24 threads for integral computing
 -------------------------------------------------------
 OpenMP Integral computing Module                
 Release: version 1.0, May 2013, Q-Chem Inc. Pittsburgh 
 -------------------------------------------------------
 -------------------------------------------------------
 OpenMP BLAS3 based DFT computing Module                
 Release: version 1.0, May 2013, Q-Chem Inc. Pittsburgh 
 -------------------------------------------------------
 A unrestricted SCF calculation will be
 performed using Roothaan-Hall, GDM
 SCF converges when RMS gradient is below 1.0e-08
 ---------------------------------------
  Cycle       Energy         DIIS error
 ---------------------------------------
    1    -876.1476550372      3.70e-04  Roothaan Step
 ---------------------------------------
  Cycle       Energy        RMS Gradient
 ---------------------------------------
    1    -886.2928819374      2.22e-02   Normal BFGS step
    2    -886.2938290496      1.68e-02   Normal BFGS step
    3    -886.2949567480      2.41e-03   Normal BFGS step
    4    -886.2950092656      1.61e-03   Normal BFGS step
    5    -886.2950197399      1.72e-03   Normal BFGS step
    6    -886.2950253460      3.35e-04   Normal BFGS step
    7    -886.2950261252      2.03e-04   Normal BFGS step
    8    -886.2950264065      9.49e-05   Normal BFGS step
    9    -886.2950264552      4.21e-05   Normal BFGS step
   10    -886.2950264626      2.03e-05   Normal BFGS step
   11    -886.2950264641      7.76e-06   Normal BFGS step
   12    -886.2950264645      3.62e-06   Normal BFGS step
   13    -886.2950264646      2.18e-06   Normal BFGS step
   14    -886.2950264647      7.25e-07   Normal BFGS step
   15    -886.2950264647      1.71e-07   Normal BFGS step
   16    -886.2950264647      1.13e-07   Normal BFGS step
   17    -886.2950264647      4.87e-08   Normal BFGS step
   18    -886.2950264647      2.13e-08   Normal BFGS step
   19    -886.2950264647      1.25e-08   Normal BFGS step
   20    -886.2950264647      3.95e-09  Convergence criterion met
 ---------------------------------------
 SCF time:   CPU 512.92s  wall 26.00s 
<S^2> =          2.006824333

************** Final PCM Free Energy Summary **************
 G_electrostatic  =      -0.09197344 hartree =     -57.71420168 kcal/mol
 G_cavitation     =       0.00000000 hartree =       0.00000000 kcal/mol
 G_dispersion     =       0.00000000 hartree =       0.00000000 kcal/mol
 G_repulsion      =       0.00000000 hartree =       0.00000000 kcal/mol
 --------------------------------------------------
 Non-electrostatic Free Energy =       0.00000000 hartree =       0.00000000 kcal/mol
 Total                         =      -0.09197344 hartree =     -57.71420168 kcal/mol
 --------------------------------------------------
 SCF Energy (H0 + V/2)                       =    -886.29502646 
 Solute Internal Energy (H0)                 =    -886.20305303 
 Total Free Energy (H0 + V/2 + non-elec)     =    -886.29502646 hartree
                                             = -556158.52320677 kcal/mol
***********************************************************

 SCF   energy in the final basis set =     -886.2950264647
 Total energy in the final basis set =     -886.2950264647
 
 --------------------------------------------------------------
 
                    Orbital Energies (a.u.)
 --------------------------------------------------------------
 
 Alpha MOs
 -- Occupied --
-89.076 -24.861 -24.861 -24.861 -19.207 -19.205 -10.538  -8.113
 -6.062  -6.060  -6.057  -1.447  -1.360  -1.359  -1.129  -1.041
 -0.815  -0.709  -0.709  -0.680  -0.673  -0.583  -0.583  -0.548
 -0.548  -0.523  -0.499  -0.498  -0.488  -0.396  -0.353  -0.350
 -0.337  -0.233
 -- Virtual --
  0.082   0.091   0.093   0.095   0.123   0.125   0.128   0.177
  0.188   0.195   0.239   0.252   0.256   0.266   0.269   0.279
  0.288   0.309   0.323   0.337   0.340   0.350   0.366   0.382
  0.387   0.402   0.410   0.412   0.423   0.431   0.435   0.456
  0.460   0.496   0.510   0.527   0.666   0.712   0.718   0.821
  0.837   0.853   0.884   0.931   1.093   1.139   1.175   1.188
  1.195   1.213   1.224   1.228   1.268   1.294   1.363   1.386
  1.411   1.481   1.494   1.501   1.516   1.540   1.543   1.582
  1.661   1.685   1.761   1.808   1.866   1.913   1.925   1.941
  1.957   2.130   2.763   2.936   2.942   2.944   2.961   2.986
  3.015   3.023   3.039   3.052   3.174   3.435   3.625   3.779
  3.815   3.815   3.816   3.833   3.837   3.838   3.950   3.950
  4.176   4.290   4.293   4.408   4.976   4.984   5.082   5.120
  5.140   5.155   5.203   5.310   6.336   6.338   6.412   6.417
  6.426   6.428   6.436   6.860   6.867   8.125  17.396  17.470
 17.542  23.591  50.018  50.026  66.860  66.866  66.908 189.357
 
 Beta MOs
 -- Occupied --
-89.073 -24.859 -24.858 -24.858 -19.199 -19.199 -10.523  -8.110
 -6.060  -6.055  -6.049  -1.438  -1.352  -1.351  -1.113  -1.024
 -0.797  -0.699  -0.699  -0.651  -0.636  -0.574  -0.573  -0.540
 -0.539  -0.520  -0.487  -0.479  -0.454  -0.344  -0.337  -0.332
 -- Virtual --
 -0.010   0.022   0.086   0.094   0.097   0.098   0.126   0.128
  0.131   0.181   0.195   0.206   0.243   0.263   0.268   0.277
  0.283   0.290   0.296   0.317   0.330   0.342   0.345   0.353
  0.371   0.384   0.390   0.407   0.412   0.417   0.428   0.433
  0.439   0.458   0.465   0.498   0.512   0.531   0.689   0.717
  0.727   0.843   0.862   0.870   0.910   0.944   1.098   1.146
  1.197   1.200   1.205   1.221   1.235   1.240   1.274   1.311
  1.370   1.395   1.415   1.482   1.504   1.512   1.524   1.554
  1.558   1.627   1.671   1.699   1.790   1.816   1.879   1.921
  1.952   1.958   1.961   2.136   2.820   2.957   2.964   2.966
  2.967   3.008   3.032   3.046   3.060   3.075   3.180   3.447
  3.636   3.782   3.820   3.820   3.821   3.840   3.843   3.844
  3.961   3.961   4.185   4.298   4.300   4.418   4.983   4.993
  5.090   5.146   5.148   5.167   5.230   5.318   6.341   6.343
  6.418   6.423   6.428   6.433   6.443   6.867   6.874   8.128
 17.408  17.472  17.544  23.617  50.024  50.033  66.862  66.868
 66.910 189.360
 --------------------------------------------------------------
 
          Ground-State Mulliken Net Atomic Charges

     Atom                 Charge (a.u.)    Spin (a.u.)
  --------------------------------------------------------
      1 S                     0.278322       0.624858
      2 C                     0.203742       0.852308
      3 O                    -0.593102       0.213734
      4 O                    -0.626628       0.197259
      5 F                    -0.087036       0.038065
      6 F                    -0.088850       0.036931
      7 F                    -0.086447       0.036846
  --------------------------------------------------------
  Sum of atomic charges =    -1.000000
  Sum of spin   charges =     2.000000

 -----------------------------------------------------------------
                    Cartesian Multipole Moments
 -----------------------------------------------------------------
    Charge (ESU x 10^10)
                -4.8032
    Dipole Moment (Debye)
         X      -9.6728      Y       2.0998      Z       0.7757
       Tot       9.9284
    Quadrupole Moments (Debye-Ang)
        XX     -72.8878     XY       3.2168     YY     -51.4926
        XZ       7.1315     YZ       0.4687     ZZ     -53.5400
    Octopole Moments (Debye-Ang^2)
       XXX    -242.7232    XXY     -17.6673    XYY     -60.2189
       YYY     -71.5809    XXZ       9.7635    XYZ      -0.5187
       YYZ     -16.7026    XZZ     -71.2505    YZZ     -22.3901
       ZZZ     -42.1298
    Hexadecapole Moments (Debye-Ang^3)
      XXXX    -884.7203   XXXY       4.5307   XXYY    -212.0729
      XYYY     -14.1645   YYYY    -596.4560   XXXZ     128.7270
      XXYZ     -69.0511   XYYZ      11.7200   YYYZ    -181.8255
      XXZZ    -247.1067   XYZZ      -2.6197   YYZZ    -187.1872
      XZZZ      56.6176   YZZZ    -191.2245   ZZZZ    -553.8110
 -----------------------------------------------------------------
 Calculating analytic gradient of the SCF energy
 Gradient of SCF Energy
            1           2           3           4           5           6
    1   0.0049878  -0.0055161   0.0043864  -0.0075675   0.0000100   0.0207986
    2  -0.0043127   0.0212225   0.0004592  -0.0021250  -0.0170806   0.0026610
    3  -0.0017790   0.0210227  -0.0071902   0.0048992   0.0106287  -0.0099696
            7
    1  -0.0170991
    2  -0.0008243
    3  -0.0176119
 Max gradient component =       2.122E-02
 RMS gradient           =       1.128E-02
 Computing fast CPCM-SWIG gradient
 Updating gradient with PCM contributions...
 -- total gradient after adding PCM contribution --
---------------------------------------------------
  Atom         X              Y              Z     
---------------------------------------------------
   1       0.001270      -0.000061       0.000910
   2      -0.000134      -0.000061       0.000326
   3      -0.000116       0.000387      -0.000959
   4      -0.001043      -0.000222      -0.000152
   5       0.000032      -0.000119      -0.000073
   6       0.000008       0.000148       0.000017
   7      -0.000017      -0.000072      -0.000069
---------------------------------------------------
 Number of fixed atoms: 0
 Gradient time:  CPU 41.03 s  wall 2.95 s
 Geometry Optimization Parameters
   NAtoms,    NIC,     NZ,  NCons,   NDum,   NFix, NCnnct, MaxDiis
        7      32       0       0       0       0       0       0

 Cartesian Hessian Update
 Hessian Updated using BFGS Update


** GEOMETRY OPTIMIZATION IN DELOCALIZED INTERNAL COORDINATES **
   Searching for a Minimum

   Optimization Cycle:   3

                       Coordinates (Angstroms)
     ATOM                X               Y               Z
      1  S         1.3594315929   -0.5984213468   -0.9926096307
      2  C         0.6738739996    1.6320199618    1.3765292257
      3  O         1.0800044290   -0.9859556598    0.4599254725
      4  O         2.8215250627   -0.2417046954   -1.2354072423
      5  F         0.6960848619    2.7691646663    0.6960821645
      6  F        -0.5109132145    1.4518999913    1.9324824526
      7  F         1.6241465410    1.6264066729    2.2936772080
   Point Group: c1    Number of degrees of freedom:    15


   Energy is   -886.295026465

 Hessian Updated using BFGS Update

 13 Hessian modes will be used to form the next step
  Hessian Eigenvalues:
     0.001932    0.023235    0.027287    0.120059    0.172645    0.233859
     0.250008    0.282155    0.440377    0.605290    0.615474    0.617124
     0.675623

 Minimum Search - Taking Simple RFO Step
 Searching for Lamda that Minimizes Along All modes
 Value Taken    Lamda =  -0.00000996
 Step Taken.  Stepsize is  0.029142

                             Maximum     Tolerance    Cnvgd?
         Gradient           0.001290      0.000300      NO
         Displacement       0.014107      0.001200      NO
         Energy change     -0.000095      0.000001      NO


 New Cartesian Coordinates Obtained by Inverse Iteration

 Displacement from previous Coordinates is:  0.044330
 ----------------------------------------------------------------
             Standard Nuclear Orientation (Angstroms)
    I     Atom           X                Y                Z
 ----------------------------------------------------------------
    1      S       1.3543350811    -0.6016230232    -0.9902855994
    2      C       0.6768806393     1.6312332267     1.3758843376
    3      O       1.0879619840    -0.9881592891     0.4655748700
    4      O       2.8135519409    -0.2336077401    -1.2392344630
    5      F       0.7043706068     2.7683504962     0.6954941282
    6      F      -0.5123823877     1.4509906966     1.9222049386
    7      F       1.6194354082     1.6262252233     2.3010414383
 ----------------------------------------------------------------
 Nuclear Repulsion Energy =   374.5985680479 hartrees
 There are       34 alpha and       32 beta electrons
 Discretize the solute cavity surface with Lebedev spheres
	Using 194 Lebedev grid points for each H atom
	Using 194 Lebedev grid points for other atoms
	Atomic van der Waals radii will be scaled by 1.10
 Remove points where switching function is < 1.0e-08
 Keep 805 surface tesserae and discard 553 interior tesserae
 Molecular Surface Area = 154.371 Angst**2
 Applying Cartesian multipole field
    Component          Value
    ---------          -----
     (2,0,0)        1.00000E-11
     (0,2,0)        2.00000E-11
     (0,0,2)       -3.00000E-11
 Nucleus-field energy     =     0.0000000014 hartrees
 Requested basis set is 6-311++G(d)
 There are 49 shells and 162 basis functions
 A cutoff of  1.0D-12 yielded   1013 shell pairs
 There are     11686 function pairs (     12694 Cartesian)
 Smallest overlap matrix eigenvalue = 2.02E-03
 Guess MOs from SCF MO coefficient file
 Reading MOs from coefficient file
 Reading MOs from coefficient file

 -----------------------------------------------------------------------
  General SCF calculation program by
  Eric Jon Sundstrom, Paul Horn, Yuezhi Mao, Dmitri Zuev, Alec White,
  David Stuck, Shaama M.S., Shane Yost, Joonho Lee, David Small,
  Daniel Levine, Susi Lehtola, Hugh Burton, Evgeny Epifanovsky
 -----------------------------------------------------------------------
 Exchange:     0.2220 Hartree-Fock + 1.0000 wB97X-D + LR-HF
 Correlation:  1.0000 wB97X-D
 Using SG-3 standard quadrature grid
 Dispersion:   Grimme D
 using 24 threads for integral computing
 -------------------------------------------------------
 OpenMP Integral computing Module                
 Release: version 1.0, May 2013, Q-Chem Inc. Pittsburgh 
 -------------------------------------------------------
 using 24 threads for integral computing
 -------------------------------------------------------
 OpenMP Integral computing Module                
 Release: version 1.0, May 2013, Q-Chem Inc. Pittsburgh 
 -------------------------------------------------------
 -------------------------------------------------------
 OpenMP BLAS3 based DFT computing Module                
 Release: version 1.0, May 2013, Q-Chem Inc. Pittsburgh 
 -------------------------------------------------------
 A unrestricted SCF calculation will be
 performed using Roothaan-Hall, GDM
 SCF converges when RMS gradient is below 1.0e-08
 ---------------------------------------
  Cycle       Energy         DIIS error
 ---------------------------------------
    1    -876.1411593349      2.88e-04  Roothaan Step
 ---------------------------------------
  Cycle       Energy        RMS Gradient
 ---------------------------------------
    1    -886.2928141162      2.33e-02   Normal BFGS step
    2    -886.2936019768      1.87e-02   Normal BFGS step
    3    -886.2949688789      2.50e-03   Normal BFGS step
    4    -886.2950121714      2.21e-03   Normal BFGS step
    5    -886.2950263763      1.66e-03   Normal BFGS step
    6    -886.2950323412      3.47e-04   Normal BFGS step
    7    -886.2950331919      1.91e-04   Normal BFGS step
    8    -886.2950334366      9.33e-05   Normal BFGS step
    9    -886.2950334864      4.24e-05   Normal BFGS step
   10    -886.2950334930      2.05e-05   Normal BFGS step
   11    -886.2950334943      6.88e-06   Normal BFGS step
   12    -886.2950334947      3.22e-06   Normal BFGS step
   13    -886.2950334948      2.48e-06   Normal BFGS step
   14    -886.2950334948      7.87e-07   Normal BFGS step
   15    -886.2950334948      1.45e-07   Normal BFGS step
   16    -886.2950334948      9.95e-08   Normal BFGS step
   17    -886.2950334948      4.10e-08   Normal BFGS step
   18    -886.2950334948      2.32e-08   Normal BFGS step
   19    -886.2950334948      1.27e-08   Normal BFGS step
   20    -886.2950334948      4.58e-09  Convergence criterion met
 ---------------------------------------
 SCF time:   CPU 530.55s  wall 26.00s 
<S^2> =          2.006823425

************** Final PCM Free Energy Summary **************
 G_electrostatic  =      -0.09202032 hartree =     -57.74362253 kcal/mol
 G_cavitation     =       0.00000000 hartree =       0.00000000 kcal/mol
 G_dispersion     =       0.00000000 hartree =       0.00000000 kcal/mol
 G_repulsion      =       0.00000000 hartree =       0.00000000 kcal/mol
 --------------------------------------------------
 Non-electrostatic Free Energy =       0.00000000 hartree =       0.00000000 kcal/mol
 Total                         =      -0.09202032 hartree =     -57.74362253 kcal/mol
 --------------------------------------------------
 SCF Energy (H0 + V/2)                       =    -886.29503349 
 Solute Internal Energy (H0)                 =    -886.20301317 
 Total Free Energy (H0 + V/2 + non-elec)     =    -886.29503349 hartree
                                             = -556158.52761825 kcal/mol
***********************************************************

 SCF   energy in the final basis set =     -886.2950334948
 Total energy in the final basis set =     -886.2950334948
 
 --------------------------------------------------------------
 
                    Orbital Energies (a.u.)
 --------------------------------------------------------------
 
 Alpha MOs
 -- Occupied --
-89.076 -24.861 -24.861 -24.861 -19.207 -19.205 -10.538  -8.113
 -6.063  -6.061  -6.057  -1.447  -1.360  -1.359  -1.128  -1.041
 -0.815  -0.709  -0.709  -0.680  -0.673  -0.583  -0.583  -0.548
 -0.548  -0.523  -0.499  -0.497  -0.488  -0.395  -0.352  -0.350
 -0.337  -0.233
 -- Virtual --
  0.082   0.091   0.093   0.095   0.123   0.125   0.128   0.177
  0.188   0.195   0.239   0.253   0.256   0.266   0.269   0.279
  0.288   0.309   0.323   0.337   0.340   0.350   0.366   0.382
  0.387   0.402   0.410   0.413   0.424   0.431   0.435   0.456
  0.459   0.496   0.510   0.528   0.665   0.712   0.718   0.820
  0.836   0.853   0.884   0.931   1.093   1.139   1.174   1.188
  1.195   1.212   1.224   1.228   1.269   1.294   1.363   1.386
  1.411   1.481   1.494   1.501   1.516   1.540   1.543   1.582
  1.661   1.685   1.761   1.808   1.866   1.913   1.925   1.941
  1.957   2.130   2.763   2.936   2.942   2.944   2.961   2.986
  3.015   3.023   3.039   3.052   3.173   3.433   3.624   3.779
  3.815   3.815   3.816   3.833   3.837   3.838   3.950   3.950
  4.176   4.290   4.293   4.408   4.976   4.985   5.082   5.120
  5.140   5.156   5.204   5.310   6.336   6.338   6.412   6.417
  6.426   6.428   6.436   6.860   6.867   8.124  17.396  17.470
 17.540  23.591  50.018  50.026  66.860  66.866  66.908 189.356
 
 Beta MOs
 -- Occupied --
-89.073 -24.859 -24.858 -24.858 -19.200 -19.199 -10.523  -8.110
 -6.060  -6.055  -6.049  -1.438  -1.352  -1.351  -1.113  -1.024
 -0.797  -0.699  -0.699  -0.651  -0.636  -0.574  -0.573  -0.540
 -0.539  -0.520  -0.486  -0.479  -0.454  -0.344  -0.337  -0.333
 -- Virtual --
 -0.010   0.022   0.086   0.094   0.097   0.098   0.126   0.128
  0.131   0.181   0.194   0.206   0.242   0.263   0.268   0.277
  0.283   0.290   0.296   0.316   0.330   0.342   0.344   0.354
  0.371   0.384   0.390   0.406   0.412   0.417   0.428   0.433
  0.439   0.458   0.464   0.498   0.512   0.532   0.689   0.717
  0.727   0.842   0.862   0.870   0.910   0.944   1.098   1.145
  1.196   1.200   1.205   1.221   1.235   1.240   1.274   1.311
  1.370   1.394   1.415   1.482   1.504   1.512   1.524   1.555
  1.558   1.627   1.672   1.699   1.790   1.816   1.879   1.921
  1.952   1.958   1.961   2.136   2.820   2.957   2.965   2.966
  2.967   3.008   3.031   3.046   3.060   3.075   3.180   3.446
  3.635   3.782   3.820   3.820   3.821   3.840   3.843   3.844
  3.961   3.961   4.185   4.298   4.300   4.418   4.983   4.993
  5.090   5.146   5.147   5.167   5.230   5.318   6.341   6.343
  6.418   6.423   6.428   6.433   6.443   6.867   6.874   8.127
 17.408  17.472  17.543  23.617  50.024  50.033  66.862  66.868
 66.910 189.359
 --------------------------------------------------------------
 
          Ground-State Mulliken Net Atomic Charges

     Atom                 Charge (a.u.)    Spin (a.u.)
  --------------------------------------------------------
      1 S                     0.280694       0.624512
      2 C                     0.203298       0.852200
      3 O                    -0.593878       0.214029
      4 O                    -0.627899       0.197412
      5 F                    -0.087124       0.038072
      6 F                    -0.088664       0.036879
      7 F                    -0.086427       0.036897
  --------------------------------------------------------
  Sum of atomic charges =    -1.000000
  Sum of spin   charges =     2.000000

 -----------------------------------------------------------------
                    Cartesian Multipole Moments
 -----------------------------------------------------------------
    Charge (ESU x 10^10)
                -4.8032
    Dipole Moment (Debye)
         X      -9.6816      Y       2.0783      Z       0.7682
       Tot       9.9319
    Quadrupole Moments (Debye-Ang)
        XX     -72.8330     XY       3.1624     YY     -51.4952
        XZ       7.1127     YZ       0.5201     ZZ     -53.5862
    Octopole Moments (Debye-Ang^2)
       XXX    -242.1506    XXY     -17.8477    XYY     -60.2216
       YYY     -71.5083    XXZ       9.6802    XYZ      -0.3972
       YYZ     -16.7693    XZZ     -71.3479    YZZ     -22.4039
       ZZZ     -42.1856
    Hexadecapole Moments (Debye-Ang^3)
      XXXX    -880.5529   XXXY       3.3738   XXYY    -211.7251
      XYYY     -14.7244   YYYY    -596.4895   XXXZ     127.6887
      XXYZ     -68.5558   XYYZ      11.3817   YYYZ    -181.4274
      XXZZ    -246.9490   XYZZ      -2.9397   YYZZ    -187.2166
      XZZZ      55.9768   YZZZ    -190.8171   ZZZZ    -553.9219
 -----------------------------------------------------------------
 Calculating analytic gradient of the SCF energy
 Gradient of SCF Energy
            1           2           3           4           5           6
    1   0.0040598  -0.0056133   0.0044776  -0.0067708  -0.0000484   0.0208826
    2  -0.0043400   0.0211730   0.0003981  -0.0020334  -0.0170591   0.0026717
    3  -0.0024369   0.0209376  -0.0067280   0.0050939   0.0106250  -0.0097791
            7
    1  -0.0169874
    2  -0.0008103
    3  -0.0177126
 Max gradient component =       2.117E-02
 RMS gradient           =       1.123E-02
 Computing fast CPCM-SWIG gradient
 Updating gradient with PCM contributions...
 -- total gradient after adding PCM contribution --
---------------------------------------------------
  Atom         X              Y              Z     
---------------------------------------------------
   1       0.000236      -0.000107       0.000163
   2      -0.000116      -0.000124       0.000239
   3       0.000141       0.000320      -0.000444
   4      -0.000277      -0.000114       0.000085
   5       0.000030      -0.000074      -0.000063
   6       0.000011       0.000156       0.000036
   7      -0.000025      -0.000057      -0.000016
---------------------------------------------------
 Number of fixed atoms: 0
 Gradient time:  CPU 39.95 s  wall 2.74 s
 Geometry Optimization Parameters
   NAtoms,    NIC,     NZ,  NCons,   NDum,   NFix, NCnnct, MaxDiis
        7      32       0       0       0       0       0       0

 Cartesian Hessian Update
 Hessian Updated using BFGS Update


** GEOMETRY OPTIMIZATION IN DELOCALIZED INTERNAL COORDINATES **
   Searching for a Minimum

   Optimization Cycle:   4

                       Coordinates (Angstroms)
     ATOM                X               Y               Z
      1  S         1.3543350811   -0.6016230232   -0.9902855994
      2  C         0.6768806393    1.6312332267    1.3758843376
      3  O         1.0879619840   -0.9881592891    0.4655748700
      4  O         2.8135519409   -0.2336077401   -1.2392344630
      5  F         0.7043706068    2.7683504962    0.6954941282
      6  F        -0.5123823877    1.4509906966    1.9222049386
      7  F         1.6194354082    1.6262252233    2.3010414383
   Point Group: c1    Number of degrees of freedom:    15


   Energy is   -886.295033495

 Hessian Updated using BFGS Update

 14 Hessian modes will be used to form the next step
  Hessian Eigenvalues:
     0.001379    0.023235    0.024987    0.115114    0.167121    0.180749
     0.249967    0.250049    0.361420    0.444918    0.605198    0.615498
     0.616839    0.656041

 Minimum Search - Taking Simple RFO Step
 Searching for Lamda that Minimizes Along All modes
 Value Taken    Lamda =  -0.00000857
 Step Taken.  Stepsize is  0.054805

                             Maximum     Tolerance    Cnvgd?
         Gradient           0.000386      0.000300      NO
         Displacement       0.026198      0.001200      NO
         Energy change     -0.000007      0.000001      NO


 New Cartesian Coordinates Obtained by Inverse Iteration

 Displacement from previous Coordinates is:  0.091328
 ----------------------------------------------------------------
             Standard Nuclear Orientation (Angstroms)
    I     Atom           X                Y                Z
 ----------------------------------------------------------------
    1      S       1.3458964007    -0.6078291613    -0.9833466533
    2      C       0.6829670399     1.6295902316     1.3745318681
    3      O       1.1025430281    -0.9930282730     0.4776326834
    4      O       2.7967432889    -0.2163393627    -1.2488480385
    5      F       0.7215910387     2.7665714575     0.6943457882
    6      F      -0.5153204022     1.4490602258     1.9007436575
    7      F       1.6097328785     1.6253844724     2.3156203450
 ----------------------------------------------------------------
 Nuclear Repulsion Energy =   374.7647518383 hartrees
 There are       34 alpha and       32 beta electrons
 Discretize the solute cavity surface with Lebedev spheres
	Using 194 Lebedev grid points for each H atom
	Using 194 Lebedev grid points for other atoms
	Atomic van der Waals radii will be scaled by 1.10
 Remove points where switching function is < 1.0e-08
 Keep 805 surface tesserae and discard 553 interior tesserae
 Molecular Surface Area = 154.310 Angst**2
 Applying Cartesian multipole field
    Component          Value
    ---------          -----
     (2,0,0)        1.00000E-11
     (0,2,0)        2.00000E-11
     (0,0,2)       -3.00000E-11
 Nucleus-field energy     =     0.0000000014 hartrees
 Requested basis set is 6-311++G(d)
 There are 49 shells and 162 basis functions
 A cutoff of  1.0D-12 yielded   1013 shell pairs
 There are     11686 function pairs (     12694 Cartesian)
 Smallest overlap matrix eigenvalue = 2.02E-03
 Guess MOs from SCF MO coefficient file
 Reading MOs from coefficient file
 Reading MOs from coefficient file

 -----------------------------------------------------------------------
  General SCF calculation program by
  Eric Jon Sundstrom, Paul Horn, Yuezhi Mao, Dmitri Zuev, Alec White,
  David Stuck, Shaama M.S., Shane Yost, Joonho Lee, David Small,
  Daniel Levine, Susi Lehtola, Hugh Burton, Evgeny Epifanovsky
 -----------------------------------------------------------------------
 Exchange:     0.2220 Hartree-Fock + 1.0000 wB97X-D + LR-HF
 Correlation:  1.0000 wB97X-D
 Using SG-3 standard quadrature grid
 Dispersion:   Grimme D
 using 24 threads for integral computing
 -------------------------------------------------------
 OpenMP Integral computing Module                
 Release: version 1.0, May 2013, Q-Chem Inc. Pittsburgh 
 -------------------------------------------------------
 using 24 threads for integral computing
 -------------------------------------------------------
 OpenMP Integral computing Module                
 Release: version 1.0, May 2013, Q-Chem Inc. Pittsburgh 
 -------------------------------------------------------
 -------------------------------------------------------
 OpenMP BLAS3 based DFT computing Module                
 Release: version 1.0, May 2013, Q-Chem Inc. Pittsburgh 
 -------------------------------------------------------
 A unrestricted SCF calculation will be
 performed using Roothaan-Hall, GDM
 SCF converges when RMS gradient is below 1.0e-08
 ---------------------------------------
  Cycle       Energy         DIIS error
 ---------------------------------------
    1    -876.1377856865      3.31e-04  Roothaan Step
 ---------------------------------------
  Cycle       Energy        RMS Gradient
 ---------------------------------------
    1    -886.2927727642      2.34e-02   Normal BFGS step
    2    -886.2935789534      1.87e-02   Normal BFGS step
    3    -886.2949718544      2.79e-03   Normal BFGS step
    4    -886.2950150354      2.47e-03   Normal BFGS step
    5    -886.2950318456      1.66e-03   Normal BFGS step
    6    -886.2950381552      3.55e-04   Normal BFGS step
    7    -886.2950391012      1.90e-04   Normal BFGS step
    8    -886.2950393481      9.36e-05   Normal BFGS step
    9    -886.2950394059      4.53e-05   Normal BFGS step
   10    -886.2950394138      2.12e-05   Normal BFGS step
   11    -886.2950394153      7.45e-06   Normal BFGS step
   12    -886.2950394157      3.83e-06   Normal BFGS step
   13    -886.2950394159      2.25e-06   Normal BFGS step
   14    -886.2950394159      7.75e-07   Normal BFGS step
   15    -886.2950394159      1.84e-07   Normal BFGS step
   16    -886.2950394159      1.21e-07   Normal BFGS step
   17    -886.2950394159      4.86e-08   Normal BFGS step
   18    -886.2950394159      2.51e-08   Normal BFGS step
   19    -886.2950394159      1.26e-08   Normal BFGS step
   20    -886.2950394159      3.57e-09  Convergence criterion met
 ---------------------------------------
 SCF time:   CPU 527.96s  wall 26.00s 
<S^2> =          2.006820683

************** Final PCM Free Energy Summary **************
 G_electrostatic  =      -0.09203287 hartree =     -57.75149888 kcal/mol
 G_cavitation     =       0.00000000 hartree =       0.00000000 kcal/mol
 G_dispersion     =       0.00000000 hartree =       0.00000000 kcal/mol
 G_repulsion      =       0.00000000 hartree =       0.00000000 kcal/mol
 --------------------------------------------------
 Non-electrostatic Free Energy =       0.00000000 hartree =       0.00000000 kcal/mol
 Total                         =      -0.09203287 hartree =     -57.75149888 kcal/mol
 --------------------------------------------------
 SCF Energy (H0 + V/2)                       =    -886.29503942 
 Solute Internal Energy (H0)                 =    -886.20300654 
 Total Free Energy (H0 + V/2 + non-elec)     =    -886.29503942 hartree
                                             = -556158.53133378 kcal/mol
***********************************************************

 SCF   energy in the final basis set =     -886.2950394159
 Total energy in the final basis set =     -886.2950394159
 
 --------------------------------------------------------------
 
                    Orbital Energies (a.u.)
 --------------------------------------------------------------
 
 Alpha MOs
 -- Occupied --
-89.076 -24.861 -24.861 -24.861 -19.207 -19.205 -10.538  -8.113
 -6.063  -6.061  -6.057  -1.447  -1.360  -1.359  -1.128  -1.041
 -0.815  -0.709  -0.709  -0.680  -0.673  -0.583  -0.583  -0.548
 -0.548  -0.523  -0.499  -0.497  -0.488  -0.395  -0.352  -0.351
 -0.337  -0.234
 -- Virtual --
  0.082   0.091   0.093   0.095   0.123   0.125   0.128   0.177
  0.187   0.195   0.238   0.253   0.256   0.267   0.269   0.279
  0.289   0.308   0.324   0.336   0.339   0.351   0.366   0.382
  0.387   0.401   0.410   0.413   0.424   0.431   0.435   0.456
  0.459   0.496   0.510   0.529   0.664   0.712   0.718   0.820
  0.836   0.852   0.885   0.931   1.093   1.139   1.174   1.188
  1.195   1.212   1.224   1.228   1.269   1.294   1.364   1.385
  1.411   1.481   1.494   1.501   1.516   1.540   1.543   1.582
  1.661   1.687   1.761   1.808   1.866   1.913   1.925   1.941
  1.958   2.130   2.763   2.936   2.943   2.944   2.961   2.985
  3.015   3.023   3.039   3.052   3.173   3.433   3.624   3.779
  3.815   3.815   3.816   3.833   3.837   3.838   3.950   3.950
  4.176   4.290   4.293   4.408   4.976   4.985   5.082   5.120
  5.139   5.156   5.204   5.309   6.336   6.337   6.412   6.417
  6.426   6.428   6.436   6.860   6.867   8.123  17.396  17.470
 17.540  23.590  50.018  50.027  66.860  66.866  66.908 189.356
 
 Beta MOs
 -- Occupied --
-89.073 -24.859 -24.858 -24.858 -19.200 -19.199 -10.523  -8.110
 -6.061  -6.055  -6.049  -1.437  -1.352  -1.351  -1.113  -1.024
 -0.797  -0.699  -0.699  -0.652  -0.636  -0.574  -0.573  -0.540
 -0.539  -0.520  -0.486  -0.479  -0.454  -0.344  -0.336  -0.333
 -- Virtual --
 -0.010   0.021   0.086   0.094   0.097   0.098   0.126   0.128
  0.131   0.181   0.194   0.206   0.242   0.264   0.268   0.277
  0.283   0.290   0.296   0.316   0.330   0.341   0.344   0.355
  0.370   0.384   0.390   0.406   0.412   0.418   0.428   0.433
  0.439   0.459   0.463   0.497   0.511   0.533   0.688   0.717
  0.727   0.842   0.861   0.869   0.911   0.944   1.098   1.145
  1.195   1.201   1.206   1.220   1.235   1.240   1.274   1.311
  1.371   1.394   1.415   1.482   1.504   1.512   1.524   1.555
  1.558   1.627   1.672   1.700   1.790   1.816   1.880   1.921
  1.952   1.958   1.962   2.137   2.820   2.957   2.965   2.966
  2.967   3.008   3.031   3.046   3.060   3.075   3.179   3.445
  3.634   3.782   3.820   3.820   3.821   3.840   3.843   3.844
  3.961   3.961   4.185   4.298   4.300   4.418   4.983   4.993
  5.090   5.146   5.147   5.168   5.231   5.317   6.342   6.343
  6.419   6.422   6.429   6.433   6.444   6.867   6.873   8.126
 17.408  17.472  17.542  23.617  50.024  50.033  66.862  66.868
 66.910 189.359
 --------------------------------------------------------------
 
          Ground-State Mulliken Net Atomic Charges

     Atom                 Charge (a.u.)    Spin (a.u.)
  --------------------------------------------------------
      1 S                     0.282425       0.624097
      2 C                     0.202279       0.852118
      3 O                    -0.594413       0.214434
      4 O                    -0.628487       0.197564
      5 F                    -0.087224       0.038063
      6 F                    -0.088244       0.036754
      7 F                    -0.086336       0.036970
  --------------------------------------------------------
  Sum of atomic charges =    -1.000000
  Sum of spin   charges =     2.000000

 -----------------------------------------------------------------
                    Cartesian Multipole Moments
 -----------------------------------------------------------------
    Charge (ESU x 10^10)
                -4.8032
    Dipole Moment (Debye)
         X      -9.6798      Y       2.0358      Z       0.7660
       Tot       9.9212
    Quadrupole Moments (Debye-Ang)
        XX     -72.6527     XY       3.0403     YY     -51.5019
        XZ       7.0809     YZ       0.6241     ZZ     -53.7025
    Octopole Moments (Debye-Ang^2)
       XXX    -240.8129    XXY     -18.2535    XYY     -60.2311
       YYY     -71.3514    XXZ       9.4852    XYZ      -0.1447
       YYZ     -16.9075    XZZ     -71.5759    YZZ     -22.4135
       ZZZ     -42.3055
    Hexadecapole Moments (Debye-Ang^3)
      XXXX    -871.6566   XXXY       0.8904   XXYY    -211.0022
      XYYY     -15.8854   YYYY    -596.4913   XXXZ     125.5195
      XXYZ     -67.4857   XYYZ      10.7087   YYYZ    -180.4818
      XXZZ    -246.5976   XYZZ      -3.5814   YYZZ    -187.2290
      XZZZ      54.7288   YZZZ    -189.8471   ZZZZ    -553.9952
 -----------------------------------------------------------------
 Calculating analytic gradient of the SCF energy
 Gradient of SCF Energy
            1           2           3           4           5           6
    1   0.0035380  -0.0058475   0.0043276  -0.0061627  -0.0001581   0.0210173
    2  -0.0043094   0.0211321   0.0003194  -0.0019670  -0.0170405   0.0026594
    3  -0.0030128   0.0208178  -0.0062217   0.0051786   0.0105996  -0.0094172
            7
    1  -0.0167146
    2  -0.0007940
    3  -0.0179442
 Max gradient component =       2.113E-02
 RMS gradient           =       1.118E-02
 Computing fast CPCM-SWIG gradient
 Updating gradient with PCM contributions...
 -- total gradient after adding PCM contribution --
---------------------------------------------------
  Atom         X              Y              Z     
---------------------------------------------------
   1      -0.000335      -0.000098      -0.000413
   2      -0.000102      -0.000167       0.000159
   3       0.000148       0.000187       0.000144
   4       0.000270       0.000016       0.000101
   5       0.000045      -0.000020      -0.000063
   6      -0.000024       0.000127       0.000032
   7      -0.000002      -0.000046       0.000041
---------------------------------------------------
 Number of fixed atoms: 0
 Gradient time:  CPU 41.36 s  wall 3.29 s
 Geometry Optimization Parameters
   NAtoms,    NIC,     NZ,  NCons,   NDum,   NFix, NCnnct, MaxDiis
        7      32       0       0       0       0       0       0

 Cartesian Hessian Update
 Hessian Updated using BFGS Update


** GEOMETRY OPTIMIZATION IN DELOCALIZED INTERNAL COORDINATES **
   Searching for a Minimum

   Optimization Cycle:   5

                       Coordinates (Angstroms)
     ATOM                X               Y               Z
      1  S         1.3458964007   -0.6078291613   -0.9833466533
      2  C         0.6829670399    1.6295902316    1.3745318681
      3  O         1.1025430281   -0.9930282730    0.4776326834
      4  O         2.7967432889   -0.2163393627   -1.2488480385
      5  F         0.7215910387    2.7665714575    0.6943457882
      6  F        -0.5153204022    1.4490602258    1.9007436575
      7  F         1.6097328785    1.6253844724    2.3156203450
   Point Group: c1    Number of degrees of freedom:    15


   Energy is   -886.295039416

 Hessian Updated using BFGS Update

 15 Hessian modes will be used to form the next step
  Hessian Eigenvalues:
     0.001183    0.021483    0.023307    0.100473    0.142345    0.174512
     0.249977    0.250008    0.250078    0.348608    0.494443    0.605484
     0.615537    0.617301    0.720317

 Minimum Search - Taking Simple RFO Step
 Searching for Lamda that Minimizes Along All modes
 Value Taken    Lamda =  -0.00000551
 Step Taken.  Stepsize is  0.038528

                             Maximum     Tolerance    Cnvgd?
         Gradient           0.000386      0.000300      NO
         Displacement       0.018438      0.001200      NO
         Energy change     -0.000006      0.000001      NO


 New Cartesian Coordinates Obtained by Inverse Iteration

 Displacement from previous Coordinates is:  0.071941
 ----------------------------------------------------------------
             Standard Nuclear Orientation (Angstroms)
    I     Atom           X                Y                Z
 ----------------------------------------------------------------
    1      S       1.3393765338    -0.6119333874    -0.9765874947
    2      C       0.6885338078     1.6278462270     1.3721299694
    3      O       1.1113884131    -0.9987503334     0.4867094933
    4      O       2.7824606033    -0.1993482783    -1.2523890210
    5      F       0.7348098602     2.7650025794     0.6926906780
    6      F      -0.5160199372     1.4463456503     1.8834854450
    7      F       1.6036039916     1.6242471328     2.3246405803
 ----------------------------------------------------------------
 Nuclear Repulsion Energy =   375.0199088838 hartrees
 There are       34 alpha and       32 beta electrons
 Discretize the solute cavity surface with Lebedev spheres
	Using 194 Lebedev grid points for each H atom
	Using 194 Lebedev grid points for other atoms
	Atomic van der Waals radii will be scaled by 1.10
 Remove points where switching function is < 1.0e-08
 Keep 807 surface tesserae and discard 551 interior tesserae
 Molecular Surface Area = 154.206 Angst**2
 Applying Cartesian multipole field
    Component          Value
    ---------          -----
     (2,0,0)        1.00000E-11
     (0,2,0)        2.00000E-11
     (0,0,2)       -3.00000E-11
 Nucleus-field energy     =     0.0000000014 hartrees
 Requested basis set is 6-311++G(d)
 There are 49 shells and 162 basis functions
 A cutoff of  1.0D-12 yielded   1013 shell pairs
 There are     11686 function pairs (     12694 Cartesian)
 Smallest overlap matrix eigenvalue = 2.01E-03
 Guess MOs from SCF MO coefficient file
 Reading MOs from coefficient file
 Reading MOs from coefficient file

 -----------------------------------------------------------------------
  General SCF calculation program by
  Eric Jon Sundstrom, Paul Horn, Yuezhi Mao, Dmitri Zuev, Alec White,
  David Stuck, Shaama M.S., Shane Yost, Joonho Lee, David Small,
  Daniel Levine, Susi Lehtola, Hugh Burton, Evgeny Epifanovsky
 -----------------------------------------------------------------------
 Exchange:     0.2220 Hartree-Fock + 1.0000 wB97X-D + LR-HF
 Correlation:  1.0000 wB97X-D
 Using SG-3 standard quadrature grid
 Dispersion:   Grimme D
 using 24 threads for integral computing
 -------------------------------------------------------
 OpenMP Integral computing Module                
 Release: version 1.0, May 2013, Q-Chem Inc. Pittsburgh 
 -------------------------------------------------------
 using 24 threads for integral computing
 -------------------------------------------------------
 OpenMP Integral computing Module                
 Release: version 1.0, May 2013, Q-Chem Inc. Pittsburgh 
 -------------------------------------------------------
 -------------------------------------------------------
 OpenMP BLAS3 based DFT computing Module                
 Release: version 1.0, May 2013, Q-Chem Inc. Pittsburgh 
 -------------------------------------------------------
 A unrestricted SCF calculation will be
 performed using Roothaan-Hall, GDM
 SCF converges when RMS gradient is below 1.0e-08
 ---------------------------------------
  Cycle       Energy         DIIS error
 ---------------------------------------
    1    -876.1332413513      3.08e-04  Roothaan Step
 ---------------------------------------
  Cycle       Energy        RMS Gradient
 ---------------------------------------
    1    -886.2928164213      2.33e-02   Normal BFGS step
    2    -886.2936273469      1.86e-02   Normal BFGS step
[...]
    7      F       1.6672436791     1.6180907328     2.2384172844
 ----------------------------------------------------------------
 Nuclear Repulsion Energy =   376.0211270326 hartrees
 There are       34 alpha and       32 beta electrons
 Discretize the solute cavity surface with Lebedev spheres
	Using 194 Lebedev grid points for each H atom
	Using 194 Lebedev grid points for other atoms
	Atomic van der Waals radii will be scaled by 1.10
 Remove points where switching function is < 1.0e-08
 Keep 810 surface tesserae and discard 548 interior tesserae
 Molecular Surface Area = 154.008 Angst**2
 Applying Cartesian multipole field
    Component          Value
    ---------          -----
     (2,0,0)        1.00000E-11
     (0,2,0)        2.00000E-11
     (0,0,2)       -3.00000E-11
 Nucleus-field energy     =     0.0000000021 hartrees
 Requested basis set is 6-311++G(d)
 There are 49 shells and 162 basis functions
 A cutoff of  1.0D-12 yielded   1016 shell pairs
 There are     11723 function pairs (     12732 Cartesian)
 Smallest overlap matrix eigenvalue = 2.03E-03
 Guess MOs from SCF MO coefficient file
 Reading MOs from coefficient file
 Reading MOs from coefficient file

 -----------------------------------------------------------------------
  General SCF calculation program by
  Eric Jon Sundstrom, Paul Horn, Yuezhi Mao, Dmitri Zuev, Alec White,
  David Stuck, Shaama M.S., Shane Yost, Joonho Lee, David Small,
  Daniel Levine, Susi Lehtola, Hugh Burton, Evgeny Epifanovsky
 -----------------------------------------------------------------------
 Exchange:     0.2220 Hartree-Fock + 1.0000 wB97X-D + LR-HF
 Correlation:  1.0000 wB97X-D
 Using SG-3 standard quadrature grid
 Dispersion:   Grimme D
 using 24 threads for integral computing
 -------------------------------------------------------
 OpenMP Integral computing Module                
 Release: version 1.0, May 2013, Q-Chem Inc. Pittsburgh 
 -------------------------------------------------------
 using 24 threads for integral computing
 -------------------------------------------------------
 OpenMP Integral computing Module                
 Release: version 1.0, May 2013, Q-Chem Inc. Pittsburgh 
 -------------------------------------------------------
 -------------------------------------------------------
 OpenMP BLAS3 based DFT computing Module                
 Release: version 1.0, May 2013, Q-Chem Inc. Pittsburgh 
 -------------------------------------------------------
 A unrestricted SCF calculation will be
 performed using Roothaan-Hall, GDM
 SCF converges when RMS gradient is below 1.0e-08
 ---------------------------------------
  Cycle       Energy         DIIS error
 ---------------------------------------
    1    -876.0831752907      3.71e-04  Roothaan Step
 ---------------------------------------
  Cycle       Energy        RMS Gradient
 ---------------------------------------
    1    -886.2927730431      2.28e-02   Normal BFGS step
    2    -886.2937115108      1.85e-02   Normal BFGS step
    3    -886.2949922455      2.35e-03   Normal BFGS step
    4    -886.2950460811      1.48e-03   Normal BFGS step
    5    -886.2950554741      7.73e-04   Normal BFGS step
    6    -886.2950580057      3.77e-04   Normal BFGS step
    7    -886.2950586099      2.98e-04   Normal BFGS step
    8    -886.2950588208      9.40e-05   Normal BFGS step
    9    -886.2950588854      3.96e-05   Normal BFGS step
   10    -886.2950588913      1.94e-05   Normal BFGS step
   11    -886.2950588931      7.16e-06   Normal BFGS step
   12    -886.2950588934      3.11e-06   Normal BFGS step
   13    -886.2950588935      1.26e-06   Normal BFGS step
   14    -886.2950588936      4.04e-07   Normal BFGS step
   15    -886.2950588936      1.68e-07   Normal BFGS step
   16    -886.2950588936      1.05e-07   Normal BFGS step
   17    -886.2950588936      4.75e-08   Normal BFGS step
   18    -886.2950588936      2.16e-08   Normal BFGS step
   19    -886.2950588936      1.08e-08   Normal BFGS step
   20    -886.2950588936      2.14e-09  Convergence criterion met
 ---------------------------------------
 SCF time:   CPU 524.30s  wall 27.00s 
<S^2> =          2.006754326

************** Final PCM Free Energy Summary **************
 G_electrostatic  =      -0.09230328 hartree =     -57.92118493 kcal/mol
 G_cavitation     =       0.00000000 hartree =       0.00000000 kcal/mol
 G_dispersion     =       0.00000000 hartree =       0.00000000 kcal/mol
 G_repulsion      =       0.00000000 hartree =       0.00000000 kcal/mol
 --------------------------------------------------
 Non-electrostatic Free Energy =       0.00000000 hartree =       0.00000000 kcal/mol
 Total                         =      -0.09230328 hartree =     -57.92118493 kcal/mol
 --------------------------------------------------
 SCF Energy (H0 + V/2)                       =    -886.29505889 
 Solute Internal Energy (H0)                 =    -886.20275561 
 Total Free Energy (H0 + V/2 + non-elec)     =    -886.29505889 hartree
                                             = -556158.54355621 kcal/mol
***********************************************************

 SCF   energy in the final basis set =     -886.2950588936
 Total energy in the final basis set =     -886.2950588936
 
 --------------------------------------------------------------
 
                    Orbital Energies (a.u.)
 --------------------------------------------------------------
 
 Alpha MOs
 -- Occupied --
-89.076 -24.862 -24.862 -24.862 -19.206 -19.205 -10.539  -8.113
 -6.062  -6.060  -6.057  -1.448  -1.361  -1.360  -1.128  -1.040
 -0.816  -0.710  -0.710  -0.680  -0.674  -0.584  -0.584  -0.549
 -0.549  -0.524  -0.499  -0.497  -0.488  -0.393  -0.353  -0.352
 -0.337  -0.233
 -- Virtual --
  0.082   0.091   0.093   0.095   0.122   0.124   0.128   0.179
  0.187   0.196   0.238   0.251   0.257   0.265   0.271   0.280
  0.288   0.306   0.324   0.334   0.343   0.350   0.364   0.381
  0.388   0.402   0.410   0.411   0.423   0.430   0.435   0.456
  0.466   0.498   0.510   0.526   0.655   0.715   0.724   0.815
  0.837   0.852   0.892   0.931   1.092   1.135   1.174   1.188
  1.198   1.214   1.224   1.228   1.268   1.288   1.369   1.389
  1.412   1.481   1.493   1.499   1.513   1.539   1.542   1.581
  1.669   1.683   1.763   1.808   1.867   1.913   1.926   1.939
  1.958   2.128   2.762   2.936   2.944   2.944   2.962   2.981
  3.016   3.025   3.038   3.050   3.173   3.433   3.624   3.778
  3.814   3.814   3.815   3.832   3.836   3.837   3.950   3.951
  4.175   4.291   4.293   4.406   4.977   4.985   5.083   5.118
  5.140   5.155   5.205   5.307   6.335   6.338   6.410   6.418
  6.426   6.428   6.435   6.861   6.868   8.125  17.396  17.471
 17.539  23.591  50.022  50.026  66.859  66.865  66.907 189.358
 
 Beta MOs
 -- Occupied --
-89.073 -24.859 -24.859 -24.859 -19.199 -19.198 -10.524  -8.110
 -6.060  -6.055  -6.049  -1.438  -1.353  -1.352  -1.112  -1.024
 -0.798  -0.700  -0.700  -0.651  -0.637  -0.575  -0.574  -0.540
 -0.540  -0.521  -0.486  -0.478  -0.454  -0.343  -0.336  -0.332
 -- Virtual --
 -0.012   0.022   0.086   0.094   0.097   0.098   0.126   0.127
  0.131   0.183   0.194   0.207   0.241   0.262   0.272   0.275
  0.284   0.291   0.296   0.313   0.330   0.340   0.347   0.354
  0.368   0.383   0.391   0.407   0.412   0.416   0.428   0.431
  0.439   0.460   0.469   0.500   0.511   0.530   0.680   0.721
  0.732   0.837   0.861   0.870   0.917   0.945   1.097   1.142
  1.195   1.201   1.208   1.222   1.233   1.241   1.274   1.305
  1.376   1.397   1.417   1.482   1.503   1.510   1.522   1.554
  1.556   1.626   1.678   1.699   1.792   1.816   1.881   1.922
  1.954   1.957   1.961   2.134   2.819   2.957   2.965   2.966
  2.968   3.004   3.032   3.047   3.059   3.073   3.179   3.445
  3.635   3.782   3.819   3.820   3.821   3.840   3.843   3.844
  3.961   3.962   4.184   4.299   4.301   4.416   4.985   4.994
  5.091   5.144   5.148   5.168   5.231   5.314   6.340   6.344
  6.418   6.424   6.428   6.433   6.442   6.868   6.875   8.128
 17.409  17.473  17.542  23.617  50.028  50.032  66.861  66.868
 66.909 189.361
 --------------------------------------------------------------
 
          Ground-State Mulliken Net Atomic Charges

     Atom                 Charge (a.u.)    Spin (a.u.)
  --------------------------------------------------------
      1 S                     0.280148       0.621555
      2 C                     0.199773       0.854376
      3 O                    -0.595179       0.214660
      4 O                    -0.628196       0.196865
      5 F                    -0.084759       0.037929
      6 F                    -0.086344       0.037823
      7 F                    -0.085443       0.036792
  --------------------------------------------------------
  Sum of atomic charges =    -1.000000
  Sum of spin   charges =     2.000000

 -----------------------------------------------------------------
                    Cartesian Multipole Moments
 -----------------------------------------------------------------
    Charge (ESU x 10^10)
                -4.8032
    Dipole Moment (Debye)
         X      -9.4419      Y       1.9700      Z       0.5028
       Tot       9.6583
    Quadrupole Moments (Debye-Ang)
        XX     -72.0134     XY       2.0624     YY     -51.7247
        XZ       6.1494     YZ       1.1141     ZZ     -52.5805
    Octopole Moments (Debye-Ang^2)
       XXX    -239.2627    XXY     -21.3139    XYY     -59.9680
       YYY     -70.1712    XXZ       6.0541    XYZ       0.8798
       YYZ     -16.9803    XZZ     -68.3178    YZZ     -22.5562
       ZZZ     -43.7957
    Hexadecapole Moments (Debye-Ang^3)
      XXXX    -864.6220   XXXY     -14.7400   XXYY    -209.8926
      XYYY     -21.2129   YYYY    -600.9540   XXXZ     108.2059
      XXYZ     -62.3114   XYYZ       8.7872   YYYZ    -174.0049
      XXZZ    -232.6448   XYZZ      -6.8459   YYZZ    -182.9904
      XZZZ      44.0801   YZZZ    -182.4825   ZZZZ    -524.5440
 -----------------------------------------------------------------
 Calculating analytic gradient of the SCF energy
 Gradient of SCF Energy
            1           2           3           4           5           6
    1   0.0039052  -0.0050916   0.0041620  -0.0063029   0.0004258   0.0207447
    2  -0.0044885   0.0211724   0.0008628  -0.0020474  -0.0175987   0.0031318
    3  -0.0023813   0.0211383  -0.0057549   0.0045571   0.0106041  -0.0104163
            7
    1  -0.0178433
    2  -0.0010324
    3  -0.0177469
 Max gradient component =       2.117E-02
 RMS gradient           =       1.130E-02
 Computing fast CPCM-SWIG gradient
 Updating gradient with PCM contributions...
 -- total gradient after adding PCM contribution --
---------------------------------------------------
  Atom         X              Y              Z     
---------------------------------------------------
   1      -0.000055      -0.000011      -0.000152
   2      -0.000037       0.000155       0.000032
   3       0.000009      -0.000045       0.000097
   4       0.000036       0.000008       0.000009
   5      -0.000009      -0.000028       0.000051
   6       0.000040      -0.000053      -0.000017
   7       0.000016      -0.000025      -0.000022
---------------------------------------------------
 Number of fixed atoms: 0
 Gradient time:  CPU 40.14 s  wall 2.79 s
 Geometry Optimization Parameters
   NAtoms,    NIC,     NZ,  NCons,   NDum,   NFix, NCnnct, MaxDiis
        7      32       0       0       0       0       0       0

 Cartesian Hessian Update
 Hessian Updated using BFGS Update


** GEOMETRY OPTIMIZATION IN DELOCALIZED INTERNAL COORDINATES **
   Searching for a Minimum

   Optimization Cycle:  13

                       Coordinates (Angstroms)
     ATOM                X               Y               Z
      1  S         1.3552649364   -0.6235230673   -0.9815912159
      2  C         0.6960620357    1.6286878008    1.3439248513
      3  O         1.0163305315   -1.0557806569    0.4461518105
      4  O         2.7887069743   -0.1178323428   -1.1148538093
      5  F         0.6948408481    2.7726170596    0.6760823833
      6  F        -0.4742957326    1.4311500642    1.9225483460
      7  F         1.6672436791    1.6180907328    2.2384172844
   Point Group: c1    Number of degrees of freedom:    15


   Energy is   -886.295058894

 Hessian Updated using BFGS Update

 15 Hessian modes will be used to form the next step
  Hessian Eigenvalues:
     0.000351    0.004042    0.022161    0.051321    0.129685    0.175063
     0.249236    0.250805    0.258926    0.345314    0.472221    0.604024
     0.615143    0.616827    0.693734

 Minimum Search - Taking Simple RFO Step
 Searching for Lamda that Minimizes Along All modes
 Value Taken    Lamda =   0.00000000
 Step Taken.  Stepsize is  0.040312

                             Maximum     Tolerance    Cnvgd?
         Gradient           0.000144      0.000300     YES
         Displacement       0.025094      0.001200      NO
         Energy change     -0.000000      0.000001     YES


                       Distance Matrix (Angstroms)
             S (  1)   C (  2)   O (  3)   O (  4)   F (  5)   F (  6)
   C (  2)  3.303790
   O (  3)  1.529762  2.848673
   O (  4)  1.525857  3.670843  2.541221
   F (  5)  3.836380  1.324609  3.848747  3.993298
   F (  6)  4.000375  1.320441  3.253696  4.719359  2.172577
   F (  7)  3.935812  1.320387  3.284127  3.938977  2.172415  2.172766

 
 Final energy is   -886.295058893551     


 ******************************
 **  OPTIMIZATION CONVERGED  **
 ******************************

                       Coordinates (Angstroms)
     ATOM                X               Y               Z
      1  S         1.3552649364   -0.6235230673   -0.9815912159
      2  C         0.6960620357    1.6286878008    1.3439248513
      3  O         1.0163305315   -1.0557806569    0.4461518105
      4  O         2.7887069743   -0.1178323428   -1.1148538093
      5  F         0.6948408481    2.7726170596    0.6760823833
      6  F        -0.4742957326    1.4311500642    1.9225483460
      7  F         1.6672436791    1.6180907328    2.2384172844

Z-matrix Print:
$molecule
-1 3
S 
O  1 1.525857
O  1 1.529762 2 112.538192
C  3 2.848673 1 93.024858 2 77.514993 0
F  4 1.320387 3 97.079371 1 -117.988573 0
F  4 1.320441 3 95.553459 1 130.274787 0
F  4 1.324609 3 130.921645 1 6.992706 0
$end

 
 --------------------------------------------------------------
 
                    Orbital Energies (a.u.)
 --------------------------------------------------------------
 
 Alpha MOs
 -- Occupied --
-89.076 -24.862 -24.862 -24.862 -19.206 -19.205 -10.539  -8.113
 -6.062  -6.060  -6.057  -1.448  -1.361  -1.360  -1.128  -1.040
 -0.816  -0.710  -0.710  -0.680  -0.674  -0.584  -0.584  -0.549
 -0.549  -0.524  -0.499  -0.497  -0.488  -0.393  -0.353  -0.352
 -0.337  -0.233
 -- Virtual --
  0.082   0.091   0.093   0.095   0.122   0.124   0.128   0.179
  0.187   0.196   0.238   0.251   0.257   0.265   0.271   0.280
  0.288   0.306   0.324   0.334   0.343   0.350   0.364   0.381
  0.388   0.402   0.410   0.411   0.423   0.430   0.435   0.456
  0.466   0.498   0.510   0.526   0.655   0.715   0.724   0.815
  0.837   0.852   0.892   0.931   1.092   1.135   1.174   1.188
  1.198   1.214   1.224   1.228   1.268   1.288   1.369   1.389
  1.412   1.481   1.493   1.499   1.513   1.539   1.542   1.581
  1.669   1.683   1.763   1.808   1.867   1.913   1.926   1.939
  1.958   2.128   2.762   2.936   2.944   2.944   2.962   2.981
  3.016   3.025   3.038   3.050   3.173   3.433   3.624   3.778
  3.814   3.814   3.815   3.832   3.836   3.837   3.950   3.951
  4.175   4.291   4.293   4.406   4.977   4.985   5.083   5.118
  5.140   5.155   5.205   5.307   6.335   6.338   6.410   6.418
  6.426   6.428   6.435   6.861   6.868   8.125  17.396  17.471
 17.539  23.591  50.022  50.026  66.859  66.865  66.907 189.358
 
 Beta MOs
 -- Occupied --
-89.073 -24.859 -24.859 -24.859 -19.199 -19.198 -10.524  -8.110
 -6.060  -6.055  -6.049  -1.438  -1.353  -1.352  -1.112  -1.024
 -0.798  -0.700  -0.700  -0.651  -0.637  -0.575  -0.574  -0.540
 -0.540  -0.521  -0.486  -0.478  -0.454  -0.343  -0.336  -0.332
 -- Virtual --
 -0.012   0.022   0.086   0.094   0.097   0.098   0.126   0.127
  0.131   0.183   0.194   0.207   0.241   0.262   0.272   0.275
  0.284   0.291   0.296   0.313   0.330   0.340   0.347   0.354
  0.368   0.383   0.391   0.407   0.412   0.416   0.428   0.431
  0.439   0.460   0.469   0.500   0.511   0.530   0.680   0.721
  0.732   0.837   0.861   0.870   0.917   0.945   1.097   1.142
  1.195   1.201   1.208   1.222   1.233   1.241   1.274   1.305
  1.376   1.397   1.417   1.482   1.503   1.510   1.522   1.554
  1.556   1.626   1.678   1.699   1.792   1.816   1.881   1.922
  1.954   1.957   1.961   2.134   2.819   2.957   2.965   2.966
  2.968   3.004   3.032   3.047   3.059   3.073   3.179   3.445
  3.635   3.782   3.819   3.820   3.821   3.840   3.843   3.844
  3.961   3.962   4.184   4.299   4.301   4.416   4.985   4.994
  5.091   5.144   5.148   5.168   5.231   5.314   6.340   6.344
  6.418   6.424   6.428   6.433   6.442   6.868   6.875   8.128
 17.409  17.473  17.542  23.617  50.028  50.032  66.861  66.868
 66.909 189.361
 --------------------------------------------------------------
 
          Ground-State Mulliken Net Atomic Charges

     Atom                 Charge (a.u.)    Spin (a.u.)
  --------------------------------------------------------
      1 S                     0.280148       0.621555
      2 C                     0.199773       0.854376
      3 O                    -0.595179       0.214660
      4 O                    -0.628196       0.196865
      5 F                    -0.084759       0.037929
      6 F                    -0.086344       0.037823
      7 F                    -0.085443       0.036792
  --------------------------------------------------------
  Sum of atomic charges =    -1.000000
  Sum of spin   charges =     2.000000

 -----------------------------------------------------------------
                    Cartesian Multipole Moments
 -----------------------------------------------------------------
    Charge (ESU x 10^10)
                -4.8032
    Dipole Moment (Debye)
         X      -9.4419      Y       1.9700      Z       0.5028
       Tot       9.6583
    Quadrupole Moments (Debye-Ang)
        XX     -72.0134     XY       2.0624     YY     -51.7247
        XZ       6.1494     YZ       1.1141     ZZ     -52.5805
    Octopole Moments (Debye-Ang^2)
       XXX    -239.2627    XXY     -21.3139    XYY     -59.9680
       YYY     -70.1712    XXZ       6.0541    XYZ       0.8798
       YYZ     -16.9803    XZZ     -68.3178    YZZ     -22.5562
       ZZZ     -43.7957
    Hexadecapole Moments (Debye-Ang^3)
      XXXX    -864.6220   XXXY     -14.7400   XXYY    -209.8926
      XYYY     -21.2129   YYYY    -600.9540   XXXZ     108.2059
      XXYZ     -62.3114   XYYZ       8.7872   YYYZ    -174.0049
      XXZZ    -232.6448   XYZZ      -6.8459   YYZZ    -182.9904
      XZZZ      44.0801   YZZZ    -182.4825   ZZZZ    -524.5440
 -----------------------------------------------------------------
Archival summary:
1\1\nid04092\OPT\ProcedureUnspecified\BasisUnspecified\1321(1-,3)\sblau\TueNov1319:44:162018TueNov1319:44:162018\0\\#,OPT,ProcedureUnspecified,BasisUnspecified,\\-1,3\S\O,1,1.52586\O,1,1.52976,2,112.538\C,3,2.84867,1,93.0249,2,77.515,0\F,4,1.32039,3,97.0794,1,-117.989,0\F,4,1.32044,3,95.5535,1,130.275,0\F,4,1.32461,3,130.922,1,6.99271,0\\\@

 Total job time:  391.03s(wall), 7508.89s(cpu) 
 Tue Nov 13 19:44:16 2018

        *************************************************************
        *                                                           *
        *  Thank you very much for using Q-Chem.  Have a nice day.  *
        *                                                           *
        *************************************************************


