 running on    8 total cores
 distrk:  each k-point on    8 cores,    1 groups
 distr:  one band on    2 cores,    4 groups
 using from now: INCAR
 vasp.5.3.5 31Mar14 (build Sep 02 2014 18:36:44) complex

 POSCAR found type information on POSCAR  La Co O
 POSCAR found :  3 types and      20 ions
 scaLAPACK will be used
 LDA part: xc-table for Pade appr. of Perdew
 POSCAR, INCAR and KPOINTS ok, starting setup
 FFT: planning ...
 WAVECAR not read
 WARNING: chargedensity file is incomplete
 entering main loop
       N       E                     dE             d eps       ncg     rms          rms(c)
DAV:   1     0.235033744947E+04    0.23503E+04   -0.56093E+04 20752   0.245E+03
DAV:   2     0.762108237309E+03   -0.15882E+04   -0.14291E+04 21176   0.581E+02
DAV:   3     0.826590943062E+02   -0.67945E+03   -0.62332E+03 22812   0.309E+02
DAV:   4    -0.125343520934E+03   -0.20800E+03   -0.19690E+03 30324   0.160E+02
DAV:   5    -0.152976283525E+03   -0.27633E+02   -0.25788E+02 34956   0.675E+01    0.529E+01
RMM:   6    -0.141911598016E+03    0.11065E+02   -0.64294E+02 29814   0.254E+02    0.461E+01
RMM:   7    -0.115218978383E+03    0.26693E+02   -0.51911E+02 27768   0.130E+02    0.166E+01
RMM:   8    -0.121150914955E+03   -0.59319E+01   -0.15957E+02 28304   0.440E+01    0.108E+01
RMM:   9    -0.125013990333E+03   -0.38631E+01   -0.45655E+01 28251   0.216E+01    0.186E+01
RMM:  10    -0.123353881175E+03    0.16601E+01   -0.14079E+01 27999   0.114E+01    0.822E+00
RMM:  11    -0.124324976309E+03   -0.97110E+00   -0.57142E+00 28701   0.687E+00    0.115E+01
RMM:  12    -0.124249036235E+03    0.75940E-01   -0.36516E+00 27037   0.672E+00    0.703E+00
RMM:  13    -0.124275134043E+03   -0.26098E-01   -0.17618E+00 28690   0.385E+00    0.522E+00
RMM:  14    -0.124448234958E+03   -0.17310E+00   -0.80641E-01 29697   0.228E+00    0.530E+00
RMM:  15    -0.124313571132E+03    0.13466E+00   -0.40824E-01 28044   0.221E+00    0.452E+00
RMM:  16    -0.124273021625E+03    0.40550E-01   -0.27455E-01 28260   0.190E+00    0.420E+00
RMM:  17    -0.124204247366E+03    0.68774E-01   -0.41329E-01 26133   0.258E+00    0.280E+00
RMM:  18    -0.124283773808E+03   -0.79526E-01   -0.15696E-01 26100   0.161E+00    0.292E+00
RMM:  19    -0.124264752724E+03    0.19021E-01   -0.39164E-02 25349   0.582E-01    0.285E+00
RMM:  20    -0.124246205941E+03    0.18547E-01   -0.99968E-03 16854   0.540E-01    0.250E+00
RMM:  21    -0.124274155969E+03   -0.27950E-01   -0.58918E-02 23636   0.118E+00    0.177E+00
RMM:  22    -0.124307986797E+03   -0.33831E-01   -0.38987E-02 23504   0.919E-01    0.192E+00
RMM:  23    -0.124324954179E+03   -0.16967E-01   -0.54369E-02 23760   0.113E+00    0.202E+00
RMM:  24    -0.124332041921E+03   -0.70877E-02   -0.18926E-02 20747   0.676E-01    0.128E+00
RMM:  25    -0.124348866238E+03   -0.16824E-01   -0.39778E-02 23905   0.980E-01    0.693E-01
RMM:  26    -0.124372577176E+03   -0.23711E-01   -0.44536E-02 23624   0.972E-01    0.747E-01
RMM:  27    -0.124384205625E+03   -0.11628E-01   -0.25228E-02 19383   0.736E-01    0.838E-01
RMM:  28    -0.124398121155E+03   -0.13916E-01   -0.18683E-02 19287   0.701E-01    0.719E-01
RMM:  29    -0.124403270322E+03   -0.51492E-02   -0.30420E-02 21225   0.845E-01    0.365E-01
RMM:  30    -0.124403772635E+03   -0.50231E-03   -0.54100E-03 13559   0.487E-01
   1 F= -.12440377E+03 E0= -.12439780E+03  d E =-.124404E+03  mag=     4.0083
 curvature:   0.00 expect dE= 0.000E+00 dE for cont linesearch  0.000E+00
 trial: gam= 0.00000 g(F)=  0.492E+02 g(S)=  0.610E+02 ort = 0.000E+00 (trialstep = 0.100E+01)
 search vector abs. value=  0.110E+03
 bond charge predicted
       N       E                     dE             d eps       ncg     rms          rms(c)
DAV:   1    -0.228351418975E+03   -0.10395E+03   -0.14388E+04 23248   0.413E+02    0.222E+02
RMM:   2    -0.392482697441E+03   -0.16413E+03   -0.58479E+03 32406   0.398E+02    0.907E+01
RMM:   3    -0.402249608470E+03   -0.97669E+01   -0.43816E+03 29369   0.521E+02    0.737E+01
RMM:   4    -0.285810699629E+03    0.11644E+03   -0.15729E+03 29696   0.234E+02    0.623E+01
RMM:   5    -0.259354069608E+03    0.26457E+02   -0.87678E+02 30897   0.936E+01    0.561E+01
RMM:   6    -0.206958141695E+03    0.52396E+02   -0.27115E+02 27613   0.594E+01    0.455E+01
RMM:   7    -0.200579594397E+03    0.63785E+01   -0.77700E+02 30121   0.819E+01    0.594E+01
RMM:   8    -0.217291606338E+03   -0.16712E+02   -0.69625E+02 29554   0.926E+01    0.794E+01
RMM:   9    -0.136216318571E+03    0.81075E+02   -0.26394E+02 21676   0.103E+02    0.449E+01
RMM:  10    -0.135532849302E+03    0.68347E+00   -0.10939E+02 27847   0.319E+01    0.349E+01
RMM:  11    -0.128438035779E+03    0.70948E+01   -0.80851E+01 26762   0.335E+01    0.255E+01
RMM:  12    -0.129203787554E+03   -0.76575E+00   -0.20705E+01 30698   0.102E+01    0.239E+01
RMM:  13    -0.130040476688E+03   -0.83669E+00   -0.60966E+00 32934   0.555E+00    0.248E+01
RMM:  14    -0.131054120660E+03   -0.10136E+01   -0.13827E+00 29454   0.423E+00    0.249E+01
RMM:  15    -0.131244027909E+03   -0.18991E+00   -0.87139E-01 32541   0.224E+00    0.270E+01
RMM:  16    -0.131219204149E+03    0.24824E-01   -0.33129E-01 31584   0.177E+00    0.257E+01
RMM:  17    -0.131746577618E+03   -0.52737E+00   -0.29610E-01 29749   0.162E+00    0.266E+01
RMM:  18    -0.133355805111E+03   -0.16092E+01   -0.26688E+00 26522   0.490E+00    0.276E+01
RMM:  19    -0.132771153847E+03    0.58465E+00   -0.79534E-01 29645   0.239E+00    0.264E+01
RMM:  20    -0.133346826020E+03   -0.57567E+00   -0.12769E+00 25264   0.504E+00    0.266E+01
RMM:  21    -0.133430215072E+03   -0.83389E-01   -0.42597E-01 27185   0.151E+00    0.268E+01
RMM:  22    -0.133092991209E+03    0.33722E+00   -0.25138E+00 26560   0.462E+00    0.263E+01
RMM:  23    -0.132247941615E+03    0.84505E+00   -0.17438E+00 28114   0.394E+00    0.255E+01
RMM:  24    -0.129100015192E+03    0.31479E+01   -0.49963E+00 26533   0.836E+00    0.247E+01
RMM:  25    -0.122737458481E+03    0.63626E+01   -0.14615E+01 26660   0.124E+01    0.258E+01
RMM:  26    -0.101667663650E+03    0.21070E+02   -0.53472E+01 27462   0.190E+01    0.666E+01
RMM:  27    -0.104688781283E+03   -0.30211E+01   -0.21919E+01 28902   0.937E+00    0.797E+01
RMM:  28    -0.106285124258E+03   -0.15963E+01   -0.88520E+00 30419   0.526E+00    0.867E+01
RMM:  29    -0.107537289399E+03   -0.12522E+01   -0.40059E+00 29397   0.341E+00    0.909E+01
RMM:  30    -0.106553414113E+03    0.98388E+00   -0.17132E+00 27160   0.294E+00    0.915E+01
RMM:  31    -0.106765092391E+03   -0.21168E+00   -0.94508E-01 26626   0.250E+00    0.863E+01
RMM:  32    -0.106803251307E+03   -0.38159E-01   -0.43555E-01 25589   0.129E+00    0.848E+01
RMM:  33    -0.107319998273E+03   -0.51675E+00   -0.21311E-01 24149   0.114E+00    0.848E+01
RMM:  34    -0.106527832192E+03    0.79217E+00   -0.46417E-01 25676   0.234E+00    0.759E+01
RMM:  35    -0.106102748261E+03    0.42508E+00   -0.25829E-01 25580   0.140E+00    0.733E+01
RMM:  36    -0.106223748993E+03   -0.12100E+00   -0.65812E-02 22464   0.851E-01    0.728E+01
RMM:  37    -0.106249596089E+03   -0.25847E-01   -0.40253E-02 20576   0.684E-01    0.737E+01
RMM:  38    -0.106185475762E+03    0.64120E-01   -0.11817E-02 17860   0.444E-01    0.740E+01
RMM:  39    -0.105470447083E+03    0.71503E+00   -0.96130E-02 22889   0.123E+00    0.716E+01
RMM:  40    -0.105799008926E+03   -0.32856E+00   -0.50797E-02 22283   0.735E-01    0.718E+01
RMM:  41    -0.105731057895E+03    0.67951E-01   -0.84230E-02 23725   0.940E-01    0.678E+01
RMM:  42    -0.105608494092E+03    0.12256E+00   -0.39316E-02 19615   0.833E-01    0.669E+01
RMM:  43    -0.105318714001E+03    0.28978E+00   -0.28853E-02 19743   0.755E-01    0.665E+01
RMM:  44    -0.105310097247E+03    0.86168E-02   -0.66233E-03 16007   0.411E-01    0.663E+01
RMM:  45    -0.105402889991E+03   -0.92793E-01   -0.17072E-02 18313   0.545E-01    0.647E+01
RMM:  46    -0.105396839325E+03    0.60507E-02   -0.10617E-02 16623   0.516E-01    0.645E+01
RMM:  47    -0.970145218937E+02    0.83823E+01   -0.11779E+01 24625   0.163E+01    0.375E+01
RMM:  48    -0.110307015979E+03   -0.13292E+02   -0.14385E+01 27683   0.104E+01    0.340E+01
RMM:  49    -0.119122032227E+03   -0.88150E+01   -0.20698E+01 27989   0.112E+01    0.257E+01
RMM:  50    -0.118593454351E+03    0.52858E+00   -0.78306E+00 28826   0.687E+00    0.253E+01
RMM:  51    -0.118876544269E+03   -0.28309E+00   -0.62918E+00 28418   0.605E+00    0.234E+01
RMM:  52    -0.118772086302E+03    0.10446E+00   -0.13467E+01 25690   0.148E+01    0.129E+01
RMM:  53    -0.119737096375E+03   -0.96501E+00   -0.85335E+00 27991   0.814E+00    0.135E+01
RMM:  54    -0.120253118065E+03   -0.51602E+00   -0.29865E+00 29972   0.366E+00    0.140E+01
RMM:  55    -0.120675277507E+03   -0.42216E+00   -0.94132E-01 28421   0.252E+00    0.145E+01
RMM:  56    -0.120576779717E+03    0.98498E-01   -0.31090E-01 27007   0.135E+00    0.143E+01
RMM:  57    -0.120092642629E+03    0.48414E+00   -0.32469E+00 26697   0.498E+00    0.138E+01
RMM:  58    -0.121228759664E+03   -0.11361E+01   -0.11524E+00 25887   0.400E+00    0.149E+01
RMM:  59    -0.121780427868E+03   -0.55167E+00   -0.96957E-01 26839   0.238E+00    0.171E+01
RMM:  60    -0.122049207757E+03   -0.26878E+00   -0.68387E-01 26067   0.269E+00    0.169E+01
RMM:  61    -0.122110106537E+03   -0.60899E-01   -0.29359E-01 25531   0.129E+00    0.172E+01
RMM:  62    -0.122012581934E+03    0.97525E-01   -0.60068E+00 25583   0.987E+00    0.152E+01
RMM:  63    -0.121134961974E+03    0.87762E+00   -0.22459E+00 26064   0.618E+00    0.108E+01
RMM:  64    -0.120996545062E+03    0.13842E+00   -0.15091E+00 27418   0.329E+00    0.929E+00
RMM:  65    -0.121105722819E+03   -0.10918E+00   -0.50066E-01 26613   0.220E+00    0.105E+01
RMM:  66    -0.121020339414E+03    0.85383E-01   -0.10658E-01 24659   0.121E+00    0.956E+00
RMM:  67    -0.121361737364E+03   -0.34140E+00   -0.70560E-01 25767   0.304E+00    0.116E+01
RMM:  68    -0.122469038451E+03   -0.11073E+01   -0.10845E+00 25957   0.346E+00    0.134E+01
RMM:  69    -0.121220167329E+03    0.12489E+01   -0.59904E-01 24793   0.239E+00    0.109E+01
RMM:  70    -0.121184440499E+03    0.35727E-01   -0.13451E-01 23164   0.929E-01    0.107E+01
RMM:  71    -0.121295012815E+03   -0.11057E+00   -0.24867E-02 19184   0.640E-01    0.109E+01
RMM:  72    -0.121706561697E+03   -0.41155E+00   -0.62319E-01 25072   0.262E+00    0.121E+01
RMM:  73    -0.121234256289E+03    0.47231E+00   -0.14074E-01 23557   0.161E+00    0.118E+01
RMM:  74    -0.121900527245E+03   -0.66627E+00   -0.31323E-01 25171   0.198E+00    0.126E+01
RMM:  75    -0.121057451199E+03    0.84308E+00   -0.35693E-01 25071   0.174E+00    0.122E+01
RMM:  76    -0.121088257484E+03   -0.30806E-01   -0.94704E-02 21920   0.102E+00    0.121E+01
RMM:  77    -0.120878487627E+03    0.20977E+00   -0.16267E+00 26037   0.359E+00    0.102E+01
RMM:  78    -0.121050647175E+03   -0.17216E+00   -0.23504E-01 24792   0.220E+00    0.109E+01
RMM:  79    -0.121048265781E+03    0.23814E-02   -0.12263E-01 23950   0.105E+00    0.111E+01
RMM:  80    -0.120971847275E+03    0.76419E-01   -0.21902E-02 19685   0.696E-01    0.108E+01
RMM:  81    -0.120876742979E+03    0.95104E-01   -0.64493E-02 23670   0.105E+00    0.112E+01
RMM:  82    -0.121789691197E+03   -0.91295E+00   -0.14669E+00 26102   0.414E+00    0.119E+01
RMM:  83    -0.121808587415E+03   -0.18896E-01   -0.35935E-01 25277   0.267E+00    0.951E+00
RMM:  84    -0.122038439418E+03   -0.22985E+00   -0.33705E-01 25863   0.215E+00    0.101E+01
RMM:  85    -0.122045482488E+03   -0.70431E-02   -0.61405E-02 22429   0.107E+00    0.981E+00
RMM:  86    -0.121958241071E+03    0.87241E-01   -0.59160E-02 22145   0.731E-01    0.979E+00
{    0,    0}:  On entry to
PZSTEIN parameter number    4 had an illegal value
{    0,    0}:  On entry to
PZUNMTR parameter number    5 had an illegal value
 LWWORK        1700        8164         600         100
 ERROR in subspace rotation PSSYEVX: not enough eigenvalues found         430
         100
{    1,    0}:  On entry to
PZSTEIN parameter number    4 had an illegal value
{    1,    0}:  On entry to
PZUNMTR parameter number    5 had an illegal value
 LWWORK        1700        8164         600         100
 ERROR in subspace rotation PSSYEVX: not enough eigenvalues found         430