 running  128 mpi-ranks, with    1 threads/rank, on    1 nodes
 distrk:  each k-point on   64 cores,    2 groups
 distr:  one band on   16 cores,    4 groups
 vasp.6.4.1 05Apr23 (build May 18 2023 13:19:41) complex                         
 POSCAR found type information on POSCAR H 
 POSCAR found :  1 types and       8 ions
 Reading from existing POTCAR
 scaLAPACK will be used
 Reading from existing POTCAR
 LDA part: xc-table for Pade appr. of Perdew
 -----------------------------------------------------------------------------
|                                                                             |
|           W    W    AA    RRRRR   N    N  II  N    N   GGGG   !!!           |
|           W    W   A  A   R    R  NN   N  II  NN   N  G    G  !!!           |
|           W    W  A    A  R    R  N N  N  II  N N  N  G       !!!           |
|           W WW W  AAAAAA  RRRRR   N  N N  II  N  N N  G  GGG   !            |
|           WW  WW  A    A  R   R   N   NN  II  N   NN  G    G                |
|           W    W  A    A  R    R  N    N  II  N    N   GGGG   !!!           |
|                                                                             |
|     The requested file  could not be found or opened for reading            |
|     k-point information. Automatic k-point generation is used as a          |
|     fallback, which may lead to unwanted results.                           |
|                                                                             |
 -----------------------------------------------------------------------------

 INCAR ok, starting setup
 POSCAR ok, starting setup
 FFT: planning ... GRIDC
 FFT: planning ... GRID_SOFT
 FFT: planning ... GRID
 WAVECAR not read
 entering main loop
       N       E                     dE             d eps       ncg     rms          ort
DAV:   1     0.105386019810E+02    0.10539E+02   -0.28053E+03   324   0.566E+02
DAV:   2    -0.262888145732E+02   -0.36827E+02   -0.36483E+02   324   0.921E+01
DAV:   3    -0.298700081055E+02   -0.35812E+01   -0.35779E+01   324   0.313E+01
DAV:   4    -0.299076659454E+02   -0.37658E-01   -0.37656E-01   324   0.369E+00
DAV:   5    -0.299078896081E+02   -0.22366E-03   -0.22366E-03   324   0.278E-01
 gam= 0.000 g(H,U,f)=  0.296E+01 0.162E+00 0.128E-09 ort(H,U,f) = 0.000E+00 0.000E+00 0.000E+00
SDA:   6    -0.262826278852E+02    0.36253E+01   -0.22366E-03   324   0.312E+01 0.000E+00
 gam= 0.000 trial= 0.400  step= 0.449 mean= 0.400
 gam= 0.054 g(H,U,f)=  0.103E+00 0.657E-01 0.360E-14 ort(H,U,f) =-0.128E+00 0.111E+00 0.164E-13
CGA:   7    -0.269818696549E+02   -0.69924E+00   -0.70032E+00   324   0.169E+00-0.178E-01
 gam= 0.054 trial= 0.402  step= 0.961 mean= 0.402
 gam= 0.431 g(H,U,f)=  0.481E-01 0.247E-01 0.477E-11 ort(H,U,f) =-0.510E-01 0.484E-01 0.940E-11
CGA:   8    -0.270622535527E+02   -0.80384E-01   -0.80822E-01   324   0.729E-01-0.261E-02
 gam= 0.431 trial= 0.430  step= 1.032 mean= 0.430
 gam= 0.331 g(H,U,f)=  0.227E-01 0.141E-02 0.671E-13 ort(H,U,f) =-0.153E-01 0.116E-01 0.681E-12
CGA:   9    -0.270982354577E+02   -0.35982E-01   -0.37001E-01   324   0.241E-01-0.364E-02
 gam= 0.331 trial= 0.460  step= 0.778 mean= 0.460
 gam= 0.155 g(H,U,f)=  0.371E-02 0.275E-04 0.787E-18 ort(H,U,f) = 0.409E-03-0.553E-03-0.738E-17
CGA:  10    -0.271071243675E+02   -0.88889E-02   -0.89125E-02   324   0.374E-02-0.144E-03
 gam= 0.155 trial= 0.476  step= 0.801 mean= 0.476
 gam= 0.172 g(H,U,f)=  0.559E-03 0.849E-04 0.670E-17 ort(H,U,f) = 0.157E-03-0.158E-03-0.390E-17
CGA:  11    -0.271086116041E+02   -0.14872E-02   -0.14873E-02   324   0.644E-03-0.122E-05
 gam= 0.172 trial= 0.493  step= 0.848 mean= 0.493
 gam= 0.223 g(H,U,f)=  0.932E-04 0.508E-04 0.603E-18 ort(H,U,f) =-0.441E-04 0.438E-04 0.779E-18
CGA:  12    -0.271088845519E+02   -0.27295E-03   -0.27298E-03   324   0.144E-03-0.235E-06
 gam= 0.223 trial= 0.510  step= 0.958 mean= 0.510
 gam= 0.288 g(H,U,f)=  0.288E-04 0.127E-04 0.242E-17 ort(H,U,f) =-0.306E-04 0.303E-04 0.644E-17
CGA:  13    -0.271089534319E+02   -0.68880E-04   -0.68955E-04   324   0.415E-04-0.305E-06
 gam= 0.288 trial= 0.533  step= 1.054 mean= 0.533
 gam= 0.291 g(H,U,f)=  0.111E-04 0.992E-06 0.824E-18 ort(H,U,f) =-0.610E-05 0.597E-05 0.319E-17
CGA:  14    -0.271089752215E+02   -0.21790E-04   -0.21826E-04   324   0.121E-04-0.129E-06
 gam= 0.291 trial= 0.559  step= 0.967 mean= 0.559
 gam= 0.216 g(H,U,f)=  0.259E-05 0.159E-07 0.228E-16 ort(H,U,f) = 0.175E-06-0.260E-06 0.376E-16
CGA:  15    -0.271089810288E+02   -0.58072E-05   -0.58257E-05   324   0.261E-05-0.852E-07
 gam= 0.216 trial= 0.579  step= 0.908 mean= 0.579
 final diagonalization
   1 F= -.27108981E+02 E0= -.27108981E+02  d E =-.271090E+02  mag=     0.0000
 curvature:   0.00 expect dE= 0.000E+00 dE for cont linesearch  0.000E+00
 trial: gam= 0.00000 g(F)=  0.369E-01 g(S)=  0.203E-02 ort = 0.000E+00 (trialstep = 0.100E+01)
 search vector abs. value=  0.390E-01
 bond charge predicted
 wavefunctions rotated
       N       E                     dE             d eps       ncg     rms          ort
 gam= 0.000 g(H,U,f)=  0.222E+00 0.659E-04 0.203E-18 ort(H,U,f) = 0.000E+00 0.000E+00 0.000E+00
SDA:   1    -0.269855289484E+02    0.12345E+00    0.00000E+00   324   0.222E+00 0.000E+00
 gam= 0.000 trial= 0.596  step= 0.680 mean= 0.596
 gam= 0.223 g(H,U,f)=  0.488E-01 0.785E-03 0.300E-17 ort(H,U,f) = 0.897E-04-0.227E-03-0.276E-17
CGA:   2    -0.270610678221E+02   -0.75539E-01   -0.75544E-01   324   0.495E-01-0.138E-03
 gam= 0.223 trial= 0.600  step= 0.675 mean= 0.600
 gam= 0.084 g(H,U,f)=  0.390E-02 0.233E-03 0.981E-18 ort(H,U,f) =-0.416E-03 0.398E-03 0.110E-16
CGA:   3    -0.270777825588E+02   -0.16715E-01   -0.16715E-01   324   0.414E-02-0.181E-04
 gam= 0.084 trial= 0.604  step= 0.651 mean= 0.604
 gam= 0.113 g(H,U,f)=  0.376E-03 0.922E-04 0.636E-13 ort(H,U,f) =-0.169E-03 0.167E-03 0.119E-12
CGA:   4    -0.270791292755E+02   -0.13467E-02   -0.13468E-02   324   0.468E-03-0.249E-05
 gam= 0.113 trial= 0.606  step= 0.766 mean= 0.606
 gam= 0.193 g(H,U,f)=  0.569E-04 0.334E-04 0.829E-14 ort(H,U,f) =-0.671E-04 0.667E-04 0.169E-13
CGA:   5    -0.270793083626E+02   -0.17909E-03   -0.17912E-03   324   0.903E-04-0.440E-06
 gam= 0.193 trial= 0.614  step= 0.964 mean= 0.614
 gam= 0.285 g(H,U,f)=  0.194E-04 0.637E-05 0.537E-15 ort(H,U,f) =-0.202E-04 0.202E-04 0.180E-14
CGA:   6    -0.270793518262E+02   -0.43464E-04   -0.43475E-04   324   0.257E-04-0.597E-07
 gam= 0.285 trial= 0.631  step= 0.963 mean= 0.631
 gam= 0.200 g(H,U,f)=  0.480E-05 0.348E-06 0.113E-16 ort(H,U,f) =-0.284E-05 0.283E-05 0.111E-15
CGA:   7    -0.270793642083E+02   -0.12382E-04   -0.12383E-04   324   0.515E-05-0.585E-08
 gam= 0.200 trial= 0.648  step= 0.829 mean= 0.648
 gam= 0.126 g(H,U,f)=  0.644E-06 0.249E-08 0.193E-18 ort(H,U,f) =-0.703E-07 0.763E-07-0.369E-17
CGA:   8    -0.270793663412E+02   -0.21329E-05   -0.21324E-05   324   0.647E-06 0.606E-08
 gam= 0.126 trial= 0.657  step= 0.786 mean= 0.657
 final diagonalization
   2 F= -.27079366E+02 E0= -.27079366E+02  d E =0.296147E-01  mag=     0.0000
 trial-energy change:    0.029615  1 .order    0.027416   -0.038980    0.093812
 step:   0.2738(harm=  0.2935)  dis= 0.00288  next Energy=   -27.114272 (dE=-0.529E-02)
 bond charge predicted
 wavefunctions rotated
       N       E                     dE             d eps       ncg     rms          ort
 gam= 0.000 g(H,U,f)=  0.113E+00 0.354E-04 0.762E-17 ort(H,U,f) = 0.000E+00 0.000E+00 0.000E+00
SDA:   1    -0.270650758906E+02    0.14288E-01    0.00000E+00   324   0.113E+00 0.000E+00
 gam= 0.000 trial= 0.663  step= 0.704 mean= 0.663
 gam= 0.228 g(H,U,f)=  0.256E-01 0.282E-03 0.451E-16 ort(H,U,f) = 0.152E-03-0.996E-04-0.337E-16
CGA:   2    -0.271049714320E+02   -0.39896E-01   -0.39894E-01   324   0.259E-01 0.519E-04
 gam= 0.228 trial= 0.666  step= 0.661 mean= 0.666
 gam= 0.079 g(H,U,f)=  0.196E-02 0.807E-04 0.161E-16 ort(H,U,f) =-0.132E-03 0.139E-03 0.317E-15
CGA:   3    -0.271135231191E+02   -0.85517E-02   -0.85517E-02   324   0.204E-02 0.748E-05
 gam= 0.079 trial= 0.665  step= 0.643 mean= 0.665
 gam= 0.109 g(H,U,f)=  0.188E-03 0.339E-04 0.130E-16 ort(H,U,f) =-0.584E-04 0.596E-04-0.208E-15
CGA:   4    -0.271141797910E+02   -0.65667E-03   -0.65668E-03   324   0.222E-03 0.116E-05
 gam= 0.109 trial= 0.664  step= 0.741 mean= 0.664
 gam= 0.171 g(H,U,f)=  0.247E-04 0.132E-04 0.651E-15 ort(H,U,f) =-0.250E-04 0.252E-04 0.127E-14
CGA:   5    -0.271142621272E+02   -0.82336E-04   -0.82328E-04   324   0.379E-04 0.234E-06
 gam= 0.171 trial= 0.668  step= 0.921 mean= 0.668
 gam= 0.272 g(H,U,f)=  0.712E-05 0.317E-05 0.247E-15 ort(H,U,f) =-0.853E-05 0.859E-05 0.702E-15
CGA:   6    -0.271142796118E+02   -0.17485E-04   -0.17477E-04   324   0.103E-04 0.608E-07
 gam= 0.272 trial= 0.681  step= 0.993 mean= 0.681
 gam= 0.230 g(H,U,f)=  0.212E-05 0.250E-06 0.232E-16 ort(H,U,f) =-0.153E-05 0.155E-05 0.166E-15
CGA:   7    -0.271142847329E+02   -0.51212E-05   -0.51192E-05   324   0.237E-05 0.131E-07
 gam= 0.230 trial= 0.696  step= 0.862 mean= 0.696
 final diagonalization
 -----------------------------------------------------------------------------
|                                                                             |
|     EEEEEEE  RRRRRR   RRRRRR   OOOOOOO  RRRRRR      ###     ###     ###     |
|     E        R     R  R     R  O     O  R     R     ###     ###     ###     |
|     E        R     R  R     R  O     O  R     R     ###     ###     ###     |
|     EEEEE    RRRRRR   RRRRRR   O     O  RRRRRR       #       #       #      |
|     E        R   R    R   R    O     O  R   R                               |
|     E        R    R   R    R   O     O  R    R      ###     ###     ###     |
|     EEEEEEE  R     R  R     R  OOOOOOO  R     R     ###     ###     ###     |
|                                                                             |
|     ERROR in subspace rotation PDSYEVX/ PZHEEVX: I2,IFAIL= 1 4              |
|                                                                             |
|       ---->  I REFUSE TO CONTINUE WITH THIS SICK JOB ... BYE!!! <----       |
|                                                                             |
 -----------------------------------------------------------------------------

