 running on   48 nodes
 distr:  one band on   24 nodes,    2 groups
 vasp.5.2.11 01Dec10 complex 
 POSCAR found type information on POSCAR  Fe Mo C  Se C  Se C  Se C  S  O 
 POSCAR found : 11 types and     120 ions
 scaLAPACK will be used
 LDA part: xc-table for Pade appr. of Perdew
 POSCAR, INCAR and KPOINTS ok, starting setup
 FFT: planning ...(           16 )
 WAVECAR not read
 WARNING: dimensions on CHGCAR file are different
 WARNING: random wavefunctions but no delay for mixing, default for NELMDL
 entering main loop
       N       E                     dE             d eps       ncg     rms          rms(c)
DAV:   1     0.775856722659E+04    0.77586E+04   -0.37074E+05  8968   0.140E+03 
DAV:   2     0.238040046253E+03   -0.75205E+04   -0.70421E+04  8696   0.380E+02 
DAV:   3    -0.832964252904E+03   -0.10710E+04   -0.10078E+04  9944   0.160E+02 
DAV:   4    -0.922650671247E+03   -0.89686E+02   -0.85993E+02 12232   0.530E+01 
DAV:   5    -0.924792524577E+03   -0.21419E+01   -0.21192E+01 12016   0.832E+00    0.129E+02
RMM:   6    -0.973963092236E+03   -0.49171E+02   -0.26009E+03  9330   0.932E+01    0.146E+02
RMM:   7    -0.593842102647E+03    0.38012E+03   -0.29923E+02 11412   0.306E+01    0.558E+01
RMM:   8    -0.599501933958E+03   -0.56598E+01   -0.57840E+01  9599   0.118E+01    0.343E+01
RMM:   9    -0.630243785817E+03   -0.30742E+02   -0.35570E+01 10592   0.792E+00    0.250E+01
RMM:  10    -0.703614548917E+03   -0.73371E+02   -0.37859E+01  9075   0.103E+01    0.342E+01
RMM:  11    -0.742532489817E+03   -0.38918E+02   -0.25753E+01  8988   0.848E+00    0.118E+01
RMM:  12    -0.817498802593E+03   -0.74966E+02   -0.46960E+01  8926   0.826E+00    0.817E+00
RMM:  13    -0.892128178167E+03   -0.74629E+02   -0.88226E+01  8870   0.934E+00    0.546E+00
RMM:  14    -0.902887037729E+03   -0.10759E+02   -0.14781E+01  8944   0.603E+00    0.541E+00
RMM:  15    -0.908459582324E+03   -0.55725E+01   -0.80392E+00  9036   0.295E+00    0.268E+00
RMM:  16    -0.911543460457E+03   -0.30839E+01   -0.46097E+00  8355   0.299E+00    0.173E+00
RMM:  17    -0.911760487864E+03   -0.21703E+00   -0.73464E-01  9016   0.163E+00    0.237E+00
RMM:  18    -0.911737329441E+03    0.23158E-01   -0.12273E-01 11092   0.580E-01    0.848E-01
RMM:  19    -0.911743469900E+03   -0.61405E-02   -0.36159E-02  9957   0.248E-01    0.527E-01
RMM:  20    -0.911742927524E+03    0.54238E-03   -0.96853E-03  9434   0.185E-01    0.555E-01
RMM:  21    -0.911738209671E+03    0.47179E-02   -0.63942E-03  8296   0.144E-01    0.153E-01
RMM:  22    -0.911737254329E+03    0.95534E-03   -0.19533E-03  8730   0.722E-02    0.135E-01
RMM:  23    -0.911736995502E+03    0.25883E-03   -0.43899E-04  6077   0.408E-02    0.106E-01
RMM:  24    -0.911736764859E+03    0.23064E-03   -0.18069E-04  5517   0.314E-02    0.320E-02
RMM:  25    -0.911736684072E+03    0.80787E-04   -0.10619E-04  5309   0.201E-02 
   1 F= -.91173668E+03 E0= -.91173668E+03  d E =-.911737E+03  mag=     0.0002
 BRION: g(F)=  0.119E+01 g(S)=  0.699E-01 
 bond charge predicted
       N       E                     dE             d eps       ncg     rms          rms(c)
DAV:   1    -0.907318137673E+03    0.44186E+01   -0.24080E+02  8556   0.322E+01    0.710E+00
RMM:   2    -0.910620892223E+03   -0.33028E+01   -0.22855E+01 12364   0.888E+00    0.151E+01
RMM:   3    -0.908519355007E+03    0.21015E+01   -0.24420E+00  9663   0.355E+00    0.461E+00
RMM:   4    -0.908287496241E+03    0.23186E+00   -0.63632E-01  9896   0.123E+00    0.226E+00
RMM:   5    -0.908349737713E+03   -0.62241E-01   -0.35184E-01 10167   0.121E+00    0.419E+00
RMM:   6    -0.908207065706E+03    0.14267E+00   -0.17033E-01  9965   0.907E-01    0.116E+00
RMM:   7    -0.908192270216E+03    0.14795E-01   -0.26601E-02 11076   0.266E-01    0.331E-01
RMM:   8    -0.908190369038E+03    0.19012E-02   -0.48179E-03 10457   0.118E-01    0.258E-01
RMM:   9    -0.908190163406E+03    0.20563E-03   -0.18113E-03  8857   0.861E-02    0.258E-01
RMM:  10    -0.908189537124E+03    0.62628E-03   -0.10613E-03  7888   0.643E-02    0.625E-02
RMM:  11    -0.908189626621E+03   -0.89497E-04   -0.33137E-04  5807   0.402E-02 
   2 F= -.90818963E+03 E0= -.90818963E+03  d E =0.354706E+01  mag=     0.0000
 BRION: g(F)=  0.609E+02 g(S)=  0.203E+01 retain N=  1 mean eig= 0.10
 eig:   0.101
 bond charge predicted
       N       E                     dE             d eps       ncg     rms          rms(c)
DAV:   1    -0.911446086754E+03   -0.32565E+01   -0.18516E+02  8988   0.223E+01    0.433E+00
RMM:   2    -0.912207795888E+03   -0.76171E+00   -0.95122E+00 12247   0.513E+00    0.441E+00
RMM:   3    -0.912033339651E+03    0.17446E+00   -0.62352E-01 10798   0.176E+00    0.428E+00
RMM:   4    -0.911834350829E+03    0.19899E+00   -0.32108E-01 10774   0.105E+00    0.128E+00
RMM:   5    -0.911832543944E+03    0.18069E-02   -0.97741E-02 11061   0.586E-01    0.191E+00
RMM:   6    -0.911804045151E+03    0.28499E-01   -0.41319E-02 10064   0.427E-01    0.643E-01
RMM:   7    -0.911800276459E+03    0.37687E-02   -0.63771E-03 10715   0.136E-01    0.221E-01
RMM:   8    -0.911799974951E+03    0.30151E-03   -0.18812E-03  9277   0.847E-02    0.251E-01
RMM:   9    -0.911799518105E+03    0.45685E-03   -0.88028E-04  6833   0.601E-02    0.118E-01
RMM:  10    -0.911799343171E+03    0.17493E-03   -0.47123E-04  6636   0.372E-02    0.373E-02
RMM:  11    -0.911799351011E+03   -0.78398E-05   -0.14878E-04  5344   0.276E-02 
   3 F= -.91179935E+03 E0= -.91179935E+03  d E =-.360972E+01  mag=     0.0000
 BRION: g(F)=  0.176E+01 g(S)=  0.142E-01 retain N=  1 mean eig= 0.11
 eig:   0.107
 bond charge predicted
       N       E                     dE             d eps       ncg     rms          rms(c)
DAV:   1    -0.902456314725E+03    0.93430E+01   -0.40251E+02  8352   0.405E+01    0.693E+00
RMM:   2    -0.905455131970E+03   -0.29988E+01   -0.30678E+01 12275   0.952E+00    0.105E+01
RMM:   3    -0.904451492691E+03    0.10036E+01   -0.23017E+00 10318   0.362E+00    0.552E+00
RMM:   4    -0.904016279317E+03    0.43521E+00   -0.73483E-01 10249   0.138E+00    0.221E+00
RMM:   5    -0.904096370745E+03   -0.80091E-01   -0.49152E-01  9923   0.134E+00    0.482E+00
RMM:   6    -0.903907352225E+03    0.18902E+00   -0.19260E-01 10458   0.899E-01    0.869E-01
RMM:   7    -0.903898029342E+03    0.93229E-02   -0.25471E-02 11264   0.229E-01    0.407E-01
RMM:   8    -0.903895704682E+03    0.23247E-02   -0.67482E-03 10238   0.147E-01    0.449E-01
RMM:   9    -0.903893888826E+03    0.18159E-02   -0.34088E-03  9945   0.111E-01    0.236E-01
RMM:  10    -0.903892830177E+03    0.10586E-02   -0.17466E-03  8691   0.698E-02    0.837E-02
RMM:  11    -0.903892907676E+03   -0.77499E-04   -0.56814E-04  6251   0.506E-02 
   4 F= -.90389291E+03 E0= -.90389291E+03  d E =0.790644E+01  mag=     0.0000
 BRION: g(F)=  0.261E+03 g(S)=  0.552E+01 retain N=  2 mean eig= 0.28
 eig:   0.109  0.448
 bond charge predicted
       N       E                     dE             d eps       ncg     rms          rms(c)
DAV:   1    -0.911704188092E+03   -0.78114E+01   -0.32001E+02  9024   0.244E+01    0.735E+00
RMM:   2    -0.913719257265E+03   -0.20151E+01   -0.16341E+01 10791   0.671E+00    0.134E+01
RMM:   3    -0.912217200858E+03    0.15021E+01   -0.26492E+00 10226   0.404E+00    0.543E+00
RMM:   4    -0.911907778664E+03    0.30942E+00   -0.59951E-01 10090   0.132E+00    0.203E+00
RMM:   5    -0.911945683758E+03   -0.37905E-01   -0.29326E-01 10954   0.108E+00    0.363E+00
RMM:   6    -0.911842940939E+03    0.10274E+00   -0.13036E-01 10221   0.756E-01    0.958E-01
RMM:   7    -0.911830207337E+03    0.12734E-01   -0.19489E-02 11002   0.224E-01    0.432E-01
RMM:   8    -0.911829989769E+03    0.21757E-03   -0.61429E-03 10156   0.154E-01    0.514E-01
RMM:   9    -0.911827483861E+03    0.25059E-02   -0.25850E-03  9276   0.100E-01    0.106E-01
RMM:  10    -0.911827243027E+03    0.24083E-03   -0.12589E-03  7939   0.512E-02    0.462E-02
RMM:  11    -0.911827202189E+03    0.40838E-04   -0.20905E-04  5364   0.397E-02 
   5 F= -.91182720E+03 E0= -.91182720E+03  d E =-.793429E+01  mag=     0.0000
 BRION: g(F)=  0.185E+01 g(S)=  0.422E-01 retain N=  1 mean eig= 0.06
 eig:   0.064
 bond charge predicted
       N       E                     dE             d eps       ncg     rms          rms(c)
DAV:   1    -0.903458174999E+03    0.83691E+01   -0.37929E+02  8352   0.401E+01    0.622E+00
RMM:   2    -0.906562232624E+03   -0.31041E+01   -0.29640E+01 12094   0.978E+00    0.958E+00
RMM:   3    -0.905647328576E+03    0.91490E+00   -0.20754E+00  9544   0.372E+00    0.497E+00
RMM:   4    -0.905362878448E+03    0.28445E+00   -0.48323E-01  9599   0.125E+00    0.236E+00
RMM:   5    -0.905324503375E+03    0.38375E-01   -0.45078E-01 10937   0.106E+00    0.288E+00
RMM:   6    -0.905268313100E+03    0.56190E-01   -0.15421E-01 10064   0.828E-01    0.194E+00
RMM:   7    -0.905234134982E+03    0.34178E-01   -0.34348E-02 10694   0.345E-01    0.377E-01
RMM:   8    -0.905232960182E+03    0.11748E-02   -0.62619E-03 10275   0.152E-01    0.428E-01
RMM:   9    -0.905231557356E+03    0.14028E-02   -0.27110E-03  9805   0.105E-01    0.212E-01
RMM:  10    -0.905231051026E+03    0.50633E-03   -0.10387E-03  7772   0.561E-02    0.710E-02
RMM:  11    -0.905231168070E+03   -0.11704E-03   -0.41597E-04  5996   0.445E-02 
   6 F= -.90523117E+03 E0= -.90523117E+03  d E =0.659603E+01  mag=     0.0000
 BRION: g(F)=  0.172E+03 g(S)=  0.315E+01 retain N=  2 mean eig= 3.17
 eig:   0.063  6.285
 bond charge predicted
       N       E                     dE             d eps       ncg     rms          rms(c)
DAV:   1    -0.911324226242E+03   -0.60932E+01   -0.29859E+02  8936   0.251E+01    0.641E+00
RMM:   2    -0.912898780678E+03   -0.15746E+01   -0.14370E+01 11787   0.637E+00    0.107E+01
RMM:   3    -0.911989877055E+03    0.90890E+00   -0.18275E+00  9865   0.317E+00    0.498E+00
RMM:   4    -0.911724971363E+03    0.26491E+00   -0.52737E-01  9741   0.122E+00    0.176E+00
RMM:   5    -0.911741892281E+03   -0.16921E-01   -0.25207E-01 10749   0.970E-01    0.294E+00
RMM:   6    -0.911677003382E+03    0.64889E-01   -0.10213E-01  9788   0.683E-01    0.111E+00
RMM:   7    -0.911661467925E+03    0.15535E-01   -0.16526E-02 10802   0.220E-01    0.309E-01
RMM:   8    -0.911662222435E+03   -0.75451E-03   -0.48519E-03  9678   0.137E-01    0.502E-01
RMM:   9    -0.911660087692E+03    0.21347E-02   -0.23020E-03  9155   0.968E-02    0.975E-02
RMM:  10    -0.911660014018E+03    0.73674E-04   -0.67375E-04  7175   0.424E-02 
   7 F= -.91166001E+03 E0= -.91166001E+03  d E =-.642885E+01  mag=     0.0000
 BRION: g(F)=  0.541E+01 g(S)=  0.101E+00 retain N=  1 mean eig= 0.07
 eig:   0.070
 bond charge predicted
       N       E                     dE             d eps       ncg     rms          rms(c)
DAV:   1    -0.876726315799E+03    0.34934E+02   -0.11637E+03  8352   0.656E+01    0.111E+01
RMM:   2    -0.883363846180E+03   -0.66375E+01   -0.88506E+01 12010   0.159E+01    0.981E+00
RMM:   3    -0.882250401366E+03    0.11134E+01   -0.58291E+00 10664   0.602E+00    0.112E+01
RMM:   4    -0.881014549149E+03    0.12359E+01   -0.24629E+00 10223   0.302E+00    0.479E+00
RMM:   5    -0.880729289749E+03    0.28526E+00   -0.84533E-01 11323   0.147E+00    0.270E+00
RMM:   6    -0.880699801460E+03    0.29488E-01   -0.23059E-01 10002   0.952E-01    0.213E+00
RMM:   7    -0.880651476404E+03    0.48325E-01   -0.37819E-02 11352   0.374E-01    0.483E-01
RMM:   8    -0.880651663195E+03   -0.18679E-03   -0.13470E-02 10899   0.200E-01    0.775E-01
RMM:   9    -0.880646628231E+03    0.50350E-02   -0.79410E-03  9819   0.168E-01    0.296E-01
RMM:  10    -0.880645476434E+03    0.11518E-02   -0.30907E-03  9751   0.759E-02    0.108E-01
RMM:  11    -0.880645456719E+03    0.19715E-04   -0.89432E-04  7573   0.608E-02 
   8 F= -.88064546E+03 E0= -.88064546E+03  d E =0.310146E+02  mag=     0.0000
 BRION: g(F)=  0.180E+04 g(S)=  0.303E+02 retain N=  2 mean eig= 2.82
 eig:   0.067  5.580
 bond charge predicted
       N       E                     dE             d eps       ncg     rms          rms(c)
DAV:   1    -0.910840351260E+03   -0.30195E+02   -0.10173E+03  9216   0.401E+01    0.142E+01
RMM:   2    -0.915589487050E+03   -0.47491E+01   -0.48535E+01 10393   0.114E+01    0.225E+01
RMM:   3    -0.912261507859E+03    0.33280E+01   -0.10270E+01 10730   0.686E+00    0.112E+01
RMM:   4    -0.910947238395E+03    0.13143E+01   -0.20951E+00 10878   0.242E+00    0.303E+00
RMM:   5    -0.910992676754E+03   -0.45438E-01   -0.71100E-01 10939   0.154E+00    0.502E+00
RMM:   6    -0.910804766051E+03    0.18791E+00   -0.32351E-01 10420   0.115E+00    0.210E+00
RMM:   7    -0.910760300511E+03    0.44466E-01   -0.65733E-02 11501   0.439E-01    0.601E-01
RMM:   8    -0.910760156015E+03    0.14450E-03   -0.16719E-02 10875   0.231E-01    0.877E-01
RMM:   9    -0.910754015232E+03    0.61408E-02   -0.66985E-03  9345   0.168E-01    0.225E-01
RMM:  10    -0.910753688161E+03    0.32707E-03   -0.30224E-03  9061   0.735E-02    0.972E-02
RMM:  11    -0.910753826068E+03   -0.13791E-03   -0.64061E-04  6429   0.603E-02    0.172E-01
RMM:  12    -0.910753596533E+03    0.22954E-03   -0.32116E-04  5906   0.416E-02    0.304E-02
RMM:  13    -0.910753597544E+03   -0.10110E-05   -0.98651E-05  5344   0.205E-02 
   9 F= -.91075360E+03 E0= -.91075360E+03  d E =-.301081E+02  mag=     0.0000
 BRION: g(F)=  0.222E+02 g(S)=  0.291E+00 retain N=  1 mean eig= 0.05
 eig:   0.046
 bond charge predicted
       N       E                     dE             d eps       ncg     rms          rms(c)
DAV:   1    -0.813893086779E+03    0.96861E+02   -0.46065E+03  8608   0.113E+02    0.200E+01
RMM:   2    -0.836492901671E+03   -0.22600E+02   -0.29226E+02 11750   0.299E+01    0.185E+01
RMM:   3    -0.835277435656E+03    0.12155E+01   -0.25759E+01 11061   0.100E+01    0.209E+01
RMM:   4    -0.830347257002E+03    0.49302E+01   -0.97845E+00 10385   0.537E+00    0.638E+00
RMM:   5    -0.829731214689E+03    0.61604E+00   -0.22640E+00 11163   0.241E+00    0.392E+00
RMM:   6    -0.829648484673E+03    0.82730E-01   -0.74480E-01 10604   0.161E+00    0.432E+00
RMM:   7    -0.829486106513E+03    0.16238E+00   -0.21979E-01 10238   0.948E-01    0.141E+00
RMM:   8    -0.829452412859E+03    0.33694E-01   -0.62640E-02 10551   0.384E-01    0.986E-01
RMM:   9    -0.829446520357E+03    0.58925E-02   -0.31715E-02  9975   0.350E-01    0.105E+00
RMM:  10    -0.829432290618E+03    0.14230E-01   -0.18707E-02 10041   0.240E-01    0.328E-01
RMM:  11    -0.829428869472E+03    0.34211E-02   -0.91381E-03  9505   0.126E-01    0.208E-01
RMM:  12    -0.829428493834E+03    0.37564E-03   -0.32342E-03  9370   0.100E-01    0.338E-01
RMM:  13    -0.829427084704E+03    0.14091E-02   -0.16204E-03  8459   0.760E-02    0.708E-02
RMM:  14    -0.829426926292E+03    0.15841E-03   -0.54949E-04  6757   0.372E-02    0.798E-02
RMM:  15    -0.829426861797E+03    0.64495E-04   -0.15938E-04  5462   0.282E-02 
  10 F= -.82942686E+03 E0= -.82942686E+03  d E =0.813267E+02  mag=     0.0000
 BRION: g(F)=  0.481E+04 g(S)=  0.455E+02 retain N=  2 mean eig= 1.33
 eig:   0.044  2.620
 bond charge predicted
       N       E                     dE             d eps       ncg     rms          rms(c)
DAV:   1    -0.883271879815E+03   -0.53845E+02   -0.24846E+03  8928   0.568E+01    0.203E+01
RMM:   2    -0.891290541909E+03   -0.80187E+01   -0.12808E+02 12077   0.150E+01    0.219E+01
RMM:   3    -0.889542987947E+03    0.17476E+01   -0.18603E+01  9660   0.935E+00    0.203E+01
RMM:   4    -0.885392223941E+03    0.41508E+01   -0.41769E+00 10118   0.407E+00    0.496E+00
RMM:   5    -0.885291266902E+03    0.10096E+00   -0.16889E+00 11017   0.200E+00    0.666E+00
RMM:   6    -0.884972113274E+03    0.31915E+00   -0.71017E-01  9128   0.174E+00    0.350E+00
RMM:   7    -0.884872796098E+03    0.99317E-01   -0.20267E-01 11048   0.756E-01    0.120E+00
RMM:   8    -0.884861873384E+03    0.10923E-01   -0.48801E-02 10005   0.441E-01    0.140E+00
RMM:   9    -0.884845909600E+03    0.15964E-01   -0.18930E-02  9490   0.284E-01    0.445E-01
RMM:  10    -0.884843423691E+03    0.24859E-02   -0.10563E-02  9325   0.144E-01    0.173E-01
RMM:  11    -0.884843479960E+03   -0.56269E-04   -0.22281E-03  8489   0.969E-02    0.248E-01
RMM:  12    -0.884842964736E+03    0.51522E-03   -0.10129E-03  7587   0.604E-02    0.850E-02
RMM:  13    -0.884842851948E+03    0.11279E-03   -0.45835E-04  6336   0.326E-02 
  11 F= -.88484285E+03 E0= -.88484285E+03  d E =-.554160E+02  mag=     0.0000
 BRION: g(F)=  0.250E+03 g(S)=  0.233E+01 retain N=  1 mean eig= 0.04
 eig:   0.038
 bond charge predicted
       N       E                     dE             d eps       ncg     rms          rms(c)
DAV:   1     0.526594257269E+04    0.61508E+04   -0.34667E+04 10288   0.347E+02    0.798E+01
RMM:   2     0.450548916465E+04   -0.76045E+03   -0.78510E+03 12717   0.138E+02    0.125E+02
RMM:   3     0.463715545780E+04    0.13167E+03   -0.12590E+03 12494   0.544E+01    0.764E+01
RMM:   4     0.467540724097E+04    0.38252E+02   -0.41134E+02 12171   0.251E+01    0.584E+01
RMM:   5     0.470120951335E+04    0.25802E+02   -0.18003E+02 12248   0.154E+01    0.519E+01
RMM:   6     0.469493053966E+04   -0.62790E+01   -0.15293E+02 11584   0.168E+01    0.596E+01
RMM:   7     0.473087812882E+04    0.35948E+02   -0.57212E+01 11220   0.109E+01    0.329E+01
RMM:   8     0.472931340922E+04   -0.15647E+01   -0.35930E+01 11478   0.737E+00    0.322E+01
RMM:   9     0.472847984151E+04   -0.83357E+00   -0.16104E+01 10921   0.528E+00    0.398E+01
RMM:  10     0.473662874621E+04    0.81489E+01   -0.81550E+00 11212   0.314E+00    0.189E+01
RMM:  11     0.474101591037E+04    0.43872E+01   -0.41416E+00  9414   0.344E+00    0.143E+01
RMM:  12     0.473936976954E+04   -0.16461E+01   -0.14268E+00 11053   0.151E+00    0.274E+01
RMM:  13     0.474173031881E+04    0.23605E+01   -0.89933E-01 10504   0.101E+00    0.176E+01
RMM:  14     0.474211048737E+04    0.38017E+00   -0.28822E-01 10917   0.616E-01    0.693E+00
RMM:  15     0.474197924011E+04   -0.13125E+00   -0.24742E-01  9361   0.890E-01    0.204E+01
RMM:  16     0.474215633957E+04    0.17710E+00   -0.37880E-01  9602   0.966E-01    0.827E+00
RMM:  17     0.474201996393E+04   -0.13638E+00   -0.41592E-01  9669   0.106E+00    0.743E+00
RMM:  18     0.474206086283E+04    0.40899E-01   -0.48518E-01  9957   0.124E+00    0.931E+00
RMM:  19     0.474223930248E+04    0.17844E+00   -0.23396E-01  9528   0.916E-01    0.639E+00
RMM:  20     0.474202116278E+04   -0.21814E+00   -0.13382E-01  9356   0.659E-01    0.175E+01
RMM:  21     0.474223734907E+04    0.21619E+00   -0.45111E-02  9008   0.349E-01    0.119E+01
RMM:  22     0.474232279013E+04    0.85441E-01   -0.21993E-02  8582   0.266E-01    0.103E+01
RMM:  23     0.474230159748E+04   -0.21193E-01   -0.14475E-02  7927   0.193E-01    0.102E+01
RMM:  24     0.474234473220E+04    0.43135E-01   -0.10849E-02  8286   0.171E-01    0.939E+00
RMM:  25     0.474234806508E+04    0.33329E-02   -0.65281E-03  7441   0.143E-01    0.933E+00
RMM:  26     0.474234812338E+04    0.58296E-04   -0.73735E-04  6271   0.566E-02 
  12 F= 0.47423481E+04 E0= 0.47423481E+04  d E =0.562719E+04  mag=    -0.0200
 BRION: g(F)=  0.120E+08 g(S)=  0.270E+05 retain N=  2 mean eig= 0.04
 eig:   0.007  0.082
 bond charge predicted
       N       E                     dE             d eps       ncg     rms          rms(c)
DAV:   1    -0.734436479988E+03   -0.54768E+04   -0.20979E+04 10000   0.120E+02    0.702E+01
RMM:   2    -0.795274434141E+03   -0.60838E+02   -0.10618E+03  9181   0.496E+01    0.784E+01
RMM:   3    -0.762894366526E+03    0.32380E+02   -0.20808E+02 10882   0.243E+01    0.672E+01
RMM:   4    -0.727277275148E+03    0.35617E+02   -0.65958E+01  9404   0.158E+01    0.558E+01
RMM:   5    -0.706567803166E+03    0.20709E+02   -0.34676E+01 10361   0.867E+00    0.416E+01
RMM:   6    -0.703825009607E+03    0.27428E+01   -0.19486E+01 10351   0.646E+00    0.244E+01
RMM:   7    -0.694093951198E+03    0.97311E+01   -0.78053E+00 10786   0.401E+00    0.193E+01
RMM:   8    -0.693300335309E+03    0.79362E+00   -0.27776E+00  9994   0.209E+00    0.208E+01
RMM:   9    -0.692928840712E+03    0.37149E+00   -0.18276E+00  9750   0.151E+00    0.204E+01
RMM:  10    -0.691417984159E+03    0.15109E+01   -0.84388E-01  9594   0.999E-01    0.121E+01
RMM:  11    -0.691207650853E+03    0.21033E+00   -0.27081E-01  9221   0.823E-01    0.107E+01
RMM:  12    -0.691147788211E+03    0.59863E-01   -0.35898E-01  8755   0.108E+00    0.107E+01
RMM:  13    -0.690876983774E+03    0.27080E+00   -0.78299E-01  9685   0.127E+00    0.155E+01
RMM:  14    -0.690831545513E+03    0.45438E-01   -0.14591E-01  9724   0.562E-01    0.147E+01
RMM:  15    -0.690818823599E+03    0.12722E-01   -0.20370E-01  9269   0.736E-01    0.139E+01
RMM:  16    -0.690948302574E+03   -0.12948E+00   -0.57588E-01  9349   0.111E+00    0.177E+01
RMM:  17    -0.690890334109E+03    0.57968E-01   -0.82580E-02  8737   0.484E-01    0.174E+01
RMM:  18    -0.690853084166E+03    0.37250E-01   -0.14232E-02  8481   0.227E-01    0.176E+01
RMM:  19    -0.690750540138E+03    0.10254E+00   -0.68309E-02  8483   0.415E-01    0.167E+01
RMM:  20    -0.690743257786E+03    0.72824E-02   -0.20226E-02 10513   0.199E-01    0.166E+01
RMM:  21    -0.690811264621E+03   -0.68007E-01   -0.26379E-01  8900   0.761E-01    0.127E+01
RMM:  22    -0.690901514599E+03   -0.90250E-01   -0.46103E-02  8599   0.323E-01    0.128E+01
RMM:  23    -0.690839643688E+03    0.61871E-01   -0.15242E-02  8117   0.245E-01    0.130E+01
RMM:  24    -0.690824365549E+03    0.15278E-01   -0.11607E-02  8600   0.184E-01    0.132E+01
RMM:  25    -0.690835598072E+03   -0.11233E-01   -0.63007E-03  8334   0.149E-01    0.132E+01
RMM:  26    -0.690819619308E+03    0.15979E-01   -0.53896E-03  8451   0.852E-02    0.134E+01
RMM:  27    -0.690853822358E+03   -0.34203E-01   -0.19685E-02  8288   0.202E-01    0.129E+01
RMM:  28    -0.690850645812E+03    0.31765E-02   -0.35568E-03  8708   0.871E-02    0.129E+01
RMM:  29    -0.690850483151E+03    0.16266E-03   -0.88358E-03  8511   0.131E-01    0.126E+01
RMM:  30    -0.690857788835E+03   -0.73057E-02   -0.15809E-02  8180   0.218E-01    0.128E+01
RMM:  31    -0.690863065424E+03   -0.52766E-02   -0.36638E-02  8653   0.281E-01    0.127E+01
RMM:  32    -0.690902064273E+03   -0.38999E-01   -0.18730E-02  7937   0.215E-01    0.126E+01
RMM:  33    -0.690897449444E+03    0.46148E-02   -0.87152E-03  7720   0.141E-01    0.147E+01
RMM:  34    -0.691231724138E+03   -0.33427E+00   -0.15864E-01  8789   0.465E-01    0.177E+01
RMM:  35    -0.691197246021E+03    0.34478E-01   -0.43528E-02  8013   0.370E-01    0.180E+01
RMM:  36    -0.691178472338E+03    0.18774E-01   -0.87799E-03  7819   0.155E-01    0.150E+01
RMM:  37    -0.691169236276E+03    0.92361E-02   -0.76948E-02  8628   0.316E-01    0.142E+01
RMM:  38    -0.691007895508E+03    0.16134E+00   -0.23734E-02  8101   0.217E-01    0.140E+01
RMM:  39    -0.690904332409E+03    0.10356E+00   -0.49280E-02  8867   0.235E-01    0.115E+01
RMM:  40    -0.691571503240E+03   -0.66717E+00   -0.27468E-01  8375   0.513E-01    0.144E+01
RMM:  41    -0.691427283005E+03    0.14422E+00   -0.91709E-02  8395   0.413E-01    0.137E+01
RMM:  42    -0.691695265914E+03   -0.26798E+00   -0.13450E-01  8992   0.439E-01    0.130E+01
RMM:  43    -0.691774957891E+03   -0.79692E-01   -0.31757E-02  7995   0.308E-01    0.130E+01
RMM:  44    -0.691788677821E+03   -0.13720E-01   -0.59778E-03  7754   0.130E-01    0.130E+01
RMM:  45    -0.692206191615E+03   -0.41751E+00   -0.13939E-01  8376   0.440E-01    0.132E+01
RMM:  46    -0.691940985558E+03    0.26521E+00   -0.65901E-02  8460   0.303E-01    0.131E+01
RMM:  47    -0.691489328715E+03    0.45166E+00   -0.45804E-01  8769   0.872E-01    0.175E+01
RMM:  48    -0.691418316582E+03    0.71012E-01   -0.22360E-01  8676   0.551E-01    0.169E+01
RMM:  49    -0.691450441206E+03   -0.32125E-01   -0.20462E-02  8065   0.269E-01    0.170E+01
RMM:  50    -0.691222244697E+03    0.22820E+00   -0.36867E-01  8310   0.483E-01    0.156E+01
RMM:  51    -0.690494048851E+03    0.72820E+00   -0.10569E+00  8549   0.913E-01    0.118E+01
RMM:  52    -0.691418506311E+03   -0.92446E+00   -0.83393E-01  8449   0.107E+00    0.167E+01
RMM:  53    -0.691114511020E+03    0.30400E+00   -0.22930E-01  9235   0.726E-01    0.123E+01
RMM:  54    -0.691281064652E+03   -0.16655E+00   -0.16999E-01  8902   0.567E-01    0.119E+01
RMM:  55    -0.691286750376E+03   -0.56857E-02   -0.36591E-02  8954   0.270E-01    0.119E+01
RMM:  56    -0.691245072112E+03    0.41678E-01   -0.37265E-02  9064   0.196E-01    0.118E+01
RMM:  57    -0.691215530498E+03    0.29542E-01   -0.83873E-02  9345   0.396E-01    0.931E+00
RMM:  58    -0.691396116359E+03   -0.18059E+00   -0.15100E-01  8605   0.430E-01    0.105E+01
RMM:  59    -0.691347845303E+03    0.48271E-01   -0.41222E-02  8195   0.322E-01    0.102E+01
RMM:  60    -0.691272917263E+03    0.74928E-01   -0.15668E-02  8434   0.158E-01    0.929E+00
RMM:  61    -0.691379088834E+03   -0.10617E+00   -0.17601E-02  7763   0.152E-01    0.102E+01
RMM:  62    -0.691350519500E+03    0.28569E-01   -0.10182E-01  9163   0.464E-01    0.987E+00
RMM:  63    -0.691455823548E+03   -0.10530E+00   -0.10364E-01  8293   0.431E-01    0.942E+00
RMM:  64    -0.691360594791E+03    0.95229E-01   -0.10832E-02  8061   0.160E-01    0.958E+00
RMM:  65    -0.691305512944E+03    0.55082E-01   -0.60157E-03  7060   0.710E-02    0.969E+00
RMM:  66    -0.690886283260E+03    0.41923E+00   -0.95489E-01  8284   0.578E-01    0.123E+01
RMM:  67    -0.691109332148E+03   -0.22305E+00   -0.29722E-01  8468   0.581E-01    0.135E+01
RMM:  68    -0.691144882719E+03   -0.35551E-01   -0.36054E-02  7969   0.355E-01    0.135E+01
RMM:  69    -0.691128620638E+03    0.16262E-01   -0.73568E-03  8044   0.148E-01    0.135E+01
RMM:  70    -0.691088792773E+03    0.39828E-01   -0.10377E-01  8481   0.362E-01    0.138E+01
RMM:  71    -0.691139686017E+03   -0.50893E-01   -0.14255E-01  9008   0.419E-01    0.129E+01
RMM:  72    -0.691542157159E+03   -0.40247E+00   -0.25042E-01  8327   0.475E-01    0.107E+01
RMM:  73    -0.691503771610E+03    0.38386E-01   -0.94373E-02  8595   0.439E-01    0.113E+01
RMM:  74    -0.691368347595E+03    0.13542E+00   -0.48231E-02  9370   0.229E-01    0.116E+01
RMM:  75    -0.691429131311E+03   -0.60784E-01   -0.14028E-02  7911   0.145E-01    0.113E+01
RMM:  76    -0.691524333892E+03   -0.95203E-01   -0.39497E-02  8455   0.188E-01    0.111E+01
RMM:  77    -0.692051767088E+03   -0.52743E+00   -0.46757E-01  8375   0.657E-01    0.112E+01
RMM:  78    -0.692054566909E+03   -0.27998E-02   -0.39616E-02  8437   0.321E-01    0.112E+01
RMM:  79    -0.692082124861E+03   -0.27558E-01   -0.22004E-02  8179   0.149E-01    0.112E+01
RMM:  80    -0.692109676474E+03   -0.27552E-01   -0.27813E-02  8153   0.241E-01    0.112E+01
RMM:  81    -0.692012620194E+03    0.97056E-01   -0.27348E-02  8289   0.278E-01    0.107E+01
RMM:  82    -0.691654238596E+03    0.35838E+00   -0.50857E-01  8431   0.687E-01    0.114E+01
RMM:  83    -0.691538791731E+03    0.11545E+00   -0.71032E-02  9655   0.320E-01    0.118E+01
RMM:  84    -0.691564931460E+03   -0.26140E-01   -0.99185E-03  7815   0.134E-01    0.116E+01
RMM:  85    -0.691701563566E+03   -0.13663E+00   -0.93335E-02  8524   0.348E-01    0.113E+01
RMM:  86    -0.691757686618E+03   -0.56123E-01   -0.15419E-01  8770   0.486E-01    0.124E+01
RMM:  87    -0.691902468434E+03   -0.14478E+00   -0.16121E+00  8626   0.118E+00    0.131E+01
RMM:  88    -0.691613035354E+03    0.28943E+00   -0.23252E-01  8865   0.715E-01    0.126E+01
RMM:  89    -0.691380808490E+03    0.23223E+00   -0.14977E-01 10064   0.433E-01    0.124E+01
RMM:  90    -0.691206662601E+03    0.17415E+00   -0.74582E-02  9396   0.331E-01    0.123E+01
RMM:  91    -0.691212313165E+03   -0.56506E-02   -0.81657E-02  9167   0.292E-01    0.914E+00
RMM:  92    -0.691475234982E+03   -0.26292E+00   -0.34592E-01  8770   0.679E-01    0.773E+00
RMM:  93    -0.691500295065E+03   -0.25060E-01   -0.21455E-01  8625   0.733E-01    0.771E+00
RMM:  94    -0.691497751880E+03    0.25432E-02   -0.80216E-02  9987   0.282E-01    0.763E+00
RMM:  95    -0.691523106533E+03   -0.25355E-01   -0.35740E-02  8492   0.242E-01    0.773E+00
RMM:  96    -0.691477185516E+03    0.45921E-01   -0.13430E-01  8560   0.356E-01    0.802E+00
RMM:  97    -0.691539735354E+03   -0.62550E-01   -0.68748E-01  8342   0.628E-01    0.764E+00
RMM:  98    -0.691721591548E+03   -0.18186E+00   -0.31126E-01  8707   0.728E-01    0.741E+00
RMM:  99    -0.691846292457E+03   -0.12470E+00   -0.34608E-01  9015   0.715E-01    0.795E+00
RMM: 100    -0.691853277613E+03   -0.69852E-02   -0.58610E-02 10445   0.286E-01 
  13 F= -.69185328E+03 E0= -.69185328E+03  d E =-.543420E+04  mag=    -2.3702
 BRION: g(F)=  0.119E+05 g(S)=  0.246E+03 retain N=  1 mean eig= 0.00
 eig:   0.003
 bond charge predicted
       N       E                     dE             d eps       ncg     rms          rms(c)
DAV:   1     0.377829763571E+05    0.38475E+05   -0.13322E+05 12412   0.655E+02    0.264E+02
RMM:   2     0.353475125529E+05   -0.24355E+04   -0.39583E+04 12883   0.269E+02    0.212E+02
RMM:   3     0.361804798881E+05    0.83297E+03   -0.86390E+03 12291   0.176E+02    0.135E+02
RMM:   4     0.363424860464E+05    0.16201E+03   -0.21122E+03 12247   0.686E+01    0.132E+02
RMM:   5     0.365715661588E+05    0.22908E+03   -0.67856E+02 11410   0.396E+01    0.984E+01
RMM:   6     0.365584152875E+05   -0.13151E+02   -0.36408E+02 11571   0.253E+01    0.113E+02
RMM:   7     0.365831224265E+05    0.24707E+02   -0.48467E+02 11727   0.286E+01    0.117E+02
RMM:   8     0.366806657277E+05    0.97543E+02   -0.26057E+02 10425   0.303E+01    0.941E+01
RMM:   9     0.367625941770E+05    0.81928E+02   -0.11004E+02 10682   0.175E+01    0.736E+01
RMM:  10     0.367972501068E+05    0.34656E+02   -0.55817E+01 10902   0.105E+01    0.569E+01
RMM:  11     0.368010273140E+05    0.37772E+01   -0.40806E+01 10108   0.105E+01    0.573E+01
RMM:  12     0.368115579454E+05    0.10531E+02   -0.23154E+01 10282   0.741E+00    0.505E+01
RMM:  13     0.368215027782E+05    0.99448E+01   -0.18364E+01 11380   0.427E+00    0.352E+01
RMM:  14     0.368214331742E+05   -0.69604E-01   -0.87982E+00 10538   0.385E+00    0.358E+01
RMM:  15     0.368246117650E+05    0.31786E+01   -0.57221E+00  9784   0.389E+00    0.270E+01
RMM:  16     0.368250038817E+05    0.39212E+00   -0.43303E+00 10009   0.316E+00    0.323E+01
RMM:  17     0.368276987783E+05    0.26949E+01   -0.26576E+00 10250   0.266E+00    0.269E+01
RMM:  18     0.368285852055E+05    0.88643E+00   -0.13458E+00  9880   0.202E+00    0.165E+01
RMM:  19     0.368289892098E+05    0.40400E+00   -0.13134E+00  9572   0.180E+00    0.152E+01
RMM:  20     0.368292001687E+05    0.21096E+00   -0.76830E-01 10076   0.133E+00    0.126E+01
RMM:  21     0.368291577492E+05   -0.42420E-01   -0.46890E-01 10893   0.715E-01    0.101E+01
RMM:  22     0.368293591466E+05    0.20140E+00   -0.11885E-01  9613   0.512E-01    0.106E+01
RMM:  23     0.368293671852E+05    0.80386E-02   -0.70073E-02  9018   0.383E-01    0.103E+01
RMM:  24     0.368294568405E+05    0.89655E-01   -0.81618E-02  9049   0.343E-01    0.722E+00
RMM:  25     0.368293340100E+05   -0.12283E+00   -0.72858E-02  8828   0.356E-01    0.889E+00
RMM:  26     0.368293470631E+05    0.13053E-01   -0.27161E-02  7741   0.285E-01    0.841E+00
RMM:  27     0.368292831872E+05   -0.63876E-01   -0.13945E-01  9055   0.584E-01    0.109E+01
RMM:  28     0.368294396221E+05    0.15643E+00   -0.22776E-01  8817   0.805E-01    0.864E+00
RMM:  29     0.368291362764E+05   -0.30335E+00   -0.29170E-01  9004   0.764E-01    0.902E+00
RMM:  30     0.368291359182E+05   -0.35827E-03   -0.21404E-01  9333   0.773E-01    0.655E+00
RMM:  31     0.368290608257E+05   -0.75092E-01   -0.86096E-02  9166   0.437E-01    0.661E+00
RMM:  32     0.368290804567E+05    0.19631E-01   -0.21960E-02  8254   0.242E-01    0.682E+00
RMM:  33     0.368291376359E+05    0.57179E-01   -0.23578E-02  8489   0.220E-01    0.646E+00
RMM:  34     0.368290960467E+05   -0.41589E-01   -0.50331E-02  9206   0.282E-01    0.636E+00
RMM:  35     0.368290434994E+05   -0.52547E-01   -0.32404E-02  8642   0.247E-01    0.627E+00
RMM:  36     0.368289636847E+05   -0.79815E-01   -0.53979E-02  9532   0.321E-01    0.622E+00
RMM:  37     0.368289389496E+05   -0.24735E-01   -0.19159E-02  9182   0.191E-01    0.605E+00
RMM:  38     0.368289546299E+05    0.15680E-01   -0.60181E-03  7679   0.149E-01    0.613E+00
RMM:  39     0.368289575373E+05    0.29074E-02   -0.85976E-04  7035   0.590E-02    0.611E+00
RMM:  40     0.368289313844E+05   -0.26153E-01   -0.17729E-02  7989   0.165E-01    0.598E+00
RMM:  41     0.368287719835E+05   -0.15940E+00   -0.12019E-01  9034   0.444E-01    0.677E+00
RMM:  42     0.368287531218E+05   -0.18862E-01   -0.19480E-01  9407   0.573E-01    0.513E+00
RMM:  43     0.368287355654E+05   -0.17556E-01   -0.69413E-02  8896   0.406E-01    0.450E+00
RMM:  44     0.368287698441E+05    0.34279E-01   -0.22830E-02  8330   0.280E-01    0.455E+00
RMM:  45     0.368287425957E+05   -0.27248E-01   -0.75473E-03  8223   0.144E-01    0.463E+00
RMM:  46     0.368287435563E+05    0.96066E-03   -0.16574E-03  8260   0.522E-02    0.465E+00
RMM:  47     0.368287324793E+05   -0.11077E-01   -0.34660E-02  8335   0.270E-01    0.434E+00
RMM:  48     0.368287153446E+05   -0.17135E-01   -0.35316E-02  8301   0.250E-01    0.446E+00
RMM:  49     0.368287213195E+05    0.59750E-02   -0.81332E-03  7443   0.162E-01    0.450E+00
RMM:  50     0.368287683605E+05    0.47041E-01   -0.43082E-02  8322   0.276E-01    0.467E+00
RMM:  51     0.368287644681E+05   -0.38924E-02   -0.18959E-02  8413   0.180E-01    0.441E+00
RMM:  52     0.368287615729E+05   -0.28951E-02   -0.18502E-02  8302   0.190E-01    0.398E+00
RMM:  53     0.368287420278E+05   -0.19545E-01   -0.19568E-02  8081   0.207E-01    0.448E+00
RMM:  54     0.368287462827E+05    0.42549E-02   -0.62394E-03  7717   0.119E-01    0.456E+00
RMM:  55     0.368287502716E+05    0.39889E-02   -0.14241E-03  7258   0.592E-02    0.458E+00
RMM:  56     0.368287520444E+05    0.17728E-02   -0.70161E-04  6505   0.441E-02    0.458E+00
RMM:  57     0.368287816635E+05    0.29619E-01   -0.12101E-02  7716   0.159E-01    0.379E+00
RMM:  58     0.368287646906E+05   -0.16973E-01   -0.21418E-02  8085   0.217E-01    0.380E+00
RMM:  59     0.368287484535E+05   -0.16237E-01   -0.71952E-03  7724   0.124E-01    0.369E+00
RMM:  60     0.368287242305E+05   -0.24223E-01   -0.42046E-02  8198   0.280E-01    0.324E+00
RMM:  61     0.368287039228E+05   -0.20308E-01   -0.25569E-02  8392   0.213E-01    0.321E+00
RMM:  62     0.368285794687E+05   -0.12445E+00   -0.14172E-01  8694   0.506E-01    0.594E+00
RMM:  63     0.368286782585E+05    0.98790E-01   -0.67674E-02  8580   0.450E-01    0.302E+00
RMM:  64     0.368286254048E+05   -0.52854E-01   -0.34886E-02  8488   0.268E-01    0.332E+00
RMM:  65     0.368286256713E+05    0.26653E-03   -0.13391E-02  8290   0.161E-01    0.324E+00
RMM:  66     0.368286319247E+05    0.62535E-02   -0.32654E-03  7323   0.968E-02    0.327E+00
RMM:  67     0.368285484719E+05   -0.83453E-01   -0.64988E-02  8457   0.398E-01    0.616E+00
RMM:  68     0.368286394873E+05    0.91015E-01   -0.50120E-02  8254   0.398E-01    0.303E+00
RMM:  69     0.368285934202E+05   -0.46067E-01   -0.30247E-02  7923   0.265E-01    0.327E+00
RMM:  70     0.368285769922E+05   -0.16428E-01   -0.27977E-02  8235   0.240E-01    0.299E+00
RMM:  71     0.368285691812E+05   -0.78109E-02   -0.11078E-02  8204   0.176E-01    0.274E+00
RMM:  72     0.368285633120E+05   -0.58693E-02   -0.21703E-02  7924   0.238E-01    0.354E+00
RMM:  73     0.368285656347E+05    0.23228E-02   -0.78363E-03  7499   0.163E-01    0.351E+00
RMM:  74     0.368286069180E+05    0.41283E-01   -0.13822E-02  7693   0.170E-01    0.293E+00
RMM:  75     0.368285912384E+05   -0.15680E-01   -0.13449E-02  7911   0.169E-01    0.302E+00
RMM:  76     0.368285946272E+05    0.33888E-02   -0.35110E-02  8220   0.253E-01    0.226E+00
RMM:  77     0.368285919623E+05   -0.26649E-02   -0.40078E-02  8334   0.262E-01    0.274E+00
RMM:  78     0.368285834098E+05   -0.85525E-02   -0.30432E-02  8593   0.216E-01    0.222E+00
RMM:  79     0.368285715784E+05   -0.11831E-01   -0.10425E-02  7777   0.144E-01    0.210E+00
RMM:  80     0.368285679083E+05   -0.36700E-02   -0.39009E-03  7352   0.966E-02    0.211E+00
RMM:  81     0.368285588152E+05   -0.90932E-02   -0.10964E-02  7632   0.142E-01    0.185E+00
RMM:  82     0.368285470451E+05   -0.11770E-01   -0.25218E-02  8218   0.207E-01    0.199E+00
RMM:  83     0.368285463643E+05   -0.68083E-03   -0.98298E-03  7628   0.162E-01    0.189E+00
RMM:  84     0.368285481167E+05    0.17524E-02   -0.58312E-03  7155   0.133E-01    0.191E+00
RMM:  85     0.368285484564E+05    0.33974E-03   -0.72633E-04  6456   0.523E-02    0.187E+00
RMM:  86     0.368285422524E+05   -0.62040E-02   -0.85331E-03  7380   0.123E-01    0.203E+00
RMM:  87     0.368285474052E+05    0.51528E-02   -0.10953E-02  7851   0.141E-01    0.195E+00
RMM:  88     0.368285486467E+05    0.12414E-02   -0.12961E-02  7925   0.165E-01    0.179E+00
RMM:  89     0.368285503562E+05    0.17095E-02   -0.79644E-03  8542   0.119E-01    0.161E+00
RMM:  90     0.368285445067E+05   -0.58495E-02   -0.49280E-03  7675   0.966E-02    0.151E+00
RMM:  91     0.368285420742E+05   -0.24325E-02   -0.29393E-03  8087   0.740E-02    0.142E+00
RMM:  92     0.368285346451E+05   -0.74291E-02   -0.80986E-03  7494   0.134E-01    0.179E+00
RMM:  93     0.368285395605E+05    0.49154E-02   -0.72260E-03  7415   0.132E-01    0.162E+00
RMM:  94     0.368285374514E+05   -0.21091E-02   -0.17651E-03  6920   0.671E-02    0.160E+00
RMM:  95     0.368285372834E+05   -0.16793E-03   -0.87639E-04  6794   0.372E-02    0.159E+00
RMM:  96     0.368285362308E+05   -0.10526E-02   -0.31146E-04  5905   0.331E-02    0.160E+00
RMM:  97     0.368285341113E+05   -0.21195E-02   -0.65187E-03  7475   0.128E-01    0.166E+00
RMM:  98     0.368285301642E+05   -0.39471E-02   -0.68594E-03  7426   0.128E-01    0.193E+00
RMM:  99     0.368285332627E+05    0.30985E-02   -0.18733E-03  6652   0.771E-02    0.194E+00
RMM: 100     0.368285362055E+05    0.29428E-02   -0.80900E-04  6317   0.498E-02 
  14 F= 0.36828536E+05 E0= 0.36828536E+05  d E =0.375204E+05  mag=    -3.4686
 BRION: g(F)=  0.408E+10 g(S)=  0.433E+06 retain N=  2 mean eig= 0.03
 eig:   0.003  0.065
 bond charge predicted
       N       E                     dE             d eps       ncg     rms          rms(c)
DAV:   1     0.142964448825E+05   -0.22532E+05   -0.16055E+03  9748   0.235E+01    0.217E+01
RMM:   2     0.142778884429E+05   -0.18556E+02   -0.25149E+02 10663   0.138E+01    0.345E+01
RMM:   3     0.142702043932E+05   -0.76840E+01   -0.41298E+01 11429   0.692E+00    0.650E+01
RMM:   4     0.142798740230E+05    0.96696E+01   -0.15730E+01  9967   0.652E+00    0.455E+01
RMM:   5     0.142849693188E+05    0.50953E+01   -0.93698E+00  9763   0.446E+00    0.321E+01
RMM:   6     0.142862368188E+05    0.12675E+01   -0.42700E+00  9878   0.345E+00    0.458E+01
RMM:   7     0.142883703163E+05    0.21335E+01   -0.59406E+00  9919   0.371E+00    0.277E+01
RMM:   8     0.142898633758E+05    0.14931E+01   -0.36595E+00  9858   0.309E+00    0.282E+01
RMM:   9     0.142885136477E+05   -0.13497E+01   -0.22827E+00  9907   0.249E+00    0.398E+01
RMM:  10     0.142919574549E+05    0.34438E+01   -0.15247E+00  9353   0.215E+00    0.150E+01
RMM:  11     0.142927602654E+05    0.80281E+00   -0.71113E-01  9910   0.128E+00    0.134E+01
RMM:  12     0.142930875355E+05    0.32727E+00   -0.30601E-01 10608   0.650E-01    0.870E+00
RMM:  13     0.142930909308E+05    0.33954E-02   -0.14475E-01  9441   0.649E-01    0.976E+00
RMM:  14     0.142931006395E+05    0.97086E-02   -0.31219E-02  9557   0.241E-01    0.953E+00
RMM:  15     0.142931060143E+05    0.53748E-02   -0.36065E-03  8242   0.101E-01    0.964E+00
RMM:  16     0.142931335266E+05    0.27512E-01   -0.94217E-03  7918   0.161E-01    0.945E+00
RMM:  17     0.142931414393E+05    0.79127E-02   -0.28170E-02  8348   0.268E-01    0.829E+00
RMM:  18     0.142931644618E+05    0.23022E-01   -0.11029E-01  9000   0.449E-01    0.701E+00
RMM:  19     0.142931293486E+05   -0.35113E-01   -0.89671E-02  9741   0.399E-01    0.722E+00
RMM:  20     0.142931491691E+05    0.19820E-01   -0.28076E-02  8257   0.278E-01    0.722E+00
RMM:  21     0.142931542720E+05    0.51029E-02   -0.39215E-03  7868   0.112E-01    0.734E+00
RMM:  22     0.142931388537E+05   -0.15418E-01   -0.14953E-02  8122   0.175E-01    0.685E+00
RMM:  23     0.142929966047E+05   -0.14225E+00   -0.11867E-01  8648   0.556E-01    0.662E+00
RMM:  24     0.142929421710E+05   -0.54434E-01   -0.98429E-02  8805   0.522E-01    0.662E+00
RMM:  25     0.142929205529E+05   -0.21618E-01   -0.30813E-02  8313   0.285E-01    0.652E+00
RMM:  26     0.142929492408E+05    0.28688E-01   -0.15490E-02  8146   0.209E-01    0.642E+00
RMM:  27     0.142929483359E+05   -0.90487E-03   -0.36019E-02  8608   0.285E-01    0.611E+00
RMM:  28     0.142928903648E+05   -0.57971E-01   -0.59965E-02  8726   0.325E-01    0.562E+00
RMM:  29     0.142928266215E+05   -0.63743E-01   -0.62080E-02  9191   0.318E-01    0.505E+00
RMM:  30     0.142927528621E+05   -0.73759E-01   -0.12234E-01  9361   0.466E-01    0.468E+00
RMM:  31     0.142927290365E+05   -0.23826E-01   -0.83996E-02  9704   0.458E-01    0.415E+00
RMM:  32     0.142927181365E+05   -0.10900E-01   -0.52646E-02  9504   0.350E-01    0.374E+00
RMM:  33     0.142927132142E+05   -0.49222E-02   -0.16029E-02  8965   0.207E-01    0.371E+00
RMM:  34     0.142927312236E+05    0.18009E-01   -0.11061E-02  7782   0.185E-01    0.369E+00
RMM:  35     0.142927867675E+05    0.55544E-01   -0.45476E-02  8419   0.296E-01    0.439E+00
RMM:  36     0.142927730077E+05   -0.13760E-01   -0.34871E-02  8700   0.263E-01    0.540E+00
RMM:  37     0.142927894317E+05    0.16424E-01   -0.19984E-02  8651   0.183E-01    0.489E+00
RMM:  38     0.142928138703E+05    0.24439E-01   -0.79239E-02  9017   0.319E-01    0.353E+00
RMM:  39     0.142927964559E+05   -0.17414E-01   -0.52630E-02  9325   0.335E-01    0.277E+00
RMM:  40     0.142927658835E+05   -0.30572E-01   -0.40391E-02  8594   0.320E-01    0.270E+00
RMM:  41     0.142927570109E+05   -0.88726E-02   -0.29549E-02  8917   0.246E-01    0.279E+00
RMM:  42     0.142927525590E+05   -0.44519E-02   -0.93910E-03  8931   0.137E-01    0.290E+00
RMM:  43     0.142927523231E+05   -0.23594E-03   -0.42589E-03  8014   0.906E-02    0.289E+00
RMM:  44     0.142927554517E+05    0.31287E-02   -0.17462E-03  7391   0.601E-02    0.286E+00
RMM:  45     0.142927602590E+05    0.48073E-02   -0.10631E-02  7573   0.150E-01    0.295E+00
RMM:  46     0.142927745010E+05    0.14242E-01   -0.33794E-02  7936   0.207E-01    0.291E+00
RMM:  47     0.142928063519E+05    0.31851E-01   -0.65902E-02  8606   0.275E-01    0.277E+00
RMM:  48     0.142928130689E+05    0.67170E-02   -0.36620E-02  8638   0.226E-01    0.272E+00
RMM:  49     0.142928113471E+05   -0.17218E-02   -0.19143E-02  8203   0.157E-01    0.272E+00
RMM:  50     0.142927986056E+05   -0.12742E-01   -0.70444E-03  7620   0.119E-01    0.277E+00
RMM:  51     0.142927918958E+05   -0.67098E-02   -0.24780E-02  7943   0.201E-01    0.282E+00
RMM:  52     0.142928051384E+05    0.13243E-01   -0.27748E-02  8381   0.194E-01    0.235E+00
RMM:  53     0.142927985930E+05   -0.65455E-02   -0.20444E-02  8407   0.177E-01    0.259E+00
RMM:  54     0.142927957818E+05   -0.28112E-02   -0.11752E-02  7972   0.123E-01    0.270E+00
RMM:  55     0.142927985015E+05    0.27197E-02   -0.13460E-02  7504   0.111E-01    0.295E+00
RMM:  56     0.142927984785E+05   -0.23028E-04   -0.35198E-03  6857   0.995E-02    0.296E+00
RMM:  57     0.142928195607E+05    0.21082E-01   -0.46687E-02  8162   0.280E-01    0.331E+00
RMM:  58     0.142928093007E+05   -0.10260E-01   -0.10341E-02  7730   0.180E-01    0.344E+00
RMM:  59     0.142928089113E+05   -0.38937E-03   -0.39111E-03  7315   0.104E-01    0.348E+00
RMM:  60     0.142928071737E+05   -0.17376E-02   -0.69698E-03  7489   0.119E-01    0.378E+00
RMM:  61     0.142928054212E+05   -0.17525E-02   -0.23928E-03  6987   0.773E-02    0.402E+00
RMM:  62     0.142928288444E+05    0.23423E-01   -0.48970E-02  8104   0.277E-01    0.326E+00
RMM:  63     0.142928097051E+05   -0.19139E-01   -0.11493E-02  7777   0.194E-01    0.356E+00
RMM:  64     0.142928121967E+05    0.24916E-02   -0.11688E-03  6646   0.695E-02    0.355E+00
RMM:  65     0.142928227744E+05    0.10578E-01   -0.37443E-03  7409   0.105E-01    0.336E+00
RMM:  66     0.142928185646E+05   -0.42098E-02   -0.57634E-04  6340   0.492E-02    0.335E+00
RMM:  67     0.142928087111E+05   -0.98535E-02   -0.10347E-01  8327   0.368E-01    0.352E+00
RMM:  68     0.142927949597E+05   -0.13751E-01   -0.32894E-02  8209   0.284E-01    0.292E+00
RMM:  69     0.142927882746E+05   -0.66851E-02   -0.23196E-02  8327   0.192E-01    0.274E+00
RMM:  70     0.142927825291E+05   -0.57455E-02   -0.65062E-03  7580   0.120E-01    0.274E+00
RMM:  71     0.142927901894E+05    0.76602E-02   -0.51509E-03  7154   0.116E-01    0.283E+00
RMM:  72     0.142928026569E+05    0.12468E-01   -0.15557E-02  7639   0.159E-01    0.277E+00
RMM:  73     0.142928140749E+05    0.11418E-01   -0.15292E-02  7903   0.148E-01    0.314E+00
RMM:  74     0.142928335968E+05    0.19522E-01   -0.16758E-02  8087   0.135E-01    0.342E+00
RMM:  75     0.142928001052E+05   -0.33492E-01   -0.41932E-02  7900   0.295E-01    0.279E+00
RMM:  76     0.142927859513E+05   -0.14154E-01   -0.10798E-02  8017   0.160E-01    0.265E+00
RMM:  77     0.142927691495E+05   -0.16802E-01   -0.26256E-02  8792   0.221E-01    0.262E+00
RMM:  78     0.142927629571E+05   -0.61924E-02   -0.12792E-02  8103   0.185E-01    0.250E+00
RMM:  79     0.142927596601E+05   -0.32970E-02   -0.50986E-03  7546   0.113E-01    0.255E+00
RMM:  80     0.142927936660E+05    0.34006E-01   -0.23404E-02  7843   0.207E-01    0.237E+00
RMM:  81     0.142927891325E+05   -0.45335E-02   -0.10987E-02  7880   0.159E-01    0.242E+00
RMM:  82     0.142927994310E+05    0.10299E-01   -0.17007E-02  8301   0.161E-01    0.263E+00
RMM:  83     0.142928205262E+05    0.21095E-01   -0.19386E-02  8297   0.184E-01    0.244E+00
RMM:  84     0.142928244092E+05    0.38830E-02   -0.97387E-03  7958   0.129E-01    0.251E+00
RMM:  85     0.142928202463E+05   -0.41629E-02   -0.29574E-03  7044   0.847E-02    0.251E+00
RMM:  86     0.142928184456E+05   -0.18007E-02   -0.59961E-03  6983   0.849E-02    0.249E+00
RMM:  87     0.142927798701E+05   -0.38575E-01   -0.13172E-01  8135   0.405E-01    0.223E+00
RMM:  88     0.142927619286E+05   -0.17942E-01   -0.44225E-02  7895   0.268E-01    0.260E+00
RMM:  89     0.142927610891E+05   -0.83949E-03   -0.15442E-02  7589   0.201E-01    0.259E+00
RMM:  90     0.142927710032E+05    0.99141E-02   -0.67999E-03  7286   0.119E-01    0.283E+00
RMM:  91     0.142927983031E+05    0.27300E-01   -0.30224E-02  8030   0.230E-01    0.241E+00
RMM:  92     0.142928242292E+05    0.25926E-01   -0.75621E-02  8537   0.430E-01    0.237E+00
RMM:  93     0.142927914419E+05   -0.32787E-01   -0.23451E-02  8214   0.251E-01    0.232E+00
RMM:  94     0.142927871413E+05   -0.43006E-02   -0.18647E-02  8169   0.199E-01    0.171E+00
RMM:  95     0.142927806519E+05   -0.64894E-02   -0.15708E-02  7639   0.171E-01    0.249E+00
RMM:  96     0.142927792732E+05   -0.13787E-02   -0.52431E-03  6970   0.137E-01    0.249E+00
RMM:  97     0.142927982542E+05    0.18981E-01   -0.49578E-02  8084   0.295E-01    0.221E+00
RMM:  98     0.142927742243E+05   -0.24030E-01   -0.24075E-02  7809   0.277E-01    0.338E+00
RMM:  99     0.142927773223E+05    0.30981E-02   -0.47692E-03  7062   0.141E-01    0.351E+00
RMM: 100     0.142928013113E+05    0.23989E-01   -0.51219E-03  7444   0.111E-01 
  15 F= 0.14292801E+05 E0= 0.14292801E+05  d E =-.225357E+05  mag=    -4.8204
 BRION: g(F)=  0.460E+08 g(S)=  0.132E+06 retain N=  1 mean eig= 0.00
 eig:   0.000
 bond charge predicted
 REAL_OPTLAY: internal error (1)        27131        27963
 REAL_OPTLAY: internal error (1)        27131        27963
 REAL_OPTLAY: internal error (1)        27131        27963
 REAL_OPTLAY: internal error (1)        27131        27963
 REAL_OPTLAY: internal error (1)        27131        27963
 REAL_OPTLAY: internal error (1)        27131        27963
 REAL_OPTLAY: internal error (1)        27131        27963
 REAL_OPTLAY: internal error (1)        27131        27963
 REAL_OPTLAY: internal error (1)        27131        27963
 REAL_OPTLAY: internal error (1)        27131        27963
 REAL_OPTLAY: internal error (1)        27131        27963
 REAL_OPTLAY: internal error (1)        27131        27963
 REAL_OPTLAY: internal error (1)        27131        27963
 REAL_OPTLAY: internal error (1)        27131        27963
 REAL_OPTLAY: internal error (1)        27131        27963
 REAL_OPTLAY: internal error (1)        27131        27963
 REAL_OPTLAY: internal error (1)        27131        27963
 REAL_OPTLAY: internal error (1)        27131        27963
 REAL_OPTLAY: internal error (1)        27131        27963
 REAL_OPTLAY: internal error (1)        27131        27963
 REAL_OPTLAY: internal error (1)        27131        27963
 REAL_OPTLAY: internal error (1)        27131        27963
 REAL_OPTLAY: internal error (1)        27131        27963
 REAL_OPTLAY: internal error (1)        27131        27963
 REAL_OPTLAY: internal error (1)        27131        27963
 REAL_OPTLAY: internal error (1)        27131        27963
 REAL_OPTLAY: internal error (1)        27131        27963
 REAL_OPTLAY: internal error (1)        27131        27963
 REAL_OPTLAY: internal error (1)        27131        27963
 REAL_OPTLAY: internal error (1)        27131        27963
 REAL_OPTLAY: internal error (1)        27131        27963
 REAL_OPTLAY: internal error (1)        27131        27963
 REAL_OPTLAY: internal error (1)        27131        27963
 REAL_OPTLAY: internal error (1)        27131        27963
 REAL_OPTLAY: internal error (1)        27131        27963
 REAL_OPTLAY: internal error (1)        27131        27963
 REAL_OPTLAY: internal error (1)        27131        27963
 REAL_OPTLAY: internal error (1)        27131        27963
 REAL_OPTLAY: internal error (1)        27131        27963
 REAL_OPTLAY: internal error (1)        27131        27963
 REAL_OPTLAY: internal error (1)        27131        27963
 REAL_OPTLAY: internal error (1)        27131        27963
 REAL_OPTLAY: internal error (1)        27131        27963
 REAL_OPTLAY: internal error (1)        27131        27963
 REAL_OPTLAY: internal error (1)        27131        27963
 REAL_OPTLAY: internal error (1)        27131        27963
 REAL_OPTLAY: internal error (1)        27131        27963
 REAL_OPTLAY: internal error (1)        27131        27963
Application 14154095 network quiesced: 2 nodes quiesced, 00:00:38 node-seconds
Application 14154095 resources: utime ~2783317s, stime ~9489s Rss ~326112 inblocks ~4350300 outblocks ~25106070
