 vasp.5.4.1 05Feb16 (build Aug 03 2016 21:40:28) complex                        
  
 executed on           IFC91_ompi date 2017.01.29  02:17:31
 running on   32 total cores
 distrk:  each k-point on   32 cores,    1 groups
 distr:  one band on NCORES_PER_BAND=   1 cores,   32 groups


--------------------------------------------------------------------------------------------------------


 INCAR:
 POTCAR:    PAW_PBE Na_pv 05Jan2001               
 POTCAR:   PAW_PBE Gd 08Apr2002                   
 POTCAR:    PAW_PBE S 17Jan2003                   

 ----------------------------------------------------------------------------- 
|                                                                             |
|           W    W    AA    RRRRR   N    N  II  N    N   GGGG   !!!           |
|           W    W   A  A   R    R  NN   N  II  NN   N  G    G  !!!           |
|           W    W  A    A  R    R  N N  N  II  N N  N  G       !!!           |
|           W WW W  AAAAAA  RRRRR   N  N N  II  N  N N  G  GGG   !            |
|           WW  WW  A    A  R   R   N   NN  II  N   NN  G    G                |
|           W    W  A    A  R    R  N    N  II  N    N   GGGG   !!!           |
|                                                                             |
|      For optimal performance we recommend to set                            |
|        NCORE= 4 - approx SQRT( number of cores)                             |
|      NCORE specifies how many cores store one orbital (NPAR=cpu/NCORE).     |
|      This setting can  greatly improve the performance of VASP for DFT.     |
|      The default, NPAR=number of cores might be grossly inefficient         |
|      on modern multi-core architectures or massively parallel machines.     |
|      Do your own testing !!!!                                               |
|      Unfortunately you need to use the default for GW and RPA calculations. |
|      (for HF NCORE is supported but not extensively tested yet)             |
|                                                                             |
 ----------------------------------------------------------------------------- 

 POTCAR:    PAW_PBE Na_pv 05Jan2001               
   VRHFIN =Na: p6s1                                                             
   LEXCH  = PE                                                                  
   EATOM  =   766.0439 eV,   56.3026 Ry                                         
                                                                                
   TITEL  = PAW_PBE Na_pv 05Jan2001                                             
   LULTRA =        F    use ultrasoft PP ?                                      
   IUNSCR =        1    unscreen: 0-lin 1-nonlin 2-no                           
   RPACOR =    1.800    partial core radius                                     
   POMASS =   22.990; ZVAL   =    7.000    mass and valenz                      
   RCORE  =    2.200    outmost cutoff radius                                   
   RWIGS  =    2.200; RWIGS  =    1.164    wigner-seitz radius (au A)           
   ENMAX  =  259.561; ENMIN  =  194.671 eV                                      
   ICORE  =        2    local potential                                         
   LCOR   =        T    correct aug charges                                     
   LPAW   =        T    paw PP                                                  
   EAUG   =  368.056                                                            
   DEXC   =    -.009                                                            
   RMAX   =    2.862    core radius for proj-oper                               
   RAUG   =    1.300    factor for augmentation sphere                          
   RDEP   =    2.259    radius for radial grids                                 
   QCUT   =   -4.368; QGAM   =    8.735    optimization parameters              
                                                                                
   Description                                                                  
     l     E      TYP  RCUT    TYP  RCUT                                        
     1   .000     23  2.000                                                     
     1   .500     23  2.000                                                     
     0   .000     23  2.200                                                     
     0  1.000     23  2.200                                                     
     2  -.100     23  2.000                                                     
  local pseudopotential read in
  partial core-charges read in
  atomic valenz-charges read in
  non local Contribution for L=           1  read in
    real space projection operators read in
  non local Contribution for L=           1  read in
    real space projection operators read in
  non local Contribution for L=           0  read in
    real space projection operators read in
  non local Contribution for L=           0  read in
    real space projection operators read in
    PAW grid and wavefunctions read in
 
   number of l-projection  operators is LMAX  =           4
   number of lm-projection operators is LMMAX =           8
 
 POTCAR:   PAW_PBE Gd 08Apr2002                   
   VRHFIN =Gd : [core=Xe4]                                                      
   LEXCH  = PE                                                                  
   EATOM  =  3047.6015 eV,  223.9924 Ry                                         
                                                                                
   TITEL  = PAW_PBE Gd 08Apr2002                                                
   LULTRA =        F    use ultrasoft PP ?                                      
   IUNSCR =        1    unscreen: 0-lin 1-nonlin 2-no                           
   RPACOR =    2.300    partial core radius                                     
   POMASS =  157.250; ZVAL   =   18.000    mass and valenz                      
   RCORE  =    2.800    outmost cutoff radius                                   
   RWIGS  =    2.800; RWIGS  =    1.482    wigner-seitz radius (au A)           
   ENMAX  =  256.472; ENMIN  =  192.354 eV                                      
   RCLOC  =    2.316    cutoff for local pot                                    
   LCOR   =        T    correct aug charges                                     
   LPAW   =        T    paw PP                                                  
   EAUG   =  537.243                                                            
   DEXC   =     .000                                                            
   RMAX   =    2.879    core radius for proj-oper                               
   RAUG   =    1.300    factor for augmentation sphere                          
   RDEP   =    2.921    radius for radial grids                                 
   QCUT   =   -4.342; QGAM   =    8.683    optimization parameters              
                                                                                
   Description                                                                  
     l     E      TYP  RCUT    TYP  RCUT                                        
     0   .000     23  2.400                                                     
     0   .000     23  2.400                                                     
     1   .000     23  2.400                                                     
     1  3.000     23  2.400                                                     
     2   .000     23  2.500                                                     
     2   .000     23  2.500                                                     
     3   .000     23  2.800                                                     
     3 -1.000     23  2.800                                                     
  local pseudopotential read in
  partial core-charges read in
  atomic valenz-charges read in
  non local Contribution for L=           0  read in
    real space projection operators read in
  non local Contribution for L=           0  read in
    real space projection operators read in
  non local Contribution for L=           1  read in
    real space projection operators read in
  non local Contribution for L=           1  read in
    real space projection operators read in
  non local Contribution for L=           2  read in
    real space projection operators read in
  non local Contribution for L=           2  read in
    real space projection operators read in
  non local Contribution for L=           3  read in
    real space projection operators read in
  non local Contribution for L=           3  read in
    real space projection operators read in
    PAW grid and wavefunctions read in
 
   number of l-projection  operators is LMAX  =           8
   number of lm-projection operators is LMMAX =          32
 
 POTCAR:    PAW_PBE S 17Jan2003                   
   VRHFIN =S : s2p4                                                             
   LEXCH  = PE                                                                  
   EATOM  =   276.8230 eV,   20.3459 Ry                                         
                                                                                
   TITEL  = PAW_PBE S 17Jan2003                                                 
   LULTRA =        F    use ultrasoft PP ?                                      
   IUNSCR =        1    unscreen: 0-lin 1-nonlin 2-no                           
   RPACOR =    1.500    partial core radius                                     
   POMASS =   32.066; ZVAL   =    6.000    mass and valenz                      
   RCORE  =    1.900    outmost cutoff radius                                   
   RWIGS  =    2.200; RWIGS  =    1.164    wigner-seitz radius (au A)           
   ENMAX  =  280.000; ENMIN  =  194.016 eV                                      
   ICORE  =        2    local potential                                         
   LCOR   =        T    correct aug charges                                     
   LPAW   =        T    paw PP                                                  
   EAUG   =  335.092                                                            
   DEXC   =     .000                                                            
   RMAX   =    2.867    core radius for proj-oper                               
   RAUG   =    1.300    factor for augmentation sphere                          
   RDEP   =    1.954    radius for radial grids                                 
   QCUT   =   -4.360; QGAM   =    8.721    optimization parameters              
                                                                                
   Description                                                                  
     l     E      TYP  RCUT    TYP  RCUT                                        
     0   .000     23  1.900                                                     
     0   .000     23  1.900                                                     
     1   .000     23  1.900                                                     
     1   .000     23  1.900                                                     
     2   .000     23  1.900                                                     
  local pseudopotential read in
  partial core-charges read in
  atomic valenz-charges read in
  non local Contribution for L=           0  read in
    real space projection operators read in
  non local Contribution for L=           0  read in
    real space projection operators read in
  non local Contribution for L=           1  read in
    real space projection operators read in
  non local Contribution for L=           1  read in
    real space projection operators read in
    PAW grid and wavefunctions read in
 
   number of l-projection  operators is LMAX  =           4
   number of lm-projection operators is LMMAX =           8
 
 Optimization of the real space projectors (new method)

 maximal supplied QI-value         = 17.01
 optimisation between [QCUT,QGAM] = [ 11.57, 23.30] = [ 37.45,152.03] Ry 
 Optimized for a Real-space Cutoff    1.25 Angstroem

   l    n(q)    QCUT    max X(q) W(low)/X(q) W(high)/X(q)  e(spline) 
   1      8    11.565     5.105    0.28E-04    0.12E-04    0.25E-07
   1      8    11.565     6.428    0.22E-03    0.17E-03    0.77E-07
   0      9    11.565    36.712    0.15E-04    0.28E-04    0.12E-07
   0      9    11.565    84.879    0.99E-04    0.22E-03    0.11E-06
 Optimization of the real space projectors (new method)

 maximal supplied QI-value         = 13.42
 optimisation between [QCUT,QGAM] = [ 11.67, 23.35] = [ 38.16,152.62] Ry 
 Optimized for a Real-space Cutoff    1.78 Angstroem

   l    n(q)    QCUT    max X(q) W(low)/X(q) W(high)/X(q)  e(spline) 
   0     13    11.673     5.842    0.11E-04    0.12E-06    0.19E-07
   0     13    11.673    10.266    0.26E-04    0.15E-05    0.13E-06
   1     12    11.673     3.311    0.36E-06    0.19E-06    0.51E-07
   1     12    11.673     3.112    0.56E-05    0.11E-04    0.30E-06
   2     12    11.673     4.033    0.44E-06    0.35E-05    0.85E-07
   2     12    11.673    22.590    0.14E-04    0.54E-04    0.83E-06
   3     11    11.673     9.937    0.46E-05    0.63E-05    0.81E-07
   3     11    11.673     7.178    0.12E-03    0.33E-04    0.20E-05
 Optimization of the real space projectors (new method)

 maximal supplied QI-value         = 19.84
 optimisation between [QCUT,QGAM] = [ 11.51, 23.22] = [ 37.09,150.92] Ry 
 Optimized for a Real-space Cutoff    1.21 Angstroem

   l    n(q)    QCUT    max X(q) W(low)/X(q) W(high)/X(q)  e(spline) 
   0      8    11.508     5.487    0.18E-04    0.22E-05    0.47E-08
   0      8    11.508    85.627    0.96E-04    0.18E-03    0.54E-07
   1      8    11.508     3.530    0.17E-04    0.28E-04    0.21E-07
   1      8    11.508    42.714    0.18E-03    0.63E-04    0.92E-07
  PAW_PBE Na_pv 05Jan2001               :
 energy of atom  1       EATOM= -766.0439
 kinetic energy error for atom=    0.0019 (will be added to EATOM!!)
 PAW_PBE Gd 08Apr2002                   :
 energy of atom  2       EATOM=-3047.6015
 kinetic energy error for atom=    0.0019 (will be added to EATOM!!)
  PAW_PBE S 17Jan2003                   :
 energy of atom  3       EATOM= -276.8230
 kinetic energy error for atom=    0.0016 (will be added to EATOM!!)
 
 
 POSCAR: Na12 Gd12 S24                           
  positions in direct lattice
  No initial velocities read in
 exchange correlation table for  LEXCH =        8
   RHO(1)=    0.500       N(1)  =     2000
   RHO(2)=  100.500       N(2)  =     4000
 


--------------------------------------------------------------------------------------------------------


 ion  position               nearest neighbor table
   1  0.167  0.252  0.245-
   2  0.161  0.249  0.757-
   3  0.163  0.757  0.242-
   4  0.501  0.251  0.246-  33 2.78
   5  0.504  0.242  0.754-
   6  0.501  0.752  0.246-
   7  0.504  0.747  0.754-
   8  0.837  0.246  0.242-
   9  0.831  0.253  0.757-
  10  0.838  0.756  0.241-
  11  0.828  0.748  0.755-
  12  0.998  0.002  0.003-
  13  0.161  0.754  0.759-  48 2.70  40 2.73  38 2.78  26 2.87  28 2.92  32 2.93
  14  0.330  0.502  0.005-  27 2.70  31 2.74  29 2.77  40 2.81  42 2.85  38 2.85
  15  0.335  0.499  0.498-  41 2.75  37 2.76  39 2.77  30 2.77  32 2.81  28 2.81
  16  0.331  0.998  0.000-  25 2.71  31 2.73  29 2.77  44 2.77  40 2.88  38 2.94
  17  0.335  0.001  0.498-  43 2.74  37 2.75  39 2.77  30 2.78  32 2.81  26 2.83
  18  0.674  0.492  0.998-  46 2.70  33 2.74  42 2.79  35 2.80  44 2.84  31 2.86
  19  0.667  0.499  0.501-  34 2.76  45 2.76  36 2.77  41 2.77  43 2.77  32 2.89
  20  0.670  0.002  0.999-  33 2.72  42 2.76  29 2.78  35 2.79  44 2.81  48 2.89
  21  0.666  0.001  0.501-  30 2.77  34 2.78  41 2.78  43 2.78  36 2.79  47 2.79
  22  0.998  0.494  0.005-  25 2.72  35 2.75  27 2.77  46 2.77  48 2.86  38 2.86
  23  0.998  0.501  0.502-  47 2.75  45 2.75  36 2.75  37 2.76  28 2.88  26 2.89
  24  0.999  0.002  0.498-  47 2.75  45 2.75  39 2.77  34 2.78  28 2.81  26 2.82
  25  0.093  0.132  0.115-  16 2.71  22 2.72
  26  0.088  0.115  0.621-  24 2.82  17 2.83  13 2.87  23 2.89
  27  0.091  0.613  0.117-  14 2.70  22 2.77
  28  0.089  0.633  0.620-  15 2.81  24 2.81  23 2.88  13 2.92
  29  0.421  0.126  0.111-  14 2.77  16 2.77  20 2.78
  30  0.418  0.131  0.613-  21 2.77  15 2.77  17 2.78
  31  0.417  0.634  0.113-  16 2.73  14 2.74  18 2.86
  32  0.409  0.633  0.620-  15 2.81  17 2.81  19 2.89  13 2.93
  33  0.740  0.136  0.118-  20 2.72  18 2.74   4 2.78
  34  0.753  0.130  0.614-  19 2.76  21 2.78  24 2.78
  35  0.751  0.631  0.115-  22 2.75  20 2.79  18 2.80
  36  0.753  0.629  0.614-  23 2.75  19 2.77  21 2.79
  37  0.244  0.371  0.389-  17 2.75  15 2.76  23 2.76
  38  0.245  0.388  0.877-  13 2.78  14 2.85  22 2.86  16 2.94
  39  0.247  0.871  0.386-  24 2.77  15 2.77  17 2.77
  40  0.255  0.860  0.874-  13 2.73  14 2.81  16 2.88
  41  0.581  0.372  0.387-  15 2.75  19 2.77  21 2.78
  42  0.581  0.369  0.885-  20 2.76  18 2.79  14 2.85
  43  0.581  0.868  0.387-  17 2.74  19 2.77  21 2.78
  44  0.578  0.875  0.886-  16 2.77  20 2.81  18 2.84
  45  0.914  0.372  0.389-  24 2.75  23 2.75  19 2.76
  46  0.911  0.386  0.882-  18 2.70  22 2.77
  47  0.916  0.866  0.388-  24 2.75  23 2.75  21 2.79
  48  0.924  0.862  0.875-  13 2.70  22 2.86  20 2.89
 
  Warning from LATTYP: Got some problem with cell dimensions!
  Tried to take original basis but could not verify dimensions!
  LATTYP: Found a triclinic cell.
 ALAT       =    12.1045971801
 B/A-ratio  =     0.8819027604
 C/A-ratio  =     1.4948565471
 COS(alpha) =     0.0000692821
 COS(beta)  =     0.4449454253
 COS(gamma) =     0.7556032371
  
  Lattice vectors:
  
 A1 = ( -11.6043550000,  -0.0050560000,  -3.4438630000)
 A2 = (  -8.0748790000,   6.8866470000,  -1.1522610000)
 A3 = (  -3.5419280000,  -6.8873420000, -16.3534440000)


Analysis of symmetry for initial positions (statically):
=====================================================================
 Subroutine PRICEL returns:
 Original cell was already a primitive cell.
 

 Routine SETGRP: Setting up the symmetry group for a 
 triclinic supercell.


 Subroutine GETGRP returns: Found  1 space group operations
 (whereof  1 operations were pure point group operations)
 out of a pool of  2 trial point group operations.


The static configuration has the point symmetry C_1 .


Analysis of symmetry for dynamics (positions and initial velocities):
=====================================================================
 Subroutine PRICEL returns:
 Original cell was already a primitive cell.
 

 Routine SETGRP: Setting up the symmetry group for a 
 triclinic supercell.


 Subroutine GETGRP returns: Found  1 space group operations
 (whereof  1 operations were pure point group operations)
 out of a pool of  2 trial point group operations.


The dynamic configuration has the point symmetry C_1 .


Analysis of structural, dynamic, and magnetic symmetry:
=====================================================================
 Subroutine PRICEL returns:
 Original cell was already a primitive cell.
 

 Routine SETGRP: Setting up the symmetry group for a 
 triclinic supercell.


 Subroutine GETGRP returns: Found  1 space group operations
 (whereof  1 operations were pure point group operations)
 out of a pool of  2 trial point group operations.


The magnetic configuration has the point symmetry C_1 .


 Subroutine INISYM returns: Found  1 space group operations
 (whereof  1 operations are pure point group operations),
 and found     1 'primitive' translations

 
 
 KPOINTS: Automatic kpoint scheme                 

Automatic generation of k-mesh.
Space group operators:
 irot       det(A)        alpha          n_x          n_y          n_z        tau_x        tau_y        tau_z
    1     1.000000     0.000000     1.000000     0.000000     0.000000     0.000000     0.000000     0.000000
 
 Subroutine IBZKPT returns following result:
 ===========================================
 
 Found     52 irreducible k-points:
 
 Following reciprocal coordinates:
            Coordinates               Weight
  0.000000  0.000000  0.000000      1.000000
  0.250000  0.000000  0.000000      2.000000
  0.500000  0.000000  0.000000      1.000000
 -0.000000  0.166667 -0.000000      2.000000
  0.250000  0.166667  0.000000      2.000000
  0.500000  0.166667  0.000000      2.000000
 -0.250000  0.166667  0.000000      2.000000
 -0.000000  0.333333 -0.000000      2.000000
  0.250000  0.333333  0.000000      2.000000
  0.500000  0.333333  0.000000      2.000000
 -0.250000  0.333333 -0.000000      2.000000
 -0.000000  0.500000 -0.000000      1.000000
  0.250000  0.500000 -0.000000      2.000000
  0.500000  0.500000  0.000000      1.000000
 -0.000000 -0.000000  0.250000      2.000000
  0.250000 -0.000000  0.250000      2.000000
  0.500000 -0.000000  0.250000      2.000000
 -0.250000 -0.000000  0.250000      2.000000
 -0.000000  0.166667  0.250000      2.000000
  0.250000  0.166667  0.250000      2.000000
  0.500000  0.166667  0.250000      2.000000
 -0.250000  0.166667  0.250000      2.000000
 -0.000000  0.333333  0.250000      2.000000
  0.250000  0.333333  0.250000      2.000000
  0.500000  0.333333  0.250000      2.000000
 -0.250000  0.333333  0.250000      2.000000
 -0.000000  0.500000  0.250000      2.000000
  0.250000  0.500000  0.250000      2.000000
  0.500000  0.500000  0.250000      2.000000
 -0.250000  0.500000  0.250000      2.000000
 -0.000000 -0.333333  0.250000      2.000000
  0.250000 -0.333333  0.250000      2.000000
  0.500000 -0.333333  0.250000      2.000000
 -0.250000 -0.333333  0.250000      2.000000
 -0.000000 -0.166667  0.250000      2.000000
  0.250000 -0.166667  0.250000      2.000000
  0.500000 -0.166667  0.250000      2.000000
 -0.250000 -0.166667  0.250000      2.000000
 -0.000000 -0.000000  0.500000      1.000000
  0.250000  0.000000  0.500000      2.000000
  0.500000 -0.000000  0.500000      1.000000
 -0.000000  0.166667  0.500000      2.000000
  0.250000  0.166667  0.500000      2.000000
  0.500000  0.166667  0.500000      2.000000
 -0.250000  0.166667  0.500000      2.000000
 -0.000000  0.333333  0.500000      2.000000
  0.250000  0.333333  0.500000      2.000000
  0.500000  0.333333  0.500000      2.000000
 -0.250000  0.333333  0.500000      2.000000
 -0.000000  0.500000  0.500000      1.000000
  0.250000  0.500000  0.500000      2.000000
  0.500000  0.500000  0.500000      1.000000
 
 Following cartesian coordinates:
            Coordinates               Weight
  0.000000  0.000000  0.000000      1.000000
  0.021555 -0.011032 -0.000023      2.000000
  0.043110 -0.022063 -0.000045      1.000000
 -0.000013  0.024188  0.000008      2.000000
  0.021542  0.013156 -0.000015      2.000000
  0.043097  0.002124 -0.000038      2.000000
 -0.021568  0.035219  0.000030      2.000000
 -0.000026  0.048375  0.000015      2.000000
  0.021530  0.037344 -0.000007      2.000000
  0.043085  0.026312 -0.000030      2.000000
 -0.021581  0.059407  0.000038      2.000000
 -0.000038  0.072563  0.000023      1.000000
  0.021517  0.061532  0.000000      2.000000
  0.043072  0.050500 -0.000022      1.000000
 -0.005276 -0.003211  0.017782      2.000000
  0.016279 -0.014243  0.017760      2.000000
  0.037834 -0.025274  0.017737      2.000000
 -0.026831  0.007821  0.017805      2.000000
 -0.005289  0.020977  0.017790      2.000000
  0.016266  0.009945  0.017767      2.000000
  0.037822 -0.001086  0.017745      2.000000
 -0.026844  0.032008  0.017812      2.000000
 -0.005301  0.045164  0.017797      2.000000
  0.016254  0.034133  0.017775      2.000000
  0.037809  0.023101  0.017752      2.000000
 -0.026857  0.056196  0.017820      2.000000
 -0.005314  0.069352  0.017805      2.000000
  0.016241  0.058321  0.017782      2.000000
  0.037796  0.047289  0.017760      2.000000
 -0.026869  0.080384  0.017827      2.000000
 -0.005250 -0.051586  0.017767      2.000000
  0.016305 -0.062618  0.017745      2.000000
  0.037860 -0.073650  0.017722      2.000000
 -0.026805 -0.040555  0.017790      2.000000
 -0.005263 -0.027399  0.017775      2.000000
  0.016292 -0.038430  0.017752      2.000000
  0.037847 -0.049462  0.017730      2.000000
 -0.026818 -0.016367  0.017797      2.000000
 -0.010552 -0.006422  0.035565      1.000000
  0.011003 -0.017453  0.035542      2.000000
  0.032558 -0.028485  0.035520      1.000000
 -0.010565  0.017766  0.035572      2.000000
  0.010991  0.006734  0.035550      2.000000
  0.032546 -0.004297  0.035527      2.000000
 -0.032120  0.028797  0.035595      2.000000
 -0.010577  0.041954  0.035580      2.000000
  0.010978  0.030922  0.035557      2.000000
  0.032533  0.019890  0.035535      2.000000
 -0.032132  0.052985  0.035602      2.000000
 -0.010590  0.066141  0.035587      1.000000
  0.010965  0.055110  0.035565      2.000000
  0.032520  0.044078  0.035542      1.000000
 
 TETIRR: Found    288 inequivalent tetrahedra from      576
 
 Subroutine IBZKPT_HF returns following result:
 ==============================================
 
 Found     96 k-points in 1st BZ
 the following     96 k-points will be used (e.g. in the exchange kernel)
 Following reciprocal coordinates:   # in IRBZ
  0.000000  0.000000  0.000000    0.01041667   1 t-inv F
  0.250000  0.000000  0.000000    0.01041667   2 t-inv F
  0.500000  0.000000  0.000000    0.01041667   3 t-inv F
 -0.000000  0.166667 -0.000000    0.01041667   4 t-inv F
  0.250000  0.166667  0.000000    0.01041667   5 t-inv F
  0.500000  0.166667  0.000000    0.01041667   6 t-inv F
 -0.250000  0.166667  0.000000    0.01041667   7 t-inv F
 -0.000000  0.333333 -0.000000    0.01041667   8 t-inv F
  0.250000  0.333333  0.000000    0.01041667   9 t-inv F
  0.500000  0.333333  0.000000    0.01041667  10 t-inv F
 -0.250000  0.333333 -0.000000    0.01041667  11 t-inv F
 -0.000000  0.500000 -0.000000    0.01041667  12 t-inv F
  0.250000  0.500000 -0.000000    0.01041667  13 t-inv F
  0.500000  0.500000  0.000000    0.01041667  14 t-inv F
 -0.000000 -0.000000  0.250000    0.01041667  15 t-inv F
  0.250000 -0.000000  0.250000    0.01041667  16 t-inv F
  0.500000 -0.000000  0.250000    0.01041667  17 t-inv F
 -0.250000 -0.000000  0.250000    0.01041667  18 t-inv F
 -0.000000  0.166667  0.250000    0.01041667  19 t-inv F
  0.250000  0.166667  0.250000    0.01041667  20 t-inv F
  0.500000  0.166667  0.250000    0.01041667  21 t-inv F
 -0.250000  0.166667  0.250000    0.01041667  22 t-inv F
 -0.000000  0.333333  0.250000    0.01041667  23 t-inv F
  0.250000  0.333333  0.250000    0.01041667  24 t-inv F
  0.500000  0.333333  0.250000    0.01041667  25 t-inv F
 -0.250000  0.333333  0.250000    0.01041667  26 t-inv F
 -0.000000  0.500000  0.250000    0.01041667  27 t-inv F
  0.250000  0.500000  0.250000    0.01041667  28 t-inv F
  0.500000  0.500000  0.250000    0.01041667  29 t-inv F
 -0.250000  0.500000  0.250000    0.01041667  30 t-inv F
 -0.000000 -0.333333  0.250000    0.01041667  31 t-inv F
  0.250000 -0.333333  0.250000    0.01041667  32 t-inv F
  0.500000 -0.333333  0.250000    0.01041667  33 t-inv F
 -0.250000 -0.333333  0.250000    0.01041667  34 t-inv F
 -0.000000 -0.166667  0.250000    0.01041667  35 t-inv F
  0.250000 -0.166667  0.250000    0.01041667  36 t-inv F
  0.500000 -0.166667  0.250000    0.01041667  37 t-inv F
 -0.250000 -0.166667  0.250000    0.01041667  38 t-inv F
 -0.000000 -0.000000  0.500000    0.01041667  39 t-inv F
  0.250000  0.000000  0.500000    0.01041667  40 t-inv F
  0.500000 -0.000000  0.500000    0.01041667  41 t-inv F
 -0.000000  0.166667  0.500000    0.01041667  42 t-inv F
  0.250000  0.166667  0.500000    0.01041667  43 t-inv F
  0.500000  0.166667  0.500000    0.01041667  44 t-inv F
 -0.250000  0.166667  0.500000    0.01041667  45 t-inv F
 -0.000000  0.333333  0.500000    0.01041667  46 t-inv F
  0.250000  0.333333  0.500000    0.01041667  47 t-inv F
  0.500000  0.333333  0.500000    0.01041667  48 t-inv F
 -0.250000  0.333333  0.500000    0.01041667  49 t-inv F
 -0.000000  0.500000  0.500000    0.01041667  50 t-inv F
  0.250000  0.500000  0.500000    0.01041667  51 t-inv F
  0.500000  0.500000  0.500000    0.01041667  52 t-inv F
 -0.250000 -0.000000 -0.000000    0.01041667   2 t-inv T
  0.000000 -0.166667  0.000000    0.01041667   4 t-inv T
 -0.250000 -0.166667 -0.000000    0.01041667   5 t-inv T
 -0.500000 -0.166667 -0.000000    0.01041667   6 t-inv T
  0.250000 -0.166667  0.000000    0.01041667   7 t-inv T
  0.000000 -0.333333  0.000000    0.01041667   8 t-inv T
 -0.250000 -0.333333 -0.000000    0.01041667   9 t-inv T
 -0.500000 -0.333333  0.000000    0.01041667  10 t-inv T
  0.250000 -0.333333  0.000000    0.01041667  11 t-inv T
 -0.250000 -0.500000  0.000000    0.01041667  13 t-inv T
  0.000000  0.000000 -0.250000    0.01041667  15 t-inv T
 -0.250000  0.000000 -0.250000    0.01041667  16 t-inv T
 -0.500000  0.000000 -0.250000    0.01041667  17 t-inv T
  0.250000  0.000000 -0.250000    0.01041667  18 t-inv T
  0.000000 -0.166667 -0.250000    0.01041667  19 t-inv T
 -0.250000 -0.166667 -0.250000    0.01041667  20 t-inv T
 -0.500000 -0.166667 -0.250000    0.01041667  21 t-inv T
  0.250000 -0.166667 -0.250000    0.01041667  22 t-inv T
  0.000000 -0.333333 -0.250000    0.01041667  23 t-inv T
 -0.250000 -0.333333 -0.250000    0.01041667  24 t-inv T
 -0.500000 -0.333333 -0.250000    0.01041667  25 t-inv T
  0.250000 -0.333333 -0.250000    0.01041667  26 t-inv T
  0.000000 -0.500000 -0.250000    0.01041667  27 t-inv T
 -0.250000 -0.500000 -0.250000    0.01041667  28 t-inv T
 -0.500000 -0.500000 -0.250000    0.01041667  29 t-inv T
  0.250000 -0.500000 -0.250000    0.01041667  30 t-inv T
  0.000000  0.333333 -0.250000    0.01041667  31 t-inv T
 -0.250000  0.333333 -0.250000    0.01041667  32 t-inv T
 -0.500000  0.333333 -0.250000    0.01041667  33 t-inv T
  0.250000  0.333333 -0.250000    0.01041667  34 t-inv T
  0.000000  0.166667 -0.250000    0.01041667  35 t-inv T
 -0.250000  0.166667 -0.250000    0.01041667  36 t-inv T
 -0.500000  0.166667 -0.250000    0.01041667  37 t-inv T
  0.250000  0.166667 -0.250000    0.01041667  38 t-inv T
 -0.250000  0.000000 -0.500000    0.01041667  40 t-inv T
  0.000000 -0.166667 -0.500000    0.01041667  42 t-inv T
 -0.250000 -0.166667 -0.500000    0.01041667  43 t-inv T
 -0.500000 -0.166667 -0.500000    0.01041667  44 t-inv T
  0.250000 -0.166667 -0.500000    0.01041667  45 t-inv T
  0.000000 -0.333333 -0.500000    0.01041667  46 t-inv T
 -0.250000 -0.333333 -0.500000    0.01041667  47 t-inv T
 -0.500000 -0.333333 -0.500000    0.01041667  48 t-inv T
  0.250000 -0.333333 -0.500000    0.01041667  49 t-inv T
 -0.250000 -0.500000 -0.500000    0.01041667  51 t-inv T


--------------------------------------------------------------------------------------------------------




 Dimension of arrays:
   k-points           NKPTS =     52   k-points in BZ     NKDIM =     52   number of bands    NBANDS=    288
   number of dos      NEDOS =    301   number of ions     NIONS =     48
   non local maximal  LDIM  =      8   non local SUM 2l+1 LMDIM =     32
   total plane-waves  NPLWV = 583200
   max r-space proj   IRMAX =  12267   max aug-charges    IRDMAX=  30887
   dimension x,y,z NGX =    90 NGY =   60 NGZ =  108
   dimension x,y,z NGXF=   180 NGYF=  120 NGZF=  216
   support grid    NGXF=   180 NGYF=  120 NGZF=  216
   ions per type =              12  12  24
 NGX,Y,Z   is equivalent  to a cutoff of  12.36, 12.35, 12.77 a.u.
 NGXF,Y,Z  is equivalent  to a cutoff of  24.72, 24.71, 25.54 a.u.


 I would recommend the setting:
   dimension x,y,z NGX =    90 NGY =   60 NGZ =  105
 SYSTEM =  unknown system                          
 POSCAR =  Na12 Gd12 S24                           

 Startparameter for this run:
   NWRITE =      2    write-flag & timer
   PREC   = accura    normal or accurate (medium, high low for compatibility)
   ISTART =      0    job   : 0-new  1-cont  2-samecut
   ICHARG =      2    charge: 1-file 2-atom 10-const
   ISPIN  =      2    spin polarized calculation?
   LNONCOLLINEAR =      F non collinear calculations
   LSORBIT =      F    spin-orbit coupling
   INIWAV =      1    electr: 0-lowe 1-rand  2-diag
   LASPH  =      F    aspherical Exc in radial PAW
   METAGGA=      F    non-selfconsistent MetaGGA calc.

 Electronic Relaxation 1
   ENCUT  =  520.0 eV  38.22 Ry    6.18 a.u.  22.51 15.01 26.15*2*pi/ulx,y,z
   ENINI  =  520.0     initial cutoff
   ENAUG  =  537.2 eV  augmentation charge cutoff
   NELM   =    100;   NELMIN=  2; NELMDL=  0     # of ELM steps 
   EDIFF  = 0.1E-04   stopping-criterion for ELM
   LREAL  =      T    real-space projection
   NLSPLINE    = F    spline interpolate recip. space projectors
   LCOMPAT=      F    compatible to vasp.4.4
   GGA_COMPAT  = T    GGA compatible to vasp.4.4-vasp.4.6
   LMAXPAW     = -100 max onsite density
   LMAXMIX     =    2 max onsite mixed and CHGCAR
   VOSKOWN=      0    Vosko Wilk Nusair interpolation
   ROPT   =   -0.00025  -0.00025  -0.00025
 Ionic relaxation
   EDIFFG = -.5E-01   stopping-criterion for IOM
   NSW    =      1    number of steps for IOM
   NBLOCK =      1;   KBLOCK =      1    inner block; outer block 
   IBRION =      8    ionic relax: 0-MD 1-quasi-New 2-CG
   NFREE  =      0    steps in history (QN), initial steepest desc. (CG)
   ISIF   =      3    stress and relaxation
   IWAVPR =     11    prediction:  0-non 1-charg 2-wave 3-comb
   ISYM   =      2    0-nonsym 1-usesym 2-fastsym
   LCORR  =      T    Harris-Foulkes like correction to forces

   POTIM  = 0.1250    time-step for ionic-motion
   TEIN   =    0.0    initial temperature
   TEBEG  =    0.0;   TEEND  =   0.0 temperature during run
   SMASS  =  -3.00    Nose mass-parameter (am)
   estimated Nose-frequenzy (Omega)   =  0.10E-29 period in steps =****** mass=  -0.335E-26a.u.
   SCALEE = 1.0000    scale energy and forces
   NPACO  =    256;   APACO  = 16.0  distance and # of slots for P.C.
   PSTRESS=    0.0 pullay stress

  Mass of Ions in am
   POMASS =  22.99157.25 32.07
  Ionic Valenz
   ZVAL   =   7.00 18.00  6.00
  Atomic Wigner-Seitz radii
   RWIGS  =  -1.00 -1.00 -1.00
  virtual crystal weights 
   VCA    =   1.00  1.00  1.00
   NELECT =     444.0000    total number of electrons
   NUPDOWN=      -1.0000    fix difference up-down

 DOS related values:
   EMIN   =  10.00;   EMAX   =-10.00  energy-range for DOS
   EFERMI =   0.00
   ISMEAR =    -5;   SIGMA  =   0.05  broadening in eV -4-tet -1-fermi 0-gaus

 Electronic relaxation 2 (details)
   IALGO  =     38    algorithm
   LDIAG  =      T    sub-space diagonalisation (order eigenvalues)
   LSUBROT=      F    optimize rotation matrix (better conditioning)
   TURBO    =      0    0=normal 1=particle mesh
   IRESTART =      0    0=no restart 2=restart with 2 vectors
   NREBOOT  =      0    no. of reboots
   NMIN     =      0    reboot dimension
   EREF     =   0.00    reference energy to select bands
   IMIX   =      4    mixing-type and parameters
     AMIX     =   0.40;   BMIX     =  1.00
     AMIX_MAG =   1.60;   BMIX_MAG =  1.00
     AMIN     =   0.10
     WC   =   100.;   INIMIX=   1;  MIXPRE=   1;  MAXMIX= -45

 Intra band minimization:
   WEIMIN = 0.0010     energy-eigenvalue tresh-hold
   EBREAK =  0.87E-08  absolut break condition
   DEPER  =   0.30     relativ break condition  

   TIME   =   0.40     timestep for ELM

  volume/ion in A,a.u.               =      23.42       158.04
  Fermi-wavevector in a.u.,A,eV,Ry     =   1.201162  2.269866 19.630341  1.442789
  Thomas-Fermi vector in A             =   2.336978
 
 Write flags
   LWAVE  =      F    write WAVECAR
   LCHARG =      T    write CHGCAR
   LVTOT  =      F    write LOCPOT, total local potential
   LVHAR  =      T    write LOCPOT, Hartree potential only
   LELF   =      F    write electronic localiz. function (ELF)
   LORBIT =     11    0 simple, 1 ext, 2 COOP (PROOUT)


 Dipole corrections
   LMONO  =      F    monopole corrections only (constant potential shift)
   LDIPOL =      F    correct potential (dipole corrections)
   IDIPOL =      0    1-x, 2-y, 3-z, 4-all directions 
   EPSILON=  1.0000000 bulk dielectric constant

 Exchange correlation treatment:
   GGA     =    --    GGA type
   LEXCH   =     8    internal setting for exchange type
   VOSKOWN=      0    Vosko Wilk Nusair interpolation
   LHFCALC =     F    Hartree Fock is set to
   LHFONE  =     F    Hartree Fock one center treatment
   AEXX    =    0.0000 exact exchange contribution

 Linear response parameters
   LEPSILON=     T    determine dielectric tensor
   LRPA    =     F    only Hartree local field effects (RPA)
   LNABLA  =     F    use nabla operator in PAW spheres
   LVEL    =     F    velocity operator in full k-point grid
   LINTERFAST=   F  fast interpolation
   KINTER  =     0    interpolate to denser k-point grid
   CSHIFT  =0.1000    complex shift for real part using Kramers Kronig
   OMEGAMAX=  -1.0    maximum frequency
   DEG_THRESHOLD= 0.2000000E-02 threshold for treating states as degnerate
   RTIME   =    0.100 relaxation time in fs

 Orbital magnetization related:
   ORBITALMAG=     F  switch on orbital magnetization
   LCHIMAG   =     F  perturbation theory with respect to B field
   DQ        =  0.001000  dq finite difference perturbation B field



--------------------------------------------------------------------------------------------------------


 linear response using symmetry
 charge density and potential will be updated during run
 spin polarized calculation
 Variant of blocked Davidson
 Davidson routine will perform the subspace rotation
 perform sub-space diagonalisation
    after iterative eigenvector-optimisation
 modified Broyden-mixing scheme, WC =      100.0
 initial mixing is a Kerker type mixing with AMIX =  0.4000 and BMIX =      1.0000
 Hartree-type preconditioning will be used
 using additional bands           66
 real space projection scheme for non local part
 use partial core corrections
 calculate Harris-corrections to forces 
   (improved forces if not selfconsistent)
 use gradient corrections 
 use of overlap-Matrix (Vanderbilt PP)
 Fermi weights with tetrahedron method with Bloechl corrections


--------------------------------------------------------------------------------------------------------


  energy-cutoff  :      520.00
  volume of cell :     1124.10
      direct lattice vectors                 reciprocal lattice vectors
    11.604355000  0.005056000  3.443863000     0.086220490 -0.044126514 -0.000090035
     3.529476000  6.891703000  2.291602000    -0.000076609  0.145126262  0.000045076
     0.012452000 -0.004361000 14.061842000    -0.021103636 -0.012843692  0.071129143

  length of vectors
    12.104597180  8.074912433 14.061848189     0.096856234  0.145126289  0.075297270


 
 k-points in units of 2pi/SCALE and weight: Automatic kpoint scheme                 
   0.00000000  0.00000000  0.00000000       0.010
   0.02155512 -0.01103163 -0.00002251       0.021
   0.04311024 -0.02206326 -0.00004502       0.010
  -0.00001277  0.02418771  0.00000751       0.021
   0.02154235  0.01315608 -0.00001500       0.021
   0.04309748  0.00212445 -0.00003750       0.021
  -0.02156789  0.03521934  0.00003002       0.021
  -0.00002554  0.04837542  0.00001503       0.021
   0.02152959  0.03734379 -0.00000748       0.021
   0.04308471  0.02631216 -0.00002999       0.021
  -0.02158066  0.05940705  0.00003753       0.021
  -0.00003830  0.07256313  0.00002254       0.010
   0.02151682  0.06153150  0.00000003       0.021
   0.04307194  0.05049987 -0.00002248       0.010
  -0.00527591 -0.00321092  0.01778229       0.021
   0.01627921 -0.01424255  0.01775978       0.021
   0.03783434 -0.02527418  0.01773727       0.021
  -0.02683103  0.00782071  0.01780479       0.021
  -0.00528868  0.02097679  0.01778980       0.021
   0.01626645  0.00994516  0.01776729       0.021
   0.03782157 -0.00108647  0.01774478       0.021
  -0.02684380  0.03200842  0.01781231       0.021
  -0.00530145  0.04516450  0.01779731       0.021
   0.01625368  0.03413287  0.01777480       0.021
   0.03780880  0.02310124  0.01775229       0.021
  -0.02685657  0.05619613  0.01781982       0.021
  -0.00531421  0.06935221  0.01780482       0.021
   0.01624091  0.05832058  0.01778232       0.021
   0.03779603  0.04728895  0.01775981       0.021
  -0.02686934  0.08038384  0.01782733       0.021
  -0.00525037 -0.05158634  0.01776726       0.021
   0.01630475 -0.06261797  0.01774475       0.021
   0.03785987 -0.07364960  0.01772224       0.021
  -0.02680550 -0.04055472  0.01778977       0.021
  -0.00526314 -0.02739863  0.01777477       0.021
   0.01629198 -0.03843026  0.01775226       0.021
   0.03784710 -0.04946189  0.01772976       0.021
  -0.02681826 -0.01636700  0.01779728       0.021
  -0.01055182 -0.00642185  0.03556457       0.010
   0.01100330 -0.01745347  0.03554206       0.021
   0.03255843 -0.02848510  0.03551955       0.010
  -0.01056459  0.01776586  0.03557208       0.021
   0.01099054  0.00673424  0.03554958       0.021
   0.03254566 -0.00429739  0.03552707       0.021
  -0.03211971  0.02879749  0.03559459       0.021
  -0.01057735  0.04195357  0.03557960       0.021
   0.01097777  0.03092195  0.03555709       0.021
   0.03253289  0.01989032  0.03553458       0.021
  -0.03213248  0.05298520  0.03560211       0.021
  -0.01059012  0.06614128  0.03558711       0.010
   0.01096500  0.05510966  0.03556460       0.021
   0.03252012  0.04407803  0.03554209       0.010
 
 k-points in reciprocal lattice and weights: Automatic kpoint scheme                 
   0.00000000  0.00000000  0.00000000       0.010
   0.25000000  0.00000000  0.00000000       0.021
   0.50000000  0.00000000  0.00000000       0.010
  -0.00000000  0.16666667 -0.00000000       0.021
   0.25000000  0.16666667  0.00000000       0.021
   0.50000000  0.16666667  0.00000000       0.021
  -0.25000000  0.16666667  0.00000000       0.021
  -0.00000000  0.33333333 -0.00000000       0.021
   0.25000000  0.33333333  0.00000000       0.021
   0.50000000  0.33333333  0.00000000       0.021
  -0.25000000  0.33333333 -0.00000000       0.021
  -0.00000000  0.50000000 -0.00000000       0.010
   0.25000000  0.50000000 -0.00000000       0.021
   0.50000000  0.50000000  0.00000000       0.010
  -0.00000000 -0.00000000  0.25000000       0.021
   0.25000000 -0.00000000  0.25000000       0.021
   0.50000000 -0.00000000  0.25000000       0.021
  -0.25000000 -0.00000000  0.25000000       0.021
  -0.00000000  0.16666667  0.25000000       0.021
   0.25000000  0.16666667  0.25000000       0.021
   0.50000000  0.16666667  0.25000000       0.021
  -0.25000000  0.16666667  0.25000000       0.021
  -0.00000000  0.33333333  0.25000000       0.021
   0.25000000  0.33333333  0.25000000       0.021
   0.50000000  0.33333333  0.25000000       0.021
  -0.25000000  0.33333333  0.25000000       0.021
  -0.00000000  0.50000000  0.25000000       0.021
   0.25000000  0.50000000  0.25000000       0.021
   0.50000000  0.50000000  0.25000000       0.021
  -0.25000000  0.50000000  0.25000000       0.021
  -0.00000000 -0.33333333  0.25000000       0.021
   0.25000000 -0.33333333  0.25000000       0.021
   0.50000000 -0.33333333  0.25000000       0.021
  -0.25000000 -0.33333333  0.25000000       0.021
  -0.00000000 -0.16666667  0.25000000       0.021
   0.25000000 -0.16666667  0.25000000       0.021
   0.50000000 -0.16666667  0.25000000       0.021
  -0.25000000 -0.16666667  0.25000000       0.021
  -0.00000000 -0.00000000  0.50000000       0.010
   0.25000000  0.00000000  0.50000000       0.021
   0.50000000 -0.00000000  0.50000000       0.010
  -0.00000000  0.16666667  0.50000000       0.021
   0.25000000  0.16666667  0.50000000       0.021
   0.50000000  0.16666667  0.50000000       0.021
  -0.25000000  0.16666667  0.50000000       0.021
  -0.00000000  0.33333333  0.50000000       0.021
   0.25000000  0.33333333  0.50000000       0.021
   0.50000000  0.33333333  0.50000000       0.021
  -0.25000000  0.33333333  0.50000000       0.021
  -0.00000000  0.50000000  0.50000000       0.010
   0.25000000  0.50000000  0.50000000       0.021
   0.50000000  0.50000000  0.50000000       0.010
 
 position of ions in fractional coordinates (direct lattice) 
   0.16734000  0.25229900  0.24459900
   0.16088300  0.24866800  0.75665200
   0.16347400  0.75656400  0.24166600
   0.50133600  0.25104100  0.24553800
   0.50417200  0.24201400  0.75357500
   0.50088800  0.75181900  0.24605600
   0.50433500  0.74720300  0.75394100
   0.83720100  0.24607200  0.24158300
   0.83112400  0.25272100  0.75748500
   0.83802600  0.75639500  0.24144100
   0.82807300  0.74778200  0.75518500
   0.99766400  0.00217000  0.00333900
   0.16109900  0.75442400  0.75894400
   0.32999100  0.50153700  0.00532800
   0.33487600  0.49883000  0.49762400
   0.33108400  0.99765700  0.00015700
   0.33539700  0.00085000  0.49774100
   0.67368600  0.49217000  0.99771700
   0.66694800  0.49880700  0.50130400
   0.67023100  0.00211200  0.99936400
   0.66569000  0.00075200  0.50070500
   0.99813500  0.49405400  0.00464800
   0.99833400  0.50094300  0.50196500
   0.99898700  0.00155600  0.49764300
   0.09259900  0.13157300  0.11531500
   0.08829400  0.11524600  0.62084100
   0.09060900  0.61336100  0.11727200
   0.08885700  0.63280500  0.61950500
   0.42059300  0.12584000  0.11091900
   0.41837600  0.13062700  0.61344000
   0.41724100  0.63414600  0.11315500
   0.40942800  0.63298700  0.62028200
   0.74027900  0.13578500  0.11792200
   0.75261500  0.12974900  0.61362000
   0.75149400  0.63127800  0.11492000
   0.75268400  0.62861200  0.61430300
   0.24428300  0.37137800  0.38856800
   0.24540700  0.38751600  0.87667400
   0.24739000  0.87082700  0.38628400
   0.25546600  0.85962200  0.87385600
   0.58116300  0.37203000  0.38663400
   0.58120300  0.36923900  0.88487500
   0.58067500  0.86820500  0.38728800
   0.57804300  0.87480900  0.88620700
   0.91390200  0.37192800  0.38944900
   0.91126100  0.38618800  0.88181500
   0.91561000  0.86606900  0.38812100
   0.92355400  0.86172100  0.87456100
 
 position of ions in cartesian coordinates  (Angst):
   2.83540178  1.73854915  4.59397742
   2.75403301  1.71125967 11.76382797
   4.57029403  5.21378701  5.69499474
   6.70678154  1.73156398  5.75453512
   6.71415699  1.66715136 12.88755165
   8.46907317  5.18277270  6.90786017
   8.49910551  5.14876314 14.05095175
  10.58669102  1.69903449  6.84420661
  10.54606285  1.74257684 14.09304753
  12.39743563  5.21603383  8.01450822
  12.25793524  5.15438483 15.18468084
  11.58494777  0.01998462  3.48774340
   4.54162176  5.19677091 12.95579305
   5.59956186  3.45808925  2.36068848
   5.65282491  3.43731120  9.29389696
   7.36322466  6.87722902  3.42864842
   3.90126378  0.00538307  8.15616448
   9.56721728  3.39094458 17.47767886
   9.50627093  3.43881560 10.48920230
   7.79749679  0.01358574 16.36592227
   7.73379202  0.00636471  9.33510304
  13.32652249  3.40989973  4.63497477
  13.35933891  3.45520888 11.64464002
  11.60428830  0.01360415 10.44171734
   1.54037132  0.90672733  2.24195253
   1.43908362  0.79198013  9.29833845
   3.21776220  4.22704854  3.36668461
   3.27231231  4.35885172 10.46752997
   5.32624091  0.86889471  3.29656532
   5.32366704  0.89968258 10.36627108
   7.08142478  4.37196199  4.48129882
   6.99298404  4.36172343 11.58287569
   9.07117858  0.93901848  4.51878517
   9.19919842  0.89532080 11.51786351
  10.95011469  4.35387887  5.65066719
  10.96073261  4.33333380 12.67090082
   4.15035484  2.55896743  7.15630958
   4.22643471  2.66806278 14.06083180
   5.94917439  6.00104727  8.27943074
   6.00941463  5.92174027 15.13772640
   8.06190709  2.56517252  8.29077666
   8.05872459  2.54376515 15.29070478
   9.80749006  5.98465793  9.43532813
   9.80646860  6.02798165 16.45711777
  11.92280361  2.56613961  9.47603454
  11.94861778  2.66225474 16.42319044
  13.68666611  5.97162705 10.59561703
  13.76956210  5.93958073 17.45325362
 


--------------------------------------------------------------------------------------------------------


 k-point  1 :   0.0000 0.0000 0.0000  plane waves:   30201
 k-point  2 :   0.2500 0.0000 0.0000  plane waves:   30249
 k-point  3 :   0.5000 0.0000 0.0000  plane waves:   30224
 k-point  4 :  -0.0000 0.1667-0.0000  plane waves:   30264
 k-point  5 :   0.2500 0.1667 0.0000  plane waves:   30219
 k-point  6 :   0.5000 0.1667 0.0000  plane waves:   30256
 k-point  7 :  -0.2500 0.1667 0.0000  plane waves:   30278
 k-point  8 :  -0.0000 0.3333-0.0000  plane waves:   30294
 k-point  9 :   0.2500 0.3333 0.0000  plane waves:   30287
 k-point 10 :   0.5000 0.3333 0.0000  plane waves:   30247
 k-point 11 :  -0.2500 0.3333-0.0000  plane waves:   30267
 k-point 12 :  -0.0000 0.5000-0.0000  plane waves:   30274
 k-point 13 :   0.2500 0.5000-0.0000  plane waves:   30291
 k-point 14 :   0.5000 0.5000 0.0000  plane waves:   30280
 k-point 15 :  -0.0000-0.0000 0.2500  plane waves:   30243
 k-point 16 :   0.2500-0.0000 0.2500  plane waves:   30234
 k-point 17 :   0.5000-0.0000 0.2500  plane waves:   30212
 k-point 18 :  -0.2500-0.0000 0.2500  plane waves:   30226
 k-point 19 :  -0.0000 0.1667 0.2500  plane waves:   30266
 k-point 20 :   0.2500 0.1667 0.2500  plane waves:   30245
 k-point 21 :   0.5000 0.1667 0.2500  plane waves:   30230
 k-point 22 :  -0.2500 0.1667 0.2500  plane waves:   30289
 k-point 23 :  -0.0000 0.3333 0.2500  plane waves:   30268
 k-point 24 :   0.2500 0.3333 0.2500  plane waves:   30290
 k-point 25 :   0.5000 0.3333 0.2500  plane waves:   30248
 k-point 26 :  -0.2500 0.3333 0.2500  plane waves:   30265
 k-point 27 :  -0.0000 0.5000 0.2500  plane waves:   30292
 k-point 28 :   0.2500 0.5000 0.2500  plane waves:   30295
 k-point 29 :   0.5000 0.5000 0.2500  plane waves:   30281
 k-point 30 :  -0.2500 0.5000 0.2500  plane waves:   30277
 k-point 31 :  -0.0000-0.3333 0.2500  plane waves:   30269
 k-point 32 :   0.2500-0.3333 0.2500  plane waves:   30296
 k-point 33 :   0.5000-0.3333 0.2500  plane waves:   30273
 k-point 34 :  -0.2500-0.3333 0.2500  plane waves:   30288
 k-point 35 :  -0.0000-0.1667 0.2500  plane waves:   30256
 k-point 36 :   0.2500-0.1667 0.2500  plane waves:   30279
 k-point 37 :   0.5000-0.1667 0.2500  plane waves:   30262
 k-point 38 :  -0.2500-0.1667 0.2500  plane waves:   30245
 k-point 39 :  -0.0000-0.0000 0.5000  plane waves:   30232
 k-point 40 :   0.2500 0.0000 0.5000  plane waves:   30254
 k-point 41 :   0.5000-0.0000 0.5000  plane waves:   30244
 k-point 42 :  -0.0000 0.1667 0.5000  plane waves:   30290
 k-point 43 :   0.2500 0.1667 0.5000  plane waves:   30253
 k-point 44 :   0.5000 0.1667 0.5000  plane waves:   30243
 k-point 45 :  -0.2500 0.1667 0.5000  plane waves:   30253
 k-point 46 :  -0.0000 0.3333 0.5000  plane waves:   30285
 k-point 47 :   0.2500 0.3333 0.5000  plane waves:   30282
 k-point 48 :   0.5000 0.3333 0.5000  plane waves:   30248
 k-point 49 :  -0.2500 0.3333 0.5000  plane waves:   30281
 k-point 50 :  -0.0000 0.5000 0.5000  plane waves:   30326
 k-point 51 :   0.2500 0.5000 0.5000  plane waves:   30271
 k-point 52 :   0.5000 0.5000 0.5000  plane waves:   30268

 maximum and minimum number of plane-waves per node :     30326    30201

 maximum number of plane-waves:     30326
 maximum index in each direction: 
   IXMAX=   22   IYMAX=   15   IZMAX=   26
   IXMIN=  -23   IYMIN=  -15   IZMIN=  -26

 WARNING: aliasing errors must be expected set NGX to  92 to avoid them
 WARNING: aliasing errors must be expected set NGY to  62 to avoid them
 NGZ is ok and might be reduce to 106
 aliasing errors are usually negligible using standard VASP settings
 and one can safely disregard these warnings

 serial   3D FFT for wavefunctions
 parallel 3D FFT for charge:
    minimum data exchange during FFTs selected (reduces bandwidth)


 total amount of memory used by VASP on root node   627124. kBytes
========================================================================

   base      :      30000. kBytes
   nonlr-proj:      59863. kBytes
   fftplans  :       7550. kBytes
   grid      :      60618. kBytes
   one-center:       4718. kBytes
   wavefun   :     464375. kBytes
 
     INWAV:  cpu time    0.0000: real time    0.0000
 Broyden mixing: mesh for mixing (old mesh)
   NGX = 45   NGY = 31   NGZ = 53
  (NGX  =180   NGY  =120   NGZ  =216)
  gives a total of  73935 points

 initial charge density was supplied:
 charge density of overlapping atoms calculated
 number of electron     444.0000000 magnetization      13.8290000
 keeping initial charge density in first step


--------------------------------------------------------------------------------------------------------


 Maximum index for non-local projection operator        11864
 Maximum index for augmentation-charges         1194 (set IRDMAX)


--------------------------------------------------------------------------------------------------------


 First call to EWALD:  gamma=   0.170
 Maximum number of real-space cells 3x 4x 2
 Maximum number of reciprocal cells 3x 2x 4

 FEWALD executed in parallel
    FEWALD:  cpu time    0.0040: real time    0.0043


----------------------------------------- Iteration    1(   1)  ---------------------------------------


    POTLOK:  cpu time    0.4919: real time    0.4985
    SETDIJ:  cpu time    0.0460: real time    0.0460
     EDDAV:  cpu time  415.3159: real time  431.0695
 BZINTS: Fermi energy: 18.674613;444.000000 electrons
         Band energy:1058.660384;  BLOECHL correction: -0.076949
       DOS:  cpu time    0.3310: real time    0.3303
    --------------------------------------------
      LOOP:  cpu time  416.1877: real time  431.9500

 eigenvalue-minimisations  : 66752
 total energy-change (2. order) : 0.4985641E+04  (-0.1795347E+05)
 number of electron     444.0000000 magnetization      13.8290000
 augmentation part      444.0000000 magnetization      13.8290000

 Free energy of the ion-electron system (eV)
  ---------------------------------------------------
  alpha Z        PSCENC =      1925.58421333
  Ewald energy   TEWEN  =    -32600.21192439
  -Hartree energ DENC   =    -16086.30544096
  -exchange      EXHF   =         0.00000000
  -V(xc)+E(xc)   XCENC  =      1707.28964744
  PAW double counting   =     35140.40952604   -38567.19888771
  entropy T*S    EENTRO =         0.00000000
  eigenvalues    EBANDS =      1058.66038370
  atomic energy  EATOM  =     52407.41324292
  Solvation  Ediel_sol  =         0.00000000
  ---------------------------------------------------
  free energy    TOTEN  =      4985.64076038 eV

  energy without entropy =     4985.64076038  energy(sigma->0) =     4985.64076038


--------------------------------------------------------------------------------------------------------




----------------------------------------- Iteration    1(   2)  ---------------------------------------


     EDDAV:  cpu time  385.0715: real time  399.4906
 BZINTS: Fermi energy:  4.341707;444.000000 electrons
         Band energy:***********;  BLOECHL correction: -0.177196
       DOS:  cpu time    0.3449: real time    0.3453
    --------------------------------------------
      LOOP:  cpu time  385.4354: real time  399.8593

 eigenvalue-minimisations  : 62048
 total energy-change (2. order) :-0.4188997E+04  (-0.3825436E+04)
 number of electron     444.0000000 magnetization      13.8290000
 augmentation part      444.0000000 magnetization      13.8290000

 Free energy of the ion-electron system (eV)
  ---------------------------------------------------
  alpha Z        PSCENC =      1925.58421333
  Ewald energy   TEWEN  =    -32600.21192439
  -Hartree energ DENC   =    -16086.30544096
  -exchange      EXHF   =         0.00000000
  -V(xc)+E(xc)   XCENC  =      1707.28964744
  PAW double counting   =     35140.40952604   -38567.19888771
  entropy T*S    EENTRO =         0.00000000
  eigenvalues    EBANDS =     -3130.33654220
  atomic energy  EATOM  =     52407.41324292
  Solvation  Ediel_sol  =         0.00000000
  ---------------------------------------------------
  free energy    TOTEN  =       796.64383448 eV

  energy without entropy =      796.64383448  energy(sigma->0) =      796.64383448


--------------------------------------------------------------------------------------------------------




----------------------------------------- Iteration    1(   3)  ---------------------------------------


     EDDAV:  cpu time  422.6517: real time  438.3935
 BZINTS: Fermi energy:  2.249077;444.000000 electrons
         Band energy:***********;  BLOECHL correction:  0.000000
       DOS:  cpu time    0.0490: real time    0.0489
    --------------------------------------------
      LOOP:  cpu time  422.7227: real time  438.4677

 eigenvalue-minimisations  : 70496
 total energy-change (2. order) :-0.1006809E+04  (-0.8593966E+03)
 number of electron     444.0000000 magnetization      13.8290000
 augmentation part      444.0000000 magnetization      13.8290000

 Free energy of the ion-electron system (eV)
  ---------------------------------------------------
  alpha Z        PSCENC =      1925.58421333
  Ewald energy   TEWEN  =    -32600.21192439
  -Hartree energ DENC   =    -16086.30544096
  -exchange      EXHF   =         0.00000000
  -V(xc)+E(xc)   XCENC  =      1707.28964744
  PAW double counting   =     35140.40952604   -38567.19888771
  entropy T*S    EENTRO =         0.00000000
  eigenvalues    EBANDS =     -4137.14528198
  atomic energy  EATOM  =     52407.41324292
  Solvation  Ediel_sol  =         0.00000000
  ---------------------------------------------------
  free energy    TOTEN  =      -210.16490530 eV

  energy without entropy =     -210.16490530  energy(sigma->0) =     -210.16490530


--------------------------------------------------------------------------------------------------------




----------------------------------------- Iteration    1(   4)  ---------------------------------------


     EDDAV:  cpu time  481.8567: real time  498.6163
 BZINTS: Fermi energy:  1.069224;444.000000 electrons
         Band energy:***********;  BLOECHL correction:  0.000000
       DOS:  cpu time    0.0490: real time    0.0491
    --------------------------------------------
      LOOP:  cpu time  481.9077: real time  498.6710

 eigenvalue-minimisations  : 76544
 total energy-change (2. order) :-0.1258752E+03  (-0.1232148E+03)
 number of electron     444.0000000 magnetization      13.8290000
 augmentation part      444.0000000 magnetization      13.8290000

 Free energy of the ion-electron system (eV)
  ---------------------------------------------------
  alpha Z        PSCENC =      1925.58421333
  Ewald energy   TEWEN  =    -32600.21192439
  -Hartree energ DENC   =    -16086.30544096
  -exchange      EXHF   =         0.00000000
  -V(xc)+E(xc)   XCENC  =      1707.28964744
  PAW double counting   =     35140.40952604   -38567.19888771
  entropy T*S    EENTRO =         0.00000000
  eigenvalues    EBANDS =     -4263.02048159
  atomic energy  EATOM  =     52407.41324292
  Solvation  Ediel_sol  =         0.00000000
  ---------------------------------------------------
  free energy    TOTEN  =      -336.04010491 eV

  energy without entropy =     -336.04010491  energy(sigma->0) =     -336.04010491


--------------------------------------------------------------------------------------------------------




----------------------------------------- Iteration    1(   5)  ---------------------------------------


     EDDAV:  cpu time  573.3568: real time  593.3534
 BZINTS: Fermi energy:  1.055600;444.000000 electrons
         Band energy:***********;  BLOECHL correction:  0.000000
       DOS:  cpu time    0.0480: real time    0.0491
    CHARGE:  cpu time   23.8804: real time   23.9217
    MIXING:  cpu time    0.0060: real time    0.0064
    --------------------------------------------
      LOOP:  cpu time  597.2932: real time  617.3365

 eigenvalue-minimisations  : 95200
 total energy-change (2. order) :-0.7642020E+01  (-0.7629286E+01)
 number of electron     444.0000016 magnetization      13.8790396
 augmentation part      109.3311667 magnetization      12.8463316

 Broyden mixing:
  rms(total) = 0.59103E+01    rms(broyden)= 0.59103E+01
  rms(prec ) = 0.60480E+01
  weight for this iteration     100.00

 Free energy of the ion-electron system (eV)
  ---------------------------------------------------
  alpha Z        PSCENC =      1925.58421333
  Ewald energy   TEWEN  =    -32600.21192439
  -Hartree energ DENC   =    -16086.30544096
  -exchange      EXHF   =         0.00000000
  -V(xc)+E(xc)   XCENC  =      1707.28964744
  PAW double counting   =     35140.40952604   -38567.19888771
  entropy T*S    EENTRO =         0.00000000
  eigenvalues    EBANDS =     -4270.66250128
  atomic energy  EATOM  =     52407.41324292
  Solvation  Ediel_sol  =         0.00000000
  ---------------------------------------------------
  free energy    TOTEN  =      -343.68212460 eV

  energy without entropy =     -343.68212460  energy(sigma->0) =     -343.68212460


--------------------------------------------------------------------------------------------------------




----------------------------------------- Iteration    1(   6)  ---------------------------------------


    POTLOK:  cpu time    0.4129: real time    0.4151
    SETDIJ:  cpu time    0.0410: real time    0.0418
     EDDAV:  cpu time  527.4048: real time  545.9914
 BZINTS: Fermi energy:  1.713785;444.000000 electrons
         Band energy:***********;  BLOECHL correction:  0.000000
       DOS:  cpu time    0.0500: real time    0.0494
    CHARGE:  cpu time   24.3593: real time   24.3666
    MIXING:  cpu time    0.0060: real time    0.0339
    --------------------------------------------
      LOOP:  cpu time  552.2760: real time  570.9031

 eigenvalue-minimisations  : 86848
 total energy-change (2. order) :-0.1768353E+02  (-0.4508505E+01)
 number of electron     444.0000017 magnetization      13.9054604
 augmentation part      108.8969018 magnetization      12.8609624

 Broyden mixing:
  rms(total) = 0.23388E+01    rms(broyden)= 0.23388E+01
  rms(prec ) = 0.24175E+01
  weight for this iteration     100.00

 eigenvalues of (default mixing * dielectric matrix)
  average eigenvalue GAMMA=   0.7241
  0.7241

 Free energy of the ion-electron system (eV)
  ---------------------------------------------------
  alpha Z        PSCENC =      1925.58421333
  Ewald energy   TEWEN  =    -32600.21192439
  -Hartree energ DENC   =    -16045.44450305
  -exchange      EXHF   =         0.00000000
  -V(xc)+E(xc)   XCENC  =      1756.60423022
  PAW double counting   =     35337.90574186   -38828.60126414
  entropy T*S    EENTRO =         0.00000000
  eigenvalues    EBANDS =     -4314.61539493
  atomic energy  EATOM  =     52407.41324292
  Solvation  Ediel_sol  =         0.00000000
  ---------------------------------------------------
  free energy    TOTEN  =      -361.36565818 eV

  energy without entropy =     -361.36565818  energy(sigma->0) =     -361.36565818


--------------------------------------------------------------------------------------------------------




----------------------------------------- Iteration    1(   7)  ---------------------------------------


    POTLOK:  cpu time    0.4049: real time    0.4092
    SETDIJ:  cpu time    0.0420: real time    0.0418
     EDDAV:  cpu time  461.7208: real time  478.5349
 BZINTS: Fermi energy:  1.960044;444.000000 electrons
         Band energy:***********;  BLOECHL correction:  0.000000
       DOS:  cpu time    0.0410: real time    0.0412
    CHARGE:  cpu time   23.9454: real time   23.9585
    MIXING:  cpu time    0.0060: real time    0.0195
    --------------------------------------------
      LOOP:  cpu time  486.1621: real time  503.0098

 eigenvalue-minimisations  : 73600
 total energy-change (2. order) :-0.9558979E+01  (-0.2055233E+01)
 number of electron     444.0000017 magnetization      13.9401907
 augmentation part      109.2982221 magnetization      12.8507149

 Broyden mixing:
  rms(total) = 0.58889E+00    rms(broyden)= 0.58889E+00
  rms(prec ) = 0.66576E+00
  weight for this iteration     100.00

 eigenvalues of (default mixing * dielectric matrix)
  average eigenvalue GAMMA=   0.8806
  1.0697  0.6916

 Free energy of the ion-electron system (eV)
  ---------------------------------------------------
  alpha Z        PSCENC =      1925.58421333
  Ewald energy   TEWEN  =    -32600.21192439
  -Hartree energ DENC   =    -16040.35854347
  -exchange      EXHF   =         0.00000000
  -V(xc)+E(xc)   XCENC  =      1743.92637929
  PAW double counting   =     35492.25566126   -39069.35472133
  entropy T*S    EENTRO =         0.00000000
  eigenvalues    EBANDS =     -4230.17894505
  atomic energy  EATOM  =     52407.41324292
  Solvation  Ediel_sol  =         0.00000000
  ---------------------------------------------------
  free energy    TOTEN  =      -370.92463743 eV

  energy without entropy =     -370.92463743  energy(sigma->0) =     -370.92463743


--------------------------------------------------------------------------------------------------------




----------------------------------------- Iteration    1(   8)  ---------------------------------------


    POTLOK:  cpu time    0.4089: real time    0.4139
    SETDIJ:  cpu time    0.0440: real time    0.0437
     EDDAV:  cpu time  576.4634: real time  595.9100
 BZINTS: Fermi energy:  2.116716;444.000000 electrons
         Band energy:***********;  BLOECHL correction:  0.000000
       DOS:  cpu time    0.0480: real time    0.0492
    CHARGE:  cpu time   24.8002: real time   24.8787
    MIXING:  cpu time    0.0060: real time    0.0068
    --------------------------------------------
      LOOP:  cpu time  601.7735: real time  621.3062

 eigenvalue-minimisations  : 89472
 total energy-change (2. order) :-0.1476848E+00  (-0.2076203E+00)
 number of electron     444.0000017 magnetization      13.9709688
 augmentation part      109.2758808 magnetization      12.8708160

 Broyden mixing:
  rms(total) = 0.28645E+00    rms(broyden)= 0.28645E+00
  rms(prec ) = 0.32488E+00
  weight for this iteration     100.00

 eigenvalues of (default mixing * dielectric matrix)
  average eigenvalue GAMMA=   1.1341
  0.6702  0.8666  1.8656

 Free energy of the ion-electron system (eV)
  ---------------------------------------------------
  alpha Z        PSCENC =      1925.58421333
  Ewald energy   TEWEN  =    -32600.21192439
  -Hartree energ DENC   =    -16007.45176246
  -exchange      EXHF   =         0.00000000
  -V(xc)+E(xc)   XCENC  =      1745.50698195
  PAW double counting   =     35607.78934745   -39232.04627154
  entropy T*S    EENTRO =         0.00000000
  eigenvalues    EBANDS =     -4217.65614948
  atomic energy  EATOM  =     52407.41324292
  Solvation  Ediel_sol  =         0.00000000
  ---------------------------------------------------
  free energy    TOTEN  =      -371.07232222 eV

  energy without entropy =     -371.07232222  energy(sigma->0) =     -371.07232222


--------------------------------------------------------------------------------------------------------




----------------------------------------- Iteration    1(   9)  ---------------------------------------


    POTLOK:  cpu time    0.4099: real time    0.4128
    SETDIJ:  cpu time    0.0440: real time    0.0438
     EDDAV:  cpu time  550.2124: real time  568.2437
 BZINTS: Fermi energy:  2.189754;444.000000 electrons
         Band energy:***********;  BLOECHL correction:  0.000000
       DOS:  cpu time    0.0400: real time    0.0407
    CHARGE:  cpu time   24.4483: real time   24.4583
    MIXING:  cpu time    0.0070: real time    0.0149
    --------------------------------------------
      LOOP:  cpu time  575.1616: real time  593.2181

 eigenvalue-minimisations  : 83648
 total energy-change (2. order) :-0.9638272E-01  (-0.4993139E-01)
 number of electron     444.0000017 magnetization      13.9873307
 augmentation part      109.0136845 magnetization      12.8846021

 Broyden mixing:
  rms(total) = 0.15844E+00    rms(broyden)= 0.15844E+00
  rms(prec ) = 0.17842E+00
  weight for this iteration     100.00

 eigenvalues of (default mixing * dielectric matrix)
  average eigenvalue GAMMA=   1.2209
  2.4818  0.8827  0.8827  0.6363

 Free energy of the ion-electron system (eV)
  ---------------------------------------------------
  alpha Z        PSCENC =      1925.58421333
  Ewald energy   TEWEN  =    -32600.21192439
  -Hartree energ DENC   =    -15991.39658507
  -exchange      EXHF   =         0.00000000
  -V(xc)+E(xc)   XCENC  =      1746.15541728
  PAW double counting   =     35729.73274821   -39396.40240764
  entropy T*S    EENTRO =         0.00000000
  eigenvalues    EBANDS =     -4192.04340958
  atomic energy  EATOM  =     52407.41324292
  Solvation  Ediel_sol  =         0.00000000
  ---------------------------------------------------
  free energy    TOTEN  =      -371.16870494 eV

  energy without entropy =     -371.16870494  energy(sigma->0) =     -371.16870494


--------------------------------------------------------------------------------------------------------




----------------------------------------- Iteration    1(  10)  ---------------------------------------


    POTLOK:  cpu time    0.4099: real time    0.4120
    SETDIJ:  cpu time    0.0440: real time    0.0436
     EDDAV:  cpu time  540.8958: real time  558.8110
 BZINTS: Fermi energy:  2.313846;444.000000 electrons
         Band energy:***********;  BLOECHL correction:  0.000000
       DOS:  cpu time    0.0490: real time    0.0491
    CHARGE:  cpu time   24.4863: real time   24.5189
    MIXING:  cpu time    0.0070: real time    0.0070
    --------------------------------------------
      LOOP:  cpu time  565.8920: real time  583.8454

 eigenvalue-minimisations  : 82080
 total energy-change (2. order) :-0.3776763E-01  (-0.2825175E-01)
 number of electron     444.0000017 magnetization      13.9898309
 augmentation part      109.1098467 magnetization      12.8902184

 Broyden mixing:
  rms(total) = 0.54117E-01    rms(broyden)= 0.54116E-01
  rms(prec ) = 0.59468E-01
  weight for this iteration     100.00

 eigenvalues of (default mixing * dielectric matrix)
  average eigenvalue GAMMA=   1.1550
  2.4613  1.2093  0.7538  0.7538  0.5968

 Free energy of the ion-electron system (eV)
  ---------------------------------------------------
  alpha Z        PSCENC =      1925.58421333
  Ewald energy   TEWEN  =    -32600.21192439
  -Hartree energ DENC   =    -15969.71319066
  -exchange      EXHF   =         0.00000000
  -V(xc)+E(xc)   XCENC  =      1746.55059200
  PAW double counting   =     35747.11767389   -39420.74781718
  entropy T*S    EENTRO =         0.00000000
  eigenvalues    EBANDS =     -4207.19926249
  atomic energy  EATOM  =     52407.41324292
  Solvation  Ediel_sol  =         0.00000000
  ---------------------------------------------------
  free energy    TOTEN  =      -371.20647257 eV

  energy without entropy =     -371.20647257  energy(sigma->0) =     -371.20647257


--------------------------------------------------------------------------------------------------------




----------------------------------------- Iteration    1(  11)  ---------------------------------------


    POTLOK:  cpu time    0.4139: real time    0.4166
    SETDIJ:  cpu time    0.0440: real time    0.0440
     EDDAV:  cpu time  553.1949: real time  571.4552
 BZINTS: Fermi energy:  2.306519;444.000000 electrons
         Band energy:***********;  BLOECHL correction:  0.000000
       DOS:  cpu time    0.0490: real time    0.0495
    CHARGE:  cpu time   24.4933: real time   24.5725
    MIXING:  cpu time    0.0070: real time    0.0075
    --------------------------------------------
      LOOP:  cpu time  578.2031: real time  596.5491

 eigenvalue-minimisations  : 84224
 total energy-change (2. order) :-0.3552493E-02  (-0.5287628E-02)
 number of electron     444.0000017 magnetization      13.9922687
 augmentation part      109.0467240 magnetization      12.8924129

 Broyden mixing:
  rms(total) = 0.33083E-01    rms(broyden)= 0.33083E-01
  rms(prec ) = 0.37800E-01
  weight for this iteration     100.00

 eigenvalues of (default mixing * dielectric matrix)
  average eigenvalue GAMMA=   1.0926
  2.3521  1.4148  0.7422  0.7090  0.7090  0.6282

 Free energy of the ion-electron system (eV)
  ---------------------------------------------------
  alpha Z        PSCENC =      1925.58421333
  Ewald energy   TEWEN  =    -32600.21192439
  -Hartree energ DENC   =    -15972.60858894
  -exchange      EXHF   =         0.00000000
  -V(xc)+E(xc)   XCENC  =      1746.40468897
  PAW double counting   =     35751.02998061   -39422.44318524
  entropy T*S    EENTRO =         0.00000000
  eigenvalues    EBANDS =     -4206.37845233
  atomic energy  EATOM  =     52407.41324292
  Solvation  Ediel_sol  =         0.00000000
  ---------------------------------------------------
  free energy    TOTEN  =      -371.21002506 eV

  energy without entropy =     -371.21002506  energy(sigma->0) =     -371.21002506


--------------------------------------------------------------------------------------------------------




----------------------------------------- Iteration    1(  12)  ---------------------------------------


    POTLOK:  cpu time    0.4139: real time    0.4167
    SETDIJ:  cpu time    0.0440: real time    0.0447
     EDDAV:  cpu time  579.2289: real time  597.7757
 BZINTS: Fermi energy:  2.296971;444.000000 electrons
         Band energy:***********;  BLOECHL correction:  0.000000
       DOS:  cpu time    0.0490: real time    0.0489
    CHARGE:  cpu time   25.1172: real time   25.1224
    MIXING:  cpu time    0.0080: real time    0.0075
    --------------------------------------------
      LOOP:  cpu time  604.8620: real time  623.4197

 eigenvalue-minimisations  : 85888
 total energy-change (2. order) :-0.2454215E-02  (-0.6378575E-03)
 number of electron     444.0000017 magnetization      13.9985405
 augmentation part      109.0401988 magnetization      12.8978071

 Broyden mixing:
  rms(total) = 0.22814E-01    rms(broyden)= 0.22814E-01
  rms(prec ) = 0.26473E-01
  weight for this iteration     100.00

 eigenvalues of (default mixing * dielectric matrix)
  average eigenvalue GAMMA=   1.3254
  2.6200  2.6200  1.1179  0.8270  0.8270  0.6722  0.5933

 Free energy of the ion-electron system (eV)
  ---------------------------------------------------
  alpha Z        PSCENC =      1925.58421333
  Ewald energy   TEWEN  =    -32600.21192439
  -Hartree energ DENC   =    -15974.69365297
  -exchange      EXHF   =         0.00000000
  -V(xc)+E(xc)   XCENC  =      1746.43475759
  PAW double counting   =     35753.31239215   -39422.48625001
  entropy T*S    EENTRO =         0.00000000
  eigenvalues    EBANDS =     -4206.56525790
  atomic energy  EATOM  =     52407.41324292
  Solvation  Ediel_sol  =         0.00000000
  ---------------------------------------------------
  free energy    TOTEN  =      -371.21247928 eV

  energy without entropy =     -371.21247928  energy(sigma->0) =     -371.21247928


--------------------------------------------------------------------------------------------------------




----------------------------------------- Iteration    1(  13)  ---------------------------------------


    POTLOK:  cpu time    0.4109: real time    0.4132
    SETDIJ:  cpu time    0.0440: real time    0.0438
     EDDAV:  cpu time  466.1711: real time  481.9981
 BZINTS: Fermi energy:  2.292476;444.000000 electrons
         Band energy:***********;  BLOECHL correction:  0.000000
       DOS:  cpu time    0.0490: real time    0.0493
    CHARGE:  cpu time   24.9632: real time   24.9663
    MIXING:  cpu time    0.0070: real time    0.0077
    --------------------------------------------
      LOOP:  cpu time  491.6473: real time  507.4824

 eigenvalue-minimisations  : 68064
 total energy-change (2. order) :-0.1116126E-02  (-0.4038085E-03)
 number of electron     444.0000017 magnetization      13.9990399
 augmentation part      109.0224655 magnetization      12.9007732

 Broyden mixing:
  rms(total) = 0.79097E-02    rms(broyden)= 0.79097E-02
  rms(prec ) = 0.95018E-02
  weight for this iteration     100.00

 eigenvalues of (default mixing * dielectric matrix)
  average eigenvalue GAMMA=   1.2707
  2.6445  2.5640  1.2406  0.8112  0.8112  0.8393  0.5958  0.6589

 Free energy of the ion-electron system (eV)
  ---------------------------------------------------
  alpha Z        PSCENC =      1925.58421333
  Ewald energy   TEWEN  =    -32600.21192439
  -Hartree energ DENC   =    -15979.25844986
  -exchange      EXHF   =         0.00000000
  -V(xc)+E(xc)   XCENC  =      1746.57769088
  PAW double counting   =     35763.82749041   -39429.52061332
  entropy T*S    EENTRO =         0.00000000
  eigenvalues    EBANDS =     -4205.62524538
  atomic energy  EATOM  =     52407.41324292
  Solvation  Ediel_sol  =         0.00000000
  ---------------------------------------------------
  free energy    TOTEN  =      -371.21359540 eV

  energy without entropy =     -371.21359540  energy(sigma->0) =     -371.21359540


--------------------------------------------------------------------------------------------------------




----------------------------------------- Iteration    1(  14)  ---------------------------------------


    POTLOK:  cpu time    0.4219: real time    0.4249
    SETDIJ:  cpu time    0.0440: real time    0.0441
     EDDAV:  cpu time  558.0852: real time  576.5856
 BZINTS: Fermi energy:  2.283817;444.000000 electrons
         Band energy:***********;  BLOECHL correction:  0.000000
       DOS:  cpu time    0.0490: real time    0.0491
    CHARGE:  cpu time   24.0903: real time   24.0963
    MIXING:  cpu time    0.0080: real time    0.0077
    --------------------------------------------
      LOOP:  cpu time  582.6994: real time  601.2124

 eigenvalue-minimisations  : 84288
 total energy-change (2. order) :-0.2224733E-03  (-0.1107108E-03)
 number of electron     444.0000017 magnetization      13.9994537
 augmentation part      109.0267650 magnetization      12.9006905

 Broyden mixing:
  rms(total) = 0.31333E-02    rms(broyden)= 0.31333E-02
  rms(prec ) = 0.40551E-02
  weight for this iteration     100.00

 eigenvalues of (default mixing * dielectric matrix)
  average eigenvalue GAMMA=   1.2435
  2.8687  2.1838  1.4446  0.9177  0.9177  0.8663  0.7674  0.6290  0.5960

 Free energy of the ion-electron system (eV)
  ---------------------------------------------------
  alpha Z        PSCENC =      1925.58421333
  Ewald energy   TEWEN  =    -32600.21192439
  -Hartree energ DENC   =    -15978.63630718
  -exchange      EXHF   =         0.00000000
  -V(xc)+E(xc)   XCENC  =      1746.57705776
  PAW double counting   =     35763.98578586   -39430.62061231
  entropy T*S    EENTRO =         0.00000000
  eigenvalues    EBANDS =     -4205.30527388
  atomic energy  EATOM  =     52407.41324292
  Solvation  Ediel_sol  =         0.00000000
  ---------------------------------------------------
  free energy    TOTEN  =      -371.21381788 eV

  energy without entropy =     -371.21381788  energy(sigma->0) =     -371.21381788


--------------------------------------------------------------------------------------------------------




----------------------------------------- Iteration    1(  15)  ---------------------------------------


    POTLOK:  cpu time    0.4129: real time    0.4157
    SETDIJ:  cpu time    0.0440: real time    0.0438
     EDDAV:  cpu time  534.5967: real time  552.3977
 BZINTS: Fermi energy:  2.281087;444.000000 electrons
         Band energy:***********;  BLOECHL correction:  0.000000
       DOS:  cpu time    0.0480: real time    0.0488
    CHARGE:  cpu time   24.9862: real time   24.9899
    MIXING:  cpu time    0.0070: real time    0.0081
    --------------------------------------------
      LOOP:  cpu time  560.0969: real time  577.9088

 eigenvalue-minimisations  : 81280
 total energy-change (2. order) :-0.3857774E-04  (-0.2918133E-04)
[...]
------------------------------------------------
tot       58.029 202.180   9.602  85.770 355.581

 


 magnetization (x)
 
# of ion     s       p       d       f       tot
------------------------------------------------
  1       -0.000  -0.000   0.000   0.000  -0.000
  2        0.000   0.000   0.000   0.000   0.000
  3        0.000   0.000   0.000   0.000   0.000
  4       -0.000  -0.000   0.000   0.000  -0.000
  5       -0.000   0.000   0.000   0.000  -0.000
  6       -0.000   0.000   0.000   0.000   0.000
  7       -0.000  -0.000   0.000   0.000  -0.000
  8        0.000  -0.000   0.000   0.000  -0.000
  9        0.000   0.000   0.000   0.000   0.000
 10        0.000   0.000   0.000   0.000   0.000
 11       -0.000  -0.000   0.000   0.000  -0.000
 12        0.000  -0.000   0.000   0.000   0.000
 13        0.004   0.005   0.073   6.842   6.924
 14       -0.005  -0.006  -0.071  -6.845  -6.926
 15        0.004   0.006   0.072   6.846   6.928
 16        0.004   0.005   0.068   6.841   6.920
 17        0.004   0.006   0.072   6.846   6.928
 18       -0.005  -0.006  -0.071  -6.845  -6.926
 19        0.004   0.006   0.070   6.844   6.924
 20        0.004   0.006   0.067   6.843   6.920
 21       -0.004  -0.006  -0.066  -6.842  -6.918
 22       -0.005  -0.006  -0.071  -6.844  -6.925
 23       -0.004  -0.006  -0.068  -6.841  -6.919
 24        0.004   0.006   0.070   6.846   6.926
 25        0.000   0.002   0.000   0.000   0.002
 26       -0.001  -0.006   0.000   0.000  -0.007
 27        0.001   0.005   0.000   0.000   0.006
 28       -0.001  -0.005   0.000   0.000  -0.005
 29       -0.000  -0.002   0.000   0.000  -0.003
 30       -0.000  -0.001   0.000   0.000  -0.002
 31        0.000   0.002   0.000   0.000   0.003
 32       -0.002  -0.010   0.000   0.000  -0.011
 33        0.000   0.001   0.000   0.000   0.001
 34       -0.000  -0.002   0.000   0.000  -0.002
 35        0.001   0.006   0.000   0.000   0.006
 36        0.001   0.003   0.000   0.000   0.004
 37       -0.001  -0.004   0.000   0.000  -0.005
 38       -0.000   0.001   0.000   0.000   0.001
 39       -0.001  -0.008   0.000   0.000  -0.009
 40       -0.001  -0.002   0.000   0.000  -0.002
 41       -0.001  -0.003   0.000   0.000  -0.004
 42        0.000   0.002   0.000   0.000   0.002
 43       -0.001  -0.003   0.000   0.000  -0.004
 44       -0.000  -0.000   0.000   0.000  -0.001
 45       -0.001  -0.004   0.000   0.000  -0.004
 46        0.001   0.006   0.000   0.000   0.007
 47        0.001   0.003   0.000   0.000   0.004
 48       -0.001  -0.003   0.000   0.000  -0.004
------------------------------------------------
tot        0.001  -0.011   0.146  13.692  13.827

 
    CHARGE:  cpu time   24.4293: real time   24.4351
    FORLOC:  cpu time    0.0380: real time    0.0379
    FORNL :  cpu time  101.4286: real time  101.4233
    STRESS:  cpu time  301.6621: real time  301.6695
    FORCOR:  cpu time    0.4019: real time    0.4176
    FORHAR:  cpu time    0.0760: real time    0.0766
    MIXING:  cpu time    0.0080: real time    0.0082
    OFIELD:  cpu time    0.0000: real time    0.0000

  FORCE on cell =-STRESS in cart. coord.  units (eV):
  Direction    XX          YY          ZZ          XY          YZ          ZX
  --------------------------------------------------------------------------------------
  Alpha Z  1925.58421  1925.58421  1925.58421
  Ewald   -9515.23730 -9386.17193-13698.94280  -174.48956   686.45517  1368.12005
  Hartree  6393.76670  6506.90152  3077.78983  -139.11534   545.57422  1086.04112
  E(xc)   -2160.68786 -2160.79880 -2161.96509    -0.05980     0.22639     0.37941
  Local   -2865.28463 -3104.04120  4643.13408   314.33694 -1234.42138 -2455.83864
  n-local   438.36779   438.24786   439.45818     0.19166     0.03069     0.08715
  augment   870.94274   870.50952   868.99050    -0.07873     0.34591     0.50758
  Kinetic  4912.13278  4910.27719  4905.98888    -0.84490     2.02792     0.67294
  Fock        0.00000     0.00000     0.00000     0.00000     0.00000     0.00000
  -------------------------------------------------------------------------------------
  Total      -0.41557     0.50837     0.03778    -0.05972     0.23892    -0.03038
  in kB      -0.59231     0.72458     0.05385    -0.08511     0.34053    -0.04329
  external pressure =        0.06 kB  Pullay stress =        0.00 kB


 VOLUME and BASIS-vectors are now :
 -----------------------------------------------------------------------------
  energy-cutoff  :      520.00
  volume of cell :     1124.10
      direct lattice vectors                 reciprocal lattice vectors
    11.604355000  0.005056000  3.443863000     0.086220490 -0.044126514 -0.000090035
     3.529476000  6.891703000  2.291602000    -0.000076609  0.145126262  0.000045076
     0.012452000 -0.004361000 14.061842000    -0.021103636 -0.012843692  0.071129143

  length of vectors
    12.104597180  8.074912433 14.061848189     0.096856234  0.145126289  0.075297270


 FORCES acting on ions
    electron-ion (+dipol)            ewald-force                    non-local-force                 convergence-correction
 -----------------------------------------------------------------------------------------------
   0.984E+01 -.589E+00 -.909E+01   -.992E+01 0.138E+01 0.706E+01   0.879E-01 -.807E+00 0.202E+01   -.292E-02 -.358E-02 0.148E-01
   0.232E+02 0.133E+02 -.216E+02   -.240E+02 -.133E+02 0.226E+02   0.785E+00 -.857E-02 -.875E+00   0.675E-02 0.170E-02 -.131E-01
   0.208E+02 -.174E+02 0.176E+02   -.207E+02 0.178E+02 -.191E+02   -.102E+00 -.386E+00 0.143E+01   -.303E-02 -.347E-02 0.155E-01
   -.421E+01 0.102E+01 -.460E+01   0.561E+01 -.135E+01 0.343E+01   -.141E+01 0.333E+00 0.116E+01   -.611E-02 -.192E-02 0.150E-01
   -.189E+02 0.294E+02 -.279E+01   0.189E+02 -.299E+02 0.360E+01   -.572E-01 0.478E+00 -.800E+00   0.355E-02 0.265E-02 -.144E-01
   -.770E+01 0.574E+01 0.360E+01   0.798E+01 -.563E+01 -.425E+01   -.266E+00 -.104E+00 0.631E+00   -.477E-02 -.268E-02 0.153E-01
   -.364E+02 0.281E+01 -.109E+02   0.359E+02 -.278E+01 0.121E+02   0.590E+00 -.426E-01 -.113E+01   0.424E-02 0.279E-02 -.143E-01
   -.599E+01 0.192E+02 0.173E+02   0.616E+01 -.192E+02 -.188E+02   -.152E+00 -.476E-01 0.143E+01   -.498E-02 -.155E-02 0.165E-01
   0.978E+01 -.148E+02 -.218E+02   -.997E+01 0.149E+02 0.232E+02   0.190E+00 -.910E-01 -.131E+01   0.251E-02 0.243E-02 -.154E-01
   -.208E+02 -.134E+02 0.533E+01   0.214E+02 0.137E+02 -.662E+01   -.628E+00 -.372E+00 0.127E+01   -.588E-02 -.301E-02 0.150E-01
   0.340E+02 -.495E+01 0.113E+02   -.342E+02 0.402E+01 -.957E+01   0.233E+00 0.934E+00 -.171E+01   0.318E-02 0.424E-02 -.142E-01
   0.212E+02 -.842E+01 -.575E+02   -.213E+02 0.873E+01 0.580E+02   0.151E+00 -.297E+00 -.461E+00   0.897E-03 -.870E-03 -.270E-02
   0.244E+02 -.470E+02 -.624E+02   -.254E+02 0.471E+02 0.649E+02   0.999E+00 -.145E+00 -.252E+01   0.869E-02 0.245E-02 -.241E-01
   0.306E+02 -.209E+02 -.138E+03   -.315E+02 0.212E+02 0.139E+03   0.843E+00 -.377E+00 -.114E+01   -.507E-03 0.518E-03 -.279E-02
   -.431E+02 0.199E+02 0.138E+03   0.433E+02 -.203E+02 -.139E+03   -.194E+00 0.362E+00 0.385E+00   0.151E-02 -.905E-03 0.146E-02
   0.947E+02 0.426E+01 -.167E+02   -.950E+02 -.531E+01 0.188E+02   0.243E+00 0.105E+01 -.213E+01   0.208E-02 0.361E-03 -.188E-02
   -.723E+02 -.438E+02 0.111E+03   0.730E+02 0.440E+02 -.111E+03   -.702E+00 -.187E+00 0.339E+00   0.180E-02 -.148E-02 0.932E-03
   -.266E+02 0.699E+02 -.615E+02   0.276E+02 -.712E+02 0.613E+02   -.101E+01 0.131E+01 0.257E+00   0.554E-03 0.274E-03 -.312E-02
   -.269E+02 -.935E+01 0.578E+02   0.280E+02 0.885E+01 -.583E+02   -.112E+01 0.496E+00 0.508E+00   -.253E-03 -.477E-03 0.105E-02
   -.791E+02 0.346E+02 -.726E+02   0.786E+02 -.336E+02 0.738E+02   0.560E+00 -.978E+00 -.119E+01   -.162E-02 0.196E-02 -.236E-02
   -.350E+02 -.275E+00 0.677E+02   0.348E+02 0.507E+00 -.675E+02   0.182E+00 -.218E+00 -.148E+00   -.138E-02 0.445E-04 0.241E-02
   0.916E+02 0.403E+02 -.119E+03   -.923E+02 -.411E+02 0.120E+03   0.686E+00 0.796E+00 -.624E+00   0.266E-02 0.894E-03 -.242E-02
   -.515E+01 -.132E+02 0.564E+02   0.462E+01 0.141E+02 -.581E+02   0.527E+00 -.908E+00 0.168E+01   -.226E-02 0.197E-02 -.744E-03
   0.114E+02 -.558E+02 0.144E+03   -.117E+02 0.561E+02 -.145E+03   0.313E+00 -.257E+00 0.656E+00   -.164E-02 0.153E-04 0.102E-02
   0.121E+03 0.680E+02 -.108E+03   -.121E+03 -.678E+02 0.108E+03   -.535E+00 -.198E+00 0.515E+00   0.580E-03 0.408E-03 0.318E-02
   0.422E+02 -.599E+02 -.125E+03   -.422E+02 0.599E+02 0.125E+03   0.168E-02 0.300E-02 0.405E-01   0.183E-02 0.817E-03 -.547E-02
   0.620E+02 -.688E+02 -.158E+03   -.616E+02 0.686E+02 0.157E+03   -.366E+00 0.220E+00 0.573E+00   0.217E-03 -.228E-02 0.191E-02
   0.962E+02 0.559E+02 -.863E+02   -.963E+02 -.559E+02 0.862E+02   0.599E-01 -.114E-01 0.157E+00   0.145E-02 0.995E-03 -.514E-02
   0.483E+02 0.406E+02 -.177E+03   -.483E+02 -.404E+02 0.177E+03   0.170E-01 -.160E+00 0.248E+00   -.571E-03 0.272E-03 0.278E-02
   0.411E+02 0.364E+02 -.170E+03   -.410E+02 -.363E+02 0.170E+03   -.118E+00 -.614E-01 0.337E+00   0.197E-02 0.378E-03 -.479E-02
   0.435E+02 0.336E+02 -.180E+03   -.436E+02 -.334E+02 0.179E+03   0.113E+00 -.171E+00 0.365E+00   -.130E-02 -.106E-02 0.250E-02
   -.338E+02 0.598E+02 -.126E+03   0.339E+02 -.598E+02 0.126E+03   -.117E+00 -.845E-02 0.832E-01   0.180E-02 0.811E-03 -.462E-02
   -.376E+02 0.689E+02 -.155E+03   0.375E+02 -.687E+02 0.155E+03   0.651E-01 -.182E+00 0.670E+00   -.249E-02 0.343E-03 0.249E-02
   0.543E+02 0.279E+02 -.168E+03   -.541E+02 -.278E+02 0.167E+03   -.134E+00 -.102E+00 0.331E+00   0.651E-03 0.558E-03 -.489E-02
   0.497E+02 0.343E+02 -.178E+03   -.495E+02 -.342E+02 0.178E+03   -.208E+00 -.683E-01 0.296E+00   -.106E-02 -.334E-03 0.283E-02
   0.516E+02 0.298E+02 -.168E+03   -.515E+02 -.298E+02 0.167E+03   -.188E+00 0.101E-01 0.359E+00   0.128E-02 0.168E-02 -.482E-02
   -.555E+02 -.444E+02 0.208E+03   0.554E+02 0.444E+02 -.208E+03   0.157E+00 0.343E-01 -.321E+00   -.112E-02 -.178E-02 0.581E-02
   -.195E+02 0.728E+02 0.914E+02   0.195E+02 -.725E+02 -.915E+02   -.540E-01 -.314E+00 0.998E-01   0.181E-02 0.748E-03 -.351E-02
   -.585E+02 -.392E+02 0.217E+03   0.584E+02 0.391E+02 -.216E+03   0.108E+00 0.609E-01 -.249E+00   -.923E-03 -.102E-02 0.559E-02
   -.237E+02 -.924E+02 0.110E+02   0.233E+02 0.922E+02 -.113E+02   0.335E+00 0.257E+00 0.202E+00   0.210E-02 -.613E-03 -.403E-02
   -.741E+02 -.293E+02 0.205E+03   0.740E+02 0.293E+02 -.205E+03   0.139E+00 0.193E-01 -.308E+00   -.205E-02 -.117E-02 0.552E-02
   -.538E+02 -.220E+02 0.140E+03   0.538E+02 0.219E+02 -.139E+03   0.195E-01 0.158E+00 -.323E+00   0.309E-03 0.870E-03 -.379E-02
   -.772E+02 -.298E+02 0.203E+03   0.770E+02 0.298E+02 -.203E+03   0.166E+00 0.689E-01 -.308E+00   -.224E-02 -.414E-03 0.582E-02
   -.465E+02 -.206E+02 0.138E+03   0.464E+02 0.206E+02 -.138E+03   0.148E+00 0.786E-02 -.299E+00   0.130E-02 0.975E-03 -.416E-02
   -.565E+02 -.456E+02 0.212E+03   0.565E+02 0.455E+02 -.212E+03   0.123E-01 0.910E-01 -.280E+00   -.202E-02 -.131E-02 0.630E-02
   -.289E+02 0.645E+02 0.110E+03   0.285E+02 -.643E+02 -.109E+03   0.367E+00 -.203E+00 -.623E+00   0.109E-02 0.198E-02 -.354E-02
   -.543E+02 -.415E+02 0.219E+03   0.543E+02 0.414E+02 -.218E+03   0.826E-02 0.116E+00 -.337E+00   -.225E-02 -.877E-03 0.673E-02
   0.203E+02 -.897E+02 0.142E+02   -.198E+02 0.895E+02 -.144E+02   -.522E+00 0.230E+00 0.119E+00   0.309E-03 0.504E-04 -.438E-02
 -----------------------------------------------------------------------------------------------
   -.221E+00 -.341E+00 0.928E+00   -.181E-12 0.142E-13 -.357E-12   0.218E+00 0.336E+00 -.915E+00   0.372E-02 0.237E-02 -.143E-01
 
 
 POSITION                                       TOTAL-FORCE (eV/Angst)
 -----------------------------------------------------------------------------------
      2.83540      1.73855      4.59398        -0.000406     -0.014794      0.007483
      2.75403      1.71126     11.76383        -0.023917      0.003811      0.015668
      4.57029      5.21379      5.69499        -0.016038      0.016035     -0.018390
      6.70678      1.73156      5.75454        -0.014045      0.005486     -0.001117
      6.71416      1.66715     12.88755         0.012605     -0.010719     -0.002672
      8.46907      5.18277      6.90786         0.006505     -0.001426     -0.009532
      8.49911      5.14876     14.05095         0.024112     -0.010725      0.001839
     10.58669      1.69903      6.84421         0.007878     -0.012076     -0.023924
     10.54606      1.74258     14.09305         0.001313      0.010146      0.024593
     12.39744      5.21603      8.01451         0.020365      0.008399     -0.006349
     12.25794      5.15438     15.18468        -0.017991      0.010157     -0.001353
     11.58495      0.01998      3.48774        -0.010075      0.007916      0.012009
      4.54162      5.19677     12.95579         0.001210     -0.003436      0.008911
      5.59956      3.45809      2.36069        -0.022616      0.000578      0.012412
      5.65282      3.43731      9.29390         0.022795     -0.015149     -0.023316
      7.36322      6.87723      3.42865        -0.009064      0.012431      0.005584
      3.90126      0.00538      8.15616         0.026810      0.000611     -0.008015
      9.56722      3.39094     17.47768         0.003843     -0.012462      0.018274
      9.50627      3.43882     10.48920         0.012408     -0.008613     -0.019993
      7.79750      0.01359     16.36592         0.001916      0.002209      0.017363
      7.73379      0.00636      9.33510        -0.000738      0.013262     -0.019786
     13.32652      3.40990      4.63497        -0.001896     -0.012385      0.010235
     13.35934      3.45521     11.64464        -0.014707     -0.000611     -0.008135
     11.60429      0.01360     10.44172        -0.009567      0.022993     -0.027067
      1.54037      0.90673      2.24195         0.033761     -0.000232     -0.026628
      1.43908      0.79198      9.29834        -0.009307      0.006551      0.001564
      3.21776      4.22705      3.36668         0.021349     -0.007245     -0.028047
      3.27231      4.35885     10.46753        -0.001629     -0.003976      0.016987
      5.32624      0.86889      3.29657         0.008627      0.003269     -0.036864
      5.32367      0.89968     10.36627        -0.005818     -0.008461     -0.012500
      7.08142      4.37196      4.48130        -0.009861      0.006996     -0.033489
      6.99298      4.36172     11.58288        -0.018715     -0.003182     -0.002588
      9.07118      0.93902      4.51879        -0.023351      0.002366     -0.033253
      9.19920      0.89532     11.51786        -0.001349     -0.012824     -0.004780
     10.95011      4.35388      5.65067         0.007302     -0.002376     -0.017313
     10.96073      4.33333     12.67090        -0.010204     -0.006463      0.010863
      4.15035      2.55897      7.15631        -0.007005      0.002289      0.027357
      4.22643      2.66806     14.06083         0.010404     -0.001817      0.004087
      5.94917      6.00105      8.27943        -0.004550      0.008308      0.027009
      6.00941      5.92174     15.13773         0.001003     -0.004423     -0.018661
      8.06191      2.56517      8.29078        -0.005453      0.005569      0.037377
      8.05872      2.54377     15.29070         0.002364      0.003958      0.009639
      9.80749      5.98466      9.43533        -0.013406      0.005826      0.030649
      9.80647      6.02798     16.45712         0.013566      0.003143     -0.006274
     11.92280      2.56614      9.47603        -0.004879     -0.002702      0.050491
     11.94862      2.66225     16.42319        -0.000222     -0.001893      0.012680
     13.68667      5.97163     10.59562         0.004096     -0.007756      0.038134
     13.76956      5.93958     17.45325         0.012574      0.003437     -0.011163
 -----------------------------------------------------------------------------------
    total drift:                                0.000752     -0.002618     -0.000967


--------------------------------------------------------------------------------------------------------



  FREE ENERGIE OF THE ION-ELECTRON SYSTEM (eV)
  ---------------------------------------------------
  free  energy   TOTEN  =      -371.21386221 eV

  energy  without entropy=     -371.21386221  energy(sigma->0) =     -371.21386221
 


--------------------------------------------------------------------------------------------------------


    POTLOK:  cpu time    0.4649: real time    0.4670


--------------------------------------------------------------------------------------------------------



 ----------------------------------------------------------------------------- 
|                                                                             |
|           W    W    AA    RRRRR   N    N  II  N    N   GGGG   !!!           |
|           W    W   A  A   R    R  NN   N  II  NN   N  G    G  !!!           |
|           W    W  A    A  R    R  N N  N  II  N N  N  G       !!!           |
|           W WW W  AAAAAA  RRRRR   N  N N  II  N  N N  G  GGG   !            |
|           WW  WW  A    A  R   R   N   NN  II  N   NN  G    G                |
|           W    W  A    A  R    R  N    N  II  N    N   GGGG   !!!           |
|                                                                             |
|      Linear response in principle supports LREAL = Auto (or LREAL=.TRUE.)   |
|      However in some cases we have found that the real space projection     |
|      is not sufficiently accurate.                                          |
|      I strongly recommend that you switch it off by setting LREAL=.FALSE.   |
|                                                                             |
 ----------------------------------------------------------------------------- 

 
 Found   144 degrees of freedom:
  ----------------------------------------------
 
     directions for atom     1:  z 
     directions for atom     2:  z 
     directions for atom     3:  z 
     directions for atom     4:  z 
     directions for atom     5:  z 
     directions for atom     6:  z 
     directions for atom     7:  z 
     directions for atom     8:  z 
     directions for atom     9:  z 
     directions for atom    10:  z 
     directions for atom    11:  z 
     directions for atom    12:  z 
     directions for atom    13:  z 
     directions for atom    14:  z 
     directions for atom    15:  z 
     directions for atom    16:  z 
     directions for atom    17:  z 
     directions for atom    18:  z 
     directions for atom    19:  z 
     directions for atom    20:  z 
     directions for atom    21:  z 
     directions for atom    22:  z 
     directions for atom    23:  z 
     directions for atom    24:  z 
     directions for atom    25:  z 
     directions for atom    26:  z 
     directions for atom    27:  z 
     directions for atom    28:  z 
     directions for atom    29:  z 
     directions for atom    30:  z 
     directions for atom    31:  z 
     directions for atom    32:  z 
     directions for atom    33:  z 
     directions for atom    34:  z 
     directions for atom    35:  z 
     directions for atom    36:  z 
     directions for atom    37:  z 
     directions for atom    38:  z 
     directions for atom    39:  z 
     directions for atom    40:  z 
     directions for atom    41:  z 
     directions for atom    42:  z 
     directions for atom    43:  z 
     directions for atom    44:  z 
     directions for atom    45:  z 
     directions for atom    46:  z 
     directions for atom    47:  z 
     directions for atom    48:  z 
 Linear response reoptimize wavefunctions
 Linear response G [H, r] |phi>, progress :
  Direction:   1


----------------------------------------- Iteration    1(   1)  ---------------------------------------


    HAMIL1:  cpu time  162.2953: real time  165.0053
    LRDIAG:  cpu time   53.9808: real time   61.0412
