
Running Job 1 of 1 mol.qin
qchem mol.qin_16882.0 /tmp/scratch/ 0
/clusterfs/mp/software/qchem/exe/qcprog.exe_s mol.qin_16882.0 /tmp/scratch/
                  Welcome to Q-Chem
     A Quantum Leap Into The Future Of Chemistry


 Q-Chem 5.2, Q-Chem, Inc., Pleasanton, CA (2019)

 Yihan Shao,  Zhengting Gan,  E. Epifanovsky,  A. T. B. Gilbert,  M. Wormit,  
 J. Kussmann,  A. W. Lange,  A. Behn,  Jia Deng,  Xintian Feng,  D. Ghosh,  
 M. Goldey,  P. R. Horn,  L. D. Jacobson,  I. Kaliman,  T. Kus,  A. Landau,  
 Jie Liu,  E. I. Proynov,  R. M. Richard,  R. P. Steele,  E. J. Sundstrom,  
 H. L. Woodcock III,  P. M. Zimmerman,  D. Zuev,  B. Alam,  B. Albrecht,  
 E. Alguire,  S. A. Baeppler,  D. Barton,  Z. Benda,  Y. A. Bernard,  
 E. J. Berquist,  K. B. Bravaya,  H. Burton,  K. Carter-Fenk,  D. Casanova,  
 Chun-Min Chang,  Yunqing Chen,  A. Chien,  K. D. Closser,  M. P. Coons,  
 S. Coriani,  S. Dasgupta,  A. L. Dempwolff,  M. Diedenhofen,  Hainam Do,  
 R. G. Edgar,  Po-Tung Fang,  S. Faraji,  S. Fatehi,  Qingguo Feng,  
 J. Fosso-Tande,  J. Gayvert,  Qinghui Ge,  A. Ghysels,  G. Gidofalvi,  
 J. Gomes,  J. Gonthier,  A. Gunina,  D. Hait,  M. W. D. Hanson-Heine,  
 P. H. P. Harbach,  A. W. Hauser,  M. F. Herbst,  J. E. Herr,  
 E. G. Hohenstein,  Z. C. Holden,  Kerwin Hui,  B. C. Huynh,  T.-C. Jagau,  
 Hyunjun Ji,  B. Kaduk,  K. Khistyaev,  Jaehoon Kim,  P. Klunzinger,  K. Koh,  
 D. Kosenkov,  L. Koulias,  T. Kowalczyk,  C. M. Krauter,  A. Kunitsa,  
 Ka Un Lao,  A. Laurent,  K. V. Lawler,  Joonho Lee,  D. Lefrancois,  
 S. Lehtola,  D. S. Levine,  Yi-Pei Li,  You-Sheng Lin,  Fenglai Liu,  
 Kuan-Yu Liu,  E. Livshits,  M. Loipersberger,  A. Luenser,  P. Manohar,  
 E. Mansoor,  S. F. Manzer,  Shan-Ping Mao,  Yuezhi Mao,  N. Mardirossian,  
 A. V. Marenich,  T. Markovich,  L. A. Martinez-Martinez,  S. A. Maurer,  
 N. J. Mayhall,  S. C. McKenzie,  J.-M. Mewes,  P. Morgante,  A. F. Morrison,  
 J. W. Mullinax,  K. Nanda,  T. S. Nguyen-Beck,  R. Olivares-Amaya,  
 J. A. Parkhill,  S. K. Paul,  Zheng Pei,  T. M. Perrine,  F. Plasser,  
 P. Pokhilko,  S. Prager,  A. Prociuk,  E. Ramos,  B. Rana,  D. R. Rehn,  
 F. Rob,  M. Scheurer,  M. Schneider,  N. Sergueev,  S. M. Sharada,  
 S. Sharma,  D. W. Small,  T. Stauch,  C. J. Stein,  T. Stein,  Yu-Chuan Su,  
 S. P. Veccham,  A. J. W. Thom,  A. Tkatchenko,  T. Tsuchimochi,  
 N. M. Tubman,  L. Vogt,  M. L. Vidal,  O. Vydrov,  M. A. Watson,  J. Wenzel,  
 M. de Wergifosse,  T. A. Wesolowski,  A. White,  J. Witte,  A. Yamada,  
 Jun Yang,  K. Yao,  S. Yeganeh,  S. R. Yost,  Zhi-Qiang You,  A. Zech,  
 Igor Ying Zhang,  Xing Zhang,  Yan Zhao,  Ying Zhu,  B. R. Brooks,  
 G. K. L. Chan,  C. J. Cramer,  M. S. Gordon,  W. J. Hehre,  A. Klamt,  
 M. W. Schmidt,  C. D. Sherrill,  D. G. Truhlar,  A. Aspuru-Guzik,  R. Baer,  
 A. T. Bell,  N. A. Besley,  Jeng-Da Chai,  A. E. DePrince, III,  
 R. A. DiStasio Jr.,  A. Dreuw,  B. D. Dunietz,  T. R. Furlani,  
 Chao-Ping Hsu,  Yousung Jung,  Jing Kong,  D. S. Lambrecht,  WanZhen Liang,  
 C. Ochsenfeld,  V. A. Rassolov,  L. V. Slipchenko,  J. E. Subotnik,  
 T. Van Voorhis,  J. M. Herbert,  A. I. Krylov,  P. M. W. Gill,  M. Head-Gordon

 Contributors to earlier versions of Q-Chem not listed above: 
 R. D. Adamson,  B. Austin,  J. Baker,  G. J. O. Beran,  K. Brandhorst,  
 S. T. Brown,  E. F. C. Byrd,  A. K. Chakraborty,  C.-L. Cheng,  
 Siu Hung Chien,  D. M. Chipman,  D. L. Crittenden,  H. Dachsel,  
 R. J. Doerksen,  A. D. Dutoi,  L. Fusti-Molnar,  W. A. Goddard III,  
 A. Golubeva-Zadorozhnaya,  S. R. Gwaltney,  G. Hawkins,  A. Heyden,  
 S. Hirata,  G. Kedziora,  F. J. Keil,  C. Kelley,  Jihan Kim,  R. A. King,  
 R. Z. Khaliullin,  P. P. Korambath,  W. Kurlancheek,  A. M. Lee,  M. S. Lee,  
 S. V. Levchenko,  Ching Yeh Lin,  D. Liotard,  R. C. Lochan,  I. Lotan,  
 P. E. Maslen,  N. Nair,  D. P. O'Neill,  D. Neuhauser,  E. Neuscamman,  
 C. M. Oana,  R. Olson,  B. Peters,  R. Peverati,  P. A. Pieniazek,  
 Y. M. Rhee,  J. Ritchie,  M. A. Rohrdanz,  E. Rosta,  N. J. Russ,  
 H. F. Schaefer III,  N. E. Schultz,  N. Shenvi,  A. C. Simmonett,  A. Sodt,  
 D. Stuck,  K. S. Thanthiriwatte,  V. Vanovschi,  Tao Wang,  A. Warshel,  
 C. F. Williams,  Q. Wu,  X. Xu,  W. Zhang

 Please cite Q-Chem as follows:
 Y. Shao et al., Mol. Phys. 113, 184-215 (2015)
 DOI: 10.1080/00268976.2014.952696

 Q-Chem 5.2.2 for Intel X86 EM64T Linux

 Parts of Q-Chem use Armadillo 8.300.2 (Tropical Shenanigans).
 http://arma.sourceforge.net/

 Q-Chem begins on Wed Nov 11 08:37:44 2020  

Host: 
0

     Scratch files written to /tmp/scratch//
 Nov2519 |scratch|qcdevops|jenkins|workspace|build_RNUM 6829   
Processing $rem in /clusterfs/mp/software/qchem/config/preferences:
	 MEM_TOTAL  96000 
NAlpha2: 30
NElect   29
Mult     2
Symmetry turned off for PCM/SM12/SMD calculation

Checking the input file for inconsistencies... 	...done.

--------------------------------------------------------------
User input:
--------------------------------------------------------------
$molecule
0 2
C      0.3191300000     -1.3613000000      0.0128700000
O      1.2852600000     -1.4554200000     -0.6606500000
H      0.2921000000     -1.3964700000      1.1311400000
O     -1.0993600000      1.1729700000      0.1536300000
Li     -0.0891800000      2.4722900000      0.5674400000
Li     -1.6138800000     -0.1007900000     -0.8422700000
$end

$rem
job_type = freq
basis = def2-svpd
max_scf_cycles = 200
gen_scfman = true
xc_grid = 3
scf_algorithm = diis
resp_charges = true
symmetry = false
sym_ignore = true
method = wb97xv
solvent_method = smd
ideriv = 1
thresh = 14
$end

$smx
solvent other
$end
--------------------------------------------------------------
 ----------------------------------------------------------------
             Standard Nuclear Orientation (Angstroms)
    I     Atom           X                Y                Z
 ----------------------------------------------------------------
    1      C       0.3191300000    -1.3613000000     0.0128700000
    2      O       1.2852600000    -1.4554200000    -0.6606500000
    3      H       0.2921000000    -1.3964700000     1.1311400000
    4      O      -1.0993600000     1.1729700000     0.1536300000
    5      Li     -0.0891800000     2.4722900000     0.5674400000
    6      Li     -1.6138800000    -0.1007900000    -0.8422700000
 ----------------------------------------------------------------
 Nuclear Repulsion Energy =          76.35462552 hartrees
 There are       15 alpha and       14 beta electrons
 Requested basis set is def2-SVPD
 There are 42 shells and 98 basis functions

 Total QAlloc Memory Limit  96000 MB
 Mega-Array Size       188 MB
 MEM_STATIC part       192 MB
 
 Citation of the SMD model:
 Marenich, A.V.; Cramer, C.J.; Truhlar, D.G.
 J. Phys. Chem. B 2009, 113, 6378-6396.
 iSolventCode=           0
 Solvent: other                                                           
 
 vradii
            1           2           3           4           5           6
    1   1.8500000   2.2940000   1.2000000   2.2940000   2.1476001   2.1476001
 Changing PCM_VDW_RADII to SMD_RADIUS
 Discretize the solute cavity surface with Lebedev spheres
	Using 110 Lebedev grid points for each H atom
	Using 194 Lebedev grid points for other atoms
	Atomic van der Waals radii will be scaled by 1.20
 Remove points where switching function is < 1.0e-08
 Keep 639 surface tesserae and discard 441 interior tesserae
 Molecular Surface Area = 153.197 Angst**2

                       Distance Matrix (Angstroms)
             C (  1)   O (  2)   H (  3)   O (  4)   Li(  5)
   O (  2)  1.181480
   H (  3)  1.119149  2.049476
   O (  4)  2.907654  3.641140  3.081186
   Li(  5)  3.894955  4.338686  3.928159  1.697037
   Li(  6)  2.461032  3.205155  3.034122  1.696765  3.306468
 
 A cutoff of  1.0D-14 yielded    893 shell pairs
 There are      4937 function pairs (      5574 Cartesian)
 Smallest overlap matrix eigenvalue = 6.09E-04
 Guess from superposition of atomic densities
 Warning:  Energy on first SCF cycle will be non-variational
 SAD guess density has 29.000000 electrons

 -----------------------------------------------------------------------
  General SCF calculation program by
  Eric Jon Sundstrom, Paul Horn, Yuezhi Mao, Dmitri Zuev, Alec White,
  David Stuck, Shaama M.S., Shane Yost, Joonho Lee, David Small,
  Daniel Levine, Susi Lehtola, Hugh Burton, Evgeny Epifanovsky,
  Bang C. Huynh
 -----------------------------------------------------------------------
 Exchange:     0.1670 Hartree-Fock + 1.0000 wB97X-V + LR-HF
 Correlation:  1.0000 wB97X-V
 Using SG-3 standard quadrature grid
 Nonlocal Correlation:  VV10 with C = 0.0100 and b = 6.00 and scale = 1.00000
 Grid used for NLC:  SG-1 standard quadrature
 
 Citation of the SMD model:
 Marenich, A.V.; Cramer, C.J.; Truhlar, D.G.
 J. Phys. Chem. B 2009, 113, 6378-6396.
 iSolventCode=           0
 Solvent: other                                                           
 
 vradii
            1           2           3           4           5           6
    1   1.8500000   2.2940000   1.2000000   2.2940000   2.1476001   2.1476001
 using 40 threads for integral computing
 -------------------------------------------------------
 OpenMP Integral computing Module                
 Release: version 1.0, May 2013, Q-Chem Inc. Pittsburgh 
 -------------------------------------------------------
 using 40 threads for integral computing
 -------------------------------------------------------
 OpenMP Integral computing Module                
 Release: version 1.0, May 2013, Q-Chem Inc. Pittsburgh 
 -------------------------------------------------------
 -------------------------------------------------------
 OpenMP BLAS3 based DFT computing Module                
 Release: version 1.0, May 2013, Q-Chem Inc. Pittsburgh 
 -------------------------------------------------------
 -------------------------------------------------------
 OpenMP BLAS3 based DFT computing Module                
 Release: version 1.0, May 2013, Q-Chem Inc. Pittsburgh 
 -------------------------------------------------------
 -------------------------------------------------------
 OpenMP BLAS3 based DFT computing Module                
 Release: version 1.0, May 2013, Q-Chem Inc. Pittsburgh 
 -------------------------------------------------------
 A unrestricted SCF calculation will be
 performed using DIIS
 SCF converges when DIIS error is below 1.0e-08
 ---------------------------------------
  Cycle       Energy         DIIS error
 ---------------------------------------
    1    -203.5211718773      2.25e-02  
    2    -203.5636730124      9.46e-03  
    3    -202.1088483799      1.88e-02  
    4    -203.9346834690      2.75e-03  
    5    -203.9579035793      1.87e-03  
    6    -203.9704005040      2.02e-04  
    7    -203.9708885883      1.10e-04  
    8    -203.9710590871      4.56e-05  
    9    -203.9711273886      1.66e-05  
   10    -203.9711428103      9.66e-06  
   11    -203.9711478636      3.85e-06  
   12    -203.9711486688      1.86e-06  
   13    -203.9711487883      4.85e-07  
   14    -203.9711487966      1.72e-07  
   15    -203.9711487975      6.36e-08  
   16    -203.9711487976      2.35e-08  
   17    -203.9711487976      1.13e-08  
   18    -203.9711487976      3.13e-09  Convergence criterion met
 ---------------------------------------
 SCF time:   CPU 446.48s  wall 16.00s 
<S^2> =          0.753622246
(3)  G-ENP(liq) elect-nuc-pol free energy of system     -203.971148798 a.u.
(4)  G-CDS(liq) cavity-dispersion-solvent structure 
     free energy                                               -0.2270 kcal/mol
(6)  G-S(liq) free energy of system                     -203.971510618 a.u.
 SCF   energy in the final basis set =     -203.9711487976
 Total energy in the final basis set =     -203.9715106183
 
 --------------------------------------------------------------
 
                    Orbital Energies (a.u.)
 --------------------------------------------------------------
 
 Alpha MOs
 -- Occupied --
-19.2799 -19.0627 -10.3824  -2.0421  -2.0313  -1.2179  -0.8450  -0.7187
 -0.6079  -0.5509  -0.5375  -0.3237  -0.3000  -0.2740  -0.2684
 -- Virtual --
  0.0265   0.0383   0.0556   0.0615   0.0678   0.0791   0.0853   0.0874
  0.1102   0.1213   0.1303   0.1516   0.1670   0.2003   0.2022   0.2130
  0.2212   0.2304   0.2477   0.2544   0.2740   0.2847   0.3080   0.3172
  0.3287   0.3406   0.3862   0.4040   0.4105   0.4457   0.4585   0.4695
  0.4946   0.5287   0.5386   0.5880   0.6157   0.6349   0.6419   0.6535
  0.6793   0.6907   0.7045   0.7064   0.7453   0.7489   0.7987   0.8218
  0.8640   0.9042   0.9301   0.9600   0.9765   1.0058   1.0452   1.0949
  1.1823   1.4037   1.4567   1.5226   1.5539   1.6180   1.6468   1.7128
  1.7243   1.7395   1.8709   1.9823   1.9992   2.0991   2.2250   2.6323
  2.7970   2.9363   2.9998   3.1043   3.1082   3.1237   3.1509   3.1705
  3.2750   3.4672   3.8208
 
 Beta MOs
 -- Occupied --
-19.2725 -19.0617 -10.3749  -2.0421  -2.0310  -1.2017  -0.8419  -0.6899
 -0.5826  -0.5289  -0.4951  -0.3017  -0.2726  -0.2675
 -- Virtual --
  0.0064   0.0281   0.0431   0.0614   0.0621   0.0717   0.0798   0.0865
  0.0939   0.1121   0.1225   0.1332   0.1540   0.1702   0.2008   0.2034
  0.2136   0.2217   0.2350   0.2510   0.2561   0.2759   0.2911   0.3095
  0.3193   0.3364   0.3436   0.3892   0.4061   0.4147   0.4503   0.4602
  0.4758   0.4997   0.5308   0.5452   0.5951   0.6203   0.6359   0.6446
  0.6556   0.6808   0.6938   0.7092   0.7112   0.7464   0.7507   0.8031
  0.8275   0.8715   0.9052   0.9315   0.9624   0.9803   1.0229   1.0551
  1.1039   1.1898   1.4055   1.4617   1.5309   1.5607   1.6393   1.6656
  1.7144   1.7336   1.7602   1.8796   2.0034   2.0202   2.1225   2.2420
  2.6571   2.8189   2.9586   3.0208   3.1064   3.1097   3.1259   3.1537
  3.1740   3.2832   3.4946   3.8335
 --------------------------------------------------------------
 
          Ground-State Mulliken Net Atomic Charges

     Atom                 Charge (a.u.)    Spin (a.u.)
  --------------------------------------------------------
      1 C                     0.284375       0.505884
      2 O                    -0.345026       0.275023
      3 H                    -0.009329       0.163904
      4 O                    -1.730870       0.021792
      5 Li                    0.914950      -0.000708
      6 Li                    0.885900       0.034105
  --------------------------------------------------------
  Sum of atomic charges =    -0.000000
  Sum of spin   charges =     1.000000

  Building new vdw surfaces
         Merz-Kollman RESP Net Atomic Charges

     Atom                 Charge (a.u.)
  ----------------------------------------
      1 C                     0.022082
      2 O                    -0.260690
      3 H                     0.232305
      4 O                    -1.720082
      5 Li                    0.910663
      6 Li                    0.815722
  ----------------------------------------
  Sum of atomic charges =     0.000000

  Related Dipole Moment =     1.4047 (X  1.1199 Y  0.8480 Z  0.0034)

 -----------------------------------------------------------------
                    Cartesian Multipole Moments
 -----------------------------------------------------------------
    Charge (ESU x 10^10)
                -0.0000
    Dipole Moment (Debye)
         X       1.1570      Y       0.7981      Z       0.0368
       Tot       1.4061
    Quadrupole Moments (Debye-Ang)
        XX     -25.6842     XY      12.6201     YY      -9.1462
        XZ       8.6558     YZ       2.5677     ZZ     -19.7501
    Octopole Moments (Debye-Ang^2)
       XXX       3.4779    XXY      -8.0185    XYY      14.4313
       YYY      59.7303    XXZ      -7.8926    XYZ      -2.0242
       YYZ      21.2209    XZZ      -0.8942    YZZ       4.0150
       ZZZ       5.0241
    Hexadecapole Moments (Debye-Ang^3)
      XXXX    -172.9492   XXXY     105.2790   XXYY     -99.9533
      XYYY      97.5883   YYYY    -128.7472   XXXZ      36.9470
      XXYZ      -9.9506   XYYZ       8.6618   YYYZ      11.8832
      XXZZ     -33.7318   XYZZ      29.8150   YYZZ     -49.1312
      XZZZ      22.5123   YZZZ     -21.4859   ZZZZ     -55.3880
 -----------------------------------------------------------------
 Calculating analytic gradient of the SCF energy
 Gradient of CDS energy
            1           2           3           4           5           6
    1   0.0003236   0.0000863  -0.0000934   0.0002562  -0.0003542  -0.0002185
    2  -0.0009742   0.0001600   0.0001922  -0.0001362   0.0000880   0.0006702
    3   0.0009273  -0.0004062  -0.0003285  -0.0000797  -0.0000551  -0.0000579
 Gradient of SCF Energy
            1           2           3           4           5           6
    1   0.0066500  -0.0032566   0.0012877  -0.0129715   0.0116211  -0.0033307
    2  -0.0044553   0.0001579  -0.0011147   0.0026257   0.0119432  -0.0091568
    3  -0.0028610   0.0016314   0.0023693   0.0037108   0.0036494  -0.0084999
 Max gradient component =       1.297E-02
 RMS gradient           =       6.417E-03
 Computing fast CPCM-SWIG gradient
 Updating gradient with PCM contributions...
 -- total gradient after adding PCM contribution --
---------------------------------------------------
  Atom         X              Y              Z     
---------------------------------------------------
   1       0.006980      -0.004120       0.000453
   2      -0.003826      -0.000031       0.001893
   3       0.000212      -0.000205      -0.001478
   4      -0.004952       0.001156       0.001760
   5       0.004433       0.005987       0.001790
   6      -0.002847      -0.002788      -0.004417
---------------------------------------------------
 Number of fixed atoms: 0
 Gradient time:  CPU 50.03 s  wall 2.12 s
 ######################################################
 ######################################################
 # Starting finite difference calculation for IDERIV  #
 Finite diff step size:  1.88973e-03 a.u.
 ----------------------------------------------------------------
             Standard Nuclear Orientation (Angstroms)
    I     Atom           X                Y                Z
 ----------------------------------------------------------------
    1      C       0.3201300000    -1.3613000000     0.0128700000
    2      O       1.2852600000    -1.4554200000    -0.6606500000
    3      H       0.2921000000    -1.3964700000     1.1311400000
    4      O      -1.0993600000     1.1729700000     0.1536300000
    5      Li     -0.0891800000     2.4722900000     0.5674400000
    6      Li     -1.6138800000    -0.1007900000    -0.8422700000
 ----------------------------------------------------------------
 Nuclear Repulsion Energy =          76.36668406 hartrees
 There are       15 alpha and       14 beta electrons
 Discretize the solute cavity surface with Lebedev spheres
	Using 110 Lebedev grid points for each H atom
	Using 194 Lebedev grid points for other atoms
	Atomic van der Waals radii will be scaled by 1.20
 Remove points where switching function is < 1.0e-08
 Keep 639 surface tesserae and discard 441 interior tesserae
 Molecular Surface Area = 153.197 Angst**2

                       Distance Matrix (Angstroms)
             C (  1)   O (  2)   H (  3)   O (  4)   Li(  5)
   O (  2)  1.180662
   H (  3)  1.119174  2.049476
   O (  4)  2.908142  3.641140  3.081186
   Li(  5)  3.895060  4.338686  3.928159  1.697037
   Li(  6)  2.461817  3.205155  3.034122  1.696765  3.306468
 
 Requested basis set is def2-SVPD
 There are 42 shells and 98 basis functions
 A cutoff of  1.0D-14 yielded    893 shell pairs
 There are      4937 function pairs (      5574 Cartesian)
 Smallest overlap matrix eigenvalue = 6.08E-04
 Guess MOs from SCF MO coefficient file

 -----------------------------------------------------------------------
  General SCF calculation program by
  Eric Jon Sundstrom, Paul Horn, Yuezhi Mao, Dmitri Zuev, Alec White,
  David Stuck, Shaama M.S., Shane Yost, Joonho Lee, David Small,
  Daniel Levine, Susi Lehtola, Hugh Burton, Evgeny Epifanovsky,
  Bang C. Huynh
 -----------------------------------------------------------------------
 Exchange:     0.1670 Hartree-Fock + 1.0000 wB97X-V + LR-HF
 Correlation:  1.0000 wB97X-V
 Using SG-3 standard quadrature grid
 Nonlocal Correlation:  VV10 with C = 0.0100 and b = 6.00 and scale = 1.00000
 Grid used for NLC:  SG-1 standard quadrature
 
 Citation of the SMD model:
 Marenich, A.V.; Cramer, C.J.; Truhlar, D.G.
 J. Phys. Chem. B 2009, 113, 6378-6396.
 iSolventCode=           0
 Solvent: other                                                           
 
 vradii
            1           2           3           4           5           6
    1   1.8500000   2.2940000   1.2000000   2.2940000   2.1476001   2.1476001
 using 40 threads for integral computing
 -------------------------------------------------------
 OpenMP Integral computing Module                
 Release: version 1.0, May 2013, Q-Chem Inc. Pittsburgh 
 -------------------------------------------------------
 using 40 threads for integral computing
 -------------------------------------------------------
 OpenMP Integral computing Module                
 Release: version 1.0, May 2013, Q-Chem Inc. Pittsburgh 
 -------------------------------------------------------
 -------------------------------------------------------
 OpenMP BLAS3 based DFT computing Module                
 Release: version 1.0, May 2013, Q-Chem Inc. Pittsburgh 
 -------------------------------------------------------
 -------------------------------------------------------
 OpenMP BLAS3 based DFT computing Module                
 Release: version 1.0, May 2013, Q-Chem Inc. Pittsburgh 
 -------------------------------------------------------
 -------------------------------------------------------
 OpenMP BLAS3 based DFT computing Module                
 Release: version 1.0, May 2013, Q-Chem Inc. Pittsburgh 
 -------------------------------------------------------
 A unrestricted SCF calculation will be
 performed using Roothaan-Hall, DIIS
 SCF converges when DIIS error is below 1.0e-08
 ---------------------------------------
  Cycle       Energy         DIIS error
 ---------------------------------------
    1    -203.7028992780      3.28e-04  Roothaan Step
 ---------------------------------------
  Cycle       Energy         DIIS error
 ---------------------------------------
    1    -203.9699226976      3.64e-04  
    2    -203.9703487558      4.45e-04  
    3    -203.9710664209      6.82e-05  
    4    -203.9711153078      4.22e-05  
    5    -203.9711273327      2.26e-05  
    6    -203.9711328378      5.99e-06  
    7    -203.9711344145      2.62e-06  
    8    -203.9711347929      1.36e-06  
    9    -203.9711348986      6.79e-07  
   10    -203.9711349289      2.88e-07  
   11    -203.9711349345      9.26e-08  
   12    -203.9711349354      3.78e-08  
   13    -203.9711349354      1.67e-08  
   14    -203.9711349355      6.73e-09  Convergence criterion met
 ---------------------------------------
 SCF time:   CPU 377.63s  wall 12.00s 
<S^2> =          0.753612812
(3)  G-ENP(liq) elect-nuc-pol free energy of system     -203.971134935 a.u.
(4)  G-CDS(liq) cavity-dispersion-solvent structure 
     free energy                                               -0.2267 kcal/mol
(6)  G-S(liq) free energy of system                     -203.971496141 a.u.
 SCF   energy in the final basis set =     -203.9711349355
 Total energy in the final basis set =     -203.9714961413
 
 --------------------------------------------------------------
 
                    Orbital Energies (a.u.)
 --------------------------------------------------------------
 
 Alpha MOs
 -- Occupied --
-19.2799 -19.0626 -10.3823  -2.0421  -2.0313  -1.2184  -0.8449  -0.7186
 -0.6080  -0.5511  -0.5378  -0.3235  -0.3000  -0.2739  -0.2683
 -- Virtual --
  0.0265   0.0383   0.0557   0.0615   0.0679   0.0791   0.0853   0.0874
  0.1103   0.1213   0.1303   0.1515   0.1670   0.2002   0.2022   0.2130
  0.2212   0.2304   0.2476   0.2544   0.2740   0.2848   0.3080   0.3173
  0.3287   0.3406   0.3861   0.4040   0.4105   0.4457   0.4585   0.4696
  0.4947   0.5288   0.5387   0.5882   0.6158   0.6350   0.6419   0.6535
  0.6792   0.6908   0.7046   0.7064   0.7454   0.7489   0.7987   0.8218
  0.8640   0.9042   0.9301   0.9600   0.9764   1.0059   1.0459   1.0948
  1.1825   1.4038   1.4567   1.5227   1.5542   1.6182   1.6468   1.7128
  1.7243   1.7395   1.8710   1.9824   1.9992   2.0987   2.2248   2.6343
  2.7965   2.9364   2.9997   3.1044   3.1082   3.1238   3.1509   3.1706
  3.2761   3.4688   3.8223
 
 Beta MOs
 -- Occupied --
-19.2725 -19.0616 -10.3747  -2.0421  -2.0310  -1.2021  -0.8418  -0.6898
 -0.5828  -0.5292  -0.4954  -0.3017  -0.2726  -0.2675
 -- Virtual --
  0.0066   0.0282   0.0432   0.0615   0.0622   0.0718   0.0798   0.0865
  0.0940   0.1121   0.1226   0.1332   0.1539   0.1702   0.2008   0.2033
  0.2137   0.2217   0.2349   0.2510   0.2561   0.2759   0.2911   0.3095
  0.3193   0.3364   0.3437   0.3891   0.4060   0.4147   0.4503   0.4602
  0.4758   0.4998   0.5309   0.5452   0.5952   0.6204   0.6360   0.6447
  0.6556   0.6807   0.6939   0.7093   0.7112   0.7465   0.7507   0.8031
  0.8275   0.8715   0.9052   0.9315   0.9624   0.9802   1.0230   1.0558
  1.1038   1.1899   1.4055   1.4617   1.5310   1.5610   1.6394   1.6655
  1.7145   1.7335   1.7603   1.8796   2.0035   2.0201   2.1221   2.2418
  2.6591   2.8184   2.9587   3.0207   3.1064   3.1097   3.1259   3.1537
  3.1741   3.2843   3.4961   3.8349
 --------------------------------------------------------------
 
          Ground-State Mulliken Net Atomic Charges

     Atom                 Charge (a.u.)    Spin (a.u.)
  --------------------------------------------------------
      1 C                     0.283845       0.506095
      2 O                    -0.344017       0.274770
      3 H                    -0.009411       0.163990
      4 O                    -1.731147       0.021620
      5 Li                    0.914896      -0.000704
      6 Li                    0.885833       0.034228
  --------------------------------------------------------
  Sum of atomic charges =    -0.000000
  Sum of spin   charges =     1.000000

  Building new vdw surfaces
         Merz-Kollman RESP Net Atomic Charges

     Atom                 Charge (a.u.)
  ----------------------------------------
      1 C                     0.022206
      2 O                    -0.260221
      3 H                     0.232057
      4 O                    -1.720362
      5 Li                    0.910680
      6 Li                    0.815639
  ----------------------------------------
  Sum of atomic charges =     0.000000

  Related Dipole Moment =     1.4064 (X  1.1248 Y  0.8442 Z  0.0008)

 -----------------------------------------------------------------
                    Cartesian Multipole Moments
 -----------------------------------------------------------------
    Charge (ESU x 10^10)
                -0.0000
    Dipole Moment (Debye)
         X       1.1617      Y       0.7938      Z       0.0345
       Tot       1.4074
    Quadrupole Moments (Debye-Ang)
        XX     -25.6830     XY      12.6191     YY      -9.1453
        XZ       8.6541     YZ       2.5705     ZZ     -19.7503
    Octopole Moments (Debye-Ang^2)
       XXX       3.4801    XXY      -8.0320    XYY      14.4423
       YYY      59.6993    XXZ      -7.8949    XYZ      -2.0214
       YYZ      21.2144    XZZ      -0.8957    YZZ       4.0096
       ZZZ       5.0151
    Hexadecapole Moments (Debye-Ang^3)
      XXXX    -172.9830   XXXY     105.3039   XXYY     -99.9571
      XYYY      97.6033   YYYY    -128.7335   XXXZ      36.9452
      XXYZ      -9.9490   XYYZ       8.6569   YYYZ      11.8968
      XXZZ     -33.7377   XYZZ      29.8232   YYZZ     -49.1315
      XZZZ      22.5049   YZZZ     -21.4748   ZZZZ     -55.3948
 -----------------------------------------------------------------
 Calculating analytic gradient of the SCF energy
 Gradient of CDS energy
            1           2           3           4           5           6
    1   0.0003272   0.0000829  -0.0000936   0.0002564  -0.0003543  -0.0002186
    2  -0.0009749   0.0001604   0.0001929  -0.0001365   0.0000882   0.0006699
    3   0.0009250  -0.0004044  -0.0003283  -0.0000794  -0.0000550  -0.0000579
 Gradient of SCF Energy
            1           2           3           4           5           6
    1   0.0080050  -0.0045268   0.0012041  -0.0129711   0.0116297  -0.0033408
    2  -0.0045414   0.0002724  -0.0011204   0.0026018   0.0119452  -0.0091575
    3  -0.0036226   0.0024190   0.0023552   0.0037128   0.0036496  -0.0085140
 Max gradient component =       1.297E-02
 RMS gradient           =       6.583E-03
 Computing fast CPCM-SWIG gradient
 Updating gradient with PCM contributions...
 -- total gradient after adding PCM contribution --
---------------------------------------------------
  Atom         X              Y              Z     
---------------------------------------------------
   1       0.008341      -0.004207      -0.000312
   2      -0.005104       0.000084       0.002683
   3       0.000131      -0.000209      -0.001492
   4      -0.004944       0.001127       0.001758
   5       0.004437       0.005991       0.001791
   6      -0.002861      -0.002785      -0.004429
---------------------------------------------------
 Number of fixed atoms: 0
 Gradient time:  CPU 47.46 s  wall 1.65 s
 ----------------------------------------------------------------
             Standard Nuclear Orientation (Angstroms)
    I     Atom           X                Y                Z
 ----------------------------------------------------------------
    1      C       0.3181300000    -1.3613000000     0.0128700000
    2      O       1.2852600000    -1.4554200000    -0.6606500000
    3      H       0.2921000000    -1.3964700000     1.1311400000
    4      O      -1.0993600000     1.1729700000     0.1536300000
    5      Li     -0.0891800000     2.4722900000     0.5674400000
    6      Li     -1.6138800000    -0.1007900000    -0.8422700000
 ----------------------------------------------------------------
 Nuclear Repulsion Energy =          76.34258030 hartrees
 There are       15 alpha and       14 beta electrons
 Discretize the solute cavity surface with Lebedev spheres
	Using 110 Lebedev grid points for each H atom
	Using 194 Lebedev grid points for other atoms
	Atomic van der Waals radii will be scaled by 1.20
 Remove points where switching function is < 1.0e-08
 Keep 639 surface tesserae and discard 441 interior tesserae
 Molecular Surface Area = 153.198 Angst**2

                       Distance Matrix (Angstroms)
             C (  1)   O (  2)   H (  3)   O (  4)   Li(  5)
   O (  2)  1.182298
   H (  3)  1.119126  2.049476
   O (  4)  2.907166  3.641140  3.081186
   Li(  5)  3.894851  4.338686  3.928159  1.697037
   Li(  6)  2.460246  3.205155  3.034122  1.696765  3.306468
 
 Requested basis set is def2-SVPD
 There are 42 shells and 98 basis functions
 A cutoff of  1.0D-14 yielded    893 shell pairs
 There are      4937 function pairs (      5574 Cartesian)
 Smallest overlap matrix eigenvalue = 6.10E-04
 Guess MOs from SCF MO coefficient file

 -----------------------------------------------------------------------
  General SCF calculation program by
  Eric Jon Sundstrom, Paul Horn, Yuezhi Mao, Dmitri Zuev, Alec White,
  David Stuck, Shaama M.S., Shane Yost, Joonho Lee, David Small,
  Daniel Levine, Susi Lehtola, Hugh Burton, Evgeny Epifanovsky,
  Bang C. Huynh
 -----------------------------------------------------------------------
 Exchange:     0.1670 Hartree-Fock + 1.0000 wB97X-V + LR-HF
 Correlation:  1.0000 wB97X-V
 Using SG-3 standard quadrature grid
 Nonlocal Correlation:  VV10 with C = 0.0100 and b = 6.00 and scale = 1.00000
 Grid used for NLC:  SG-1 standard quadrature
 
 Citation of the SMD model:
 Marenich, A.V.; Cramer, C.J.; Truhlar, D.G.
 J. Phys. Chem. B 2009, 113, 6378-6396.
 iSolventCode=           0
 Solvent: other                                                           
 
 vradii
            1           2           3           4           5           6
    1   1.8500000   2.2940000   1.2000000   2.2940000   2.1476001   2.1476001
 using 40 threads for integral computing
 -------------------------------------------------------
 OpenMP Integral computing Module                
 Release: version 1.0, May 2013, Q-Chem Inc. Pittsburgh 
 -------------------------------------------------------
 using 40 threads for integral computing
 -------------------------------------------------------
 OpenMP Integral computing Module                
 Release: version 1.0, May 2013, Q-Chem Inc. Pittsburgh 
 -------------------------------------------------------
 -------------------------------------------------------
 OpenMP BLAS3 based DFT computing Module                
 Release: version 1.0, May 2013, Q-Chem Inc. Pittsburgh 
 -------------------------------------------------------
 -------------------------------------------------------
 OpenMP BLAS3 based DFT computing Module                
 Release: version 1.0, May 2013, Q-Chem Inc. Pittsburgh 
 -------------------------------------------------------
 -------------------------------------------------------
 OpenMP BLAS3 based DFT computing Module                
 Release: version 1.0, May 2013, Q-Chem Inc. Pittsburgh 
 -------------------------------------------------------
 A unrestricted SCF calculation will be
 performed using Roothaan-Hall, DIIS
 SCF converges when DIIS error is below 1.0e-08
 ---------------------------------------
  Cycle       Energy         DIIS error
 ---------------------------------------
    1    -203.7029654110      3.28e-04  Roothaan Step
 ---------------------------------------
  Cycle       Energy         DIIS error
 ---------------------------------------
    1    -203.9699419181      3.67e-04  
    2    -203.9703608615      4.49e-04  
    3    -203.9710928826      6.75e-05  
    4    -203.9711409177      4.25e-05  
    5    -203.9711527900      2.24e-05  
    6    -203.9711581504      5.81e-06  
    7    -203.9711596280      2.49e-06  
    8    -203.9711599793      1.24e-06  
    9    -203.9711600667      6.47e-07  
   10    -203.9711600943      2.82e-07  
   11    -203.9711600998      9.03e-08  
   12    -203.9711601001      3.57e-08  
   13    -203.9711601002      1.59e-08  
   14    -203.9711601002      6.41e-09  Convergence criterion met
 ---------------------------------------
 SCF time:   CPU 368.90s  wall 11.00s 
<S^2> =          0.753631610
(3)  G-ENP(liq) elect-nuc-pol free energy of system     -203.971160100 a.u.
(4)  G-CDS(liq) cavity-dispersion-solvent structure 
     free energy                                               -0.2274 kcal/mol
(6)  G-S(liq) free energy of system                     -203.971522529 a.u.
 SCF   energy in the final basis set =     -203.9711601002
 Total energy in the final basis set =     -203.9715225289
 
 --------------------------------------------------------------
 
                    Orbital Energies (a.u.)
 --------------------------------------------------------------
 
 Alpha MOs
 -- Occupied --
-19.2799 -19.0627 -10.3825  -2.0422  -2.0313  -1.2175  -0.8450  -0.7188
 -0.6077  -0.5507  -0.5373  -0.3239  -0.3001  -0.2740  -0.2684
 -- Virtual --
  0.0265   0.0383   0.0554   0.0615   0.0678   0.0791   0.0853   0.0873
  0.1102   0.1213   0.1303   0.1516   0.1670   0.2003   0.2022   0.2130
  0.2212   0.2304   0.2477   0.2544   0.2740   0.2847   0.3080   0.3172
  0.3287   0.3405   0.3862   0.4040   0.4106   0.4457   0.4585   0.4694
  0.4946   0.5286   0.5386   0.5879   0.6156   0.6349   0.6418   0.6535
  0.6794   0.6907   0.7044   0.7064   0.7452   0.7488   0.7986   0.8217
  0.8640   0.9042   0.9301   0.9601   0.9766   1.0057   1.0446   1.0951
  1.1822   1.4037   1.4567   1.5225   1.5537   1.6178   1.6468   1.7127
  1.7242   1.7394   1.8709   1.9822   1.9993   2.0994   2.2251   2.6302
  2.7974   2.9363   2.9999   3.1043   3.1081   3.1237   3.1509   3.1705
  3.2740   3.4657   3.8194
 
 Beta MOs
 -- Occupied --
-19.2725 -19.0617 -10.3750  -2.0421  -2.0310  -1.2012  -0.8419  -0.6900
 -0.5824  -0.5286  -0.4949  -0.3018  -0.2727  -0.2675
 -- Virtual --
  0.0062   0.0281   0.0431   0.0614   0.0621   0.0717   0.0798   0.0865
  0.0938   0.1121   0.1225   0.1332   0.1540   0.1702   0.2008   0.2034
  0.2136   0.2217   0.2350   0.2510   0.2561   0.2759   0.2910   0.3095
  0.3192   0.3363   0.3436   0.3892   0.4061   0.4148   0.4503   0.4603
  0.4757   0.4996   0.5307   0.5452   0.5950   0.6202   0.6359   0.6445
  0.6556   0.6809   0.6938   0.7091   0.7112   0.7463   0.7506   0.8031
  0.8275   0.8715   0.9052   0.9315   0.9625   0.9804   1.0228   1.0544
  1.1041   1.1897   1.4054   1.4617   1.5308   1.5605   1.6391   1.6656
  1.7144   1.7337   1.7601   1.8795   2.0034   2.0202   2.1228   2.2421
  2.6550   2.8193   2.9585   3.0210   3.1064   3.1097   3.1259   3.1537
  3.1740   3.2822   3.4930   3.8321
 --------------------------------------------------------------
 
          Ground-State Mulliken Net Atomic Charges

     Atom                 Charge (a.u.)    Spin (a.u.)
  --------------------------------------------------------
      1 C                     0.284898       0.505669
      2 O                    -0.346031       0.275280
      3 H                    -0.009245       0.163817
      4 O                    -1.730591       0.021963
      5 Li                    0.915003      -0.000711
      6 Li                    0.885966       0.033983
  --------------------------------------------------------
  Sum of atomic charges =    -0.000000
  Sum of spin   charges =     1.000000

  Building new vdw surfaces
         Merz-Kollman RESP Net Atomic Charges

     Atom                 Charge (a.u.)
  ----------------------------------------
      1 C                     0.021716
      2 O                    -0.261003
      3 H                     0.232588
      4 O                    -1.719838
      5 Li                    0.910691
      6 Li                    0.815845
  ----------------------------------------
  Sum of atomic charges =     0.000000

  Related Dipole Moment =     1.4038 (X  1.1154 Y  0.8523 Z  0.0057)

 -----------------------------------------------------------------
                    Cartesian Multipole Moments
 -----------------------------------------------------------------
    Charge (ESU x 10^10)
                -0.0000
    Dipole Moment (Debye)
         X       1.1524      Y       0.8024      Z       0.0391
       Tot       1.4048
    Quadrupole Moments (Debye-Ang)
        XX     -25.6853     XY      12.6212     YY      -9.1471
        XZ       8.6574     YZ       2.5649     ZZ     -19.7500
    Octopole Moments (Debye-Ang^2)
       XXX       3.4757    XXY      -8.0051    XYY      14.4204
       YYY      59.7614    XXZ      -7.8903    XYZ      -2.0270
       YYZ      21.2273    XZZ      -0.8927    YZZ       4.0204
       ZZZ       5.0331
    Hexadecapole Moments (Debye-Ang^3)
      XXXX    -172.9152   XXXY     105.2539   XXYY     -99.9493
      XYYY      97.5731   YYYY    -128.7610   XXXZ      36.9488
      XXYZ      -9.9522   XYYZ       8.6666   YYYZ      11.8696
      XXZZ     -33.7259   XYZZ      29.8068   YYZZ     -49.1310
      XZZZ      22.5196   YZZZ     -21.4970   ZZZZ     -55.3813
 -----------------------------------------------------------------
 Calculating analytic gradient of the SCF energy
 Gradient of CDS energy
            1           2           3           4           5           6
    1   0.0003199   0.0000898  -0.0000932   0.0002561  -0.0003541  -0.0002184
    2  -0.0009736   0.0001596   0.0001914  -0.0001358   0.0000879   0.0006704
    3   0.0009296  -0.0004080  -0.0003286  -0.0000800  -0.0000551  -0.0000579
 Gradient of SCF Energy
            1           2           3           4           5           6
    1   0.0053015  -0.0019925   0.0013712  -0.0129719   0.0116124  -0.0033206
    2  -0.0043695   0.0000440  -0.0011093   0.0026497   0.0119412  -0.0091560
    3  -0.0021052   0.0008494   0.0023837   0.0037087   0.0036492  -0.0084858
 Max gradient component =       1.297E-02
 RMS gradient           =       6.288E-03
 Computing fast CPCM-SWIG gradient
 Updating gradient with PCM contributions...
 -- total gradient after adding PCM contribution --
---------------------------------------------------
  Atom         X              Y              Z     
---------------------------------------------------
   1       0.005626      -0.004033       0.001212
   2      -0.002554      -0.000146       0.001108
   3       0.000292      -0.000200      -0.001464
   4      -0.004959       0.001186       0.001761
   5       0.004428       0.005983       0.001788
   6      -0.002833      -0.002790      -0.004406
---------------------------------------------------
 Number of fixed atoms: 0
 Gradient time:  CPU 45.29 s  wall 1.56 s
 ----------------------------------------------------------------
             Standard Nuclear Orientation (Angstroms)
    I     Atom           X                Y                Z
 ----------------------------------------------------------------
    1      C       0.3191300000    -1.3603000000     0.0128700000
    2      O       1.2852600000    -1.4554200000    -0.6606500000
    3      H       0.2921000000    -1.3964700000     1.1311400000
    4      O      -1.0993600000     1.1729700000     0.1536300000
    5      Li     -0.0891800000     2.4722900000     0.5674400000
    6      Li     -1.6138800000    -0.1007900000    -0.8422700000
 ----------------------------------------------------------------
 Nuclear Repulsion Energy =          76.35713040 hartrees
 There are       15 alpha and       14 beta electrons
 Discretize the solute cavity surface with Lebedev spheres
	Using 110 Lebedev grid points for each H atom
	Using 194 Lebedev grid points for other atoms
	Atomic van der Waals radii will be scaled by 1.20
 Remove points where switching function is < 1.0e-08
 Keep 639 surface tesserae and discard 441 interior tesserae
 Molecular Surface Area = 153.193 Angst**2

                       Distance Matrix (Angstroms)
             C (  1)   O (  2)   H (  3)   O (  4)   Li(  5)
   O (  2)  1.181560
   H (  3)  1.119181  2.049476
   O (  4)  2.906782  3.641140  3.081186
   Li(  5)  3.893971  4.338686  3.928159  1.697037
   Li(  6)  2.460520  3.205155  3.034122  1.696765  3.306468
 
 Requested basis set is def2-SVPD
 There are 42 shells and 98 basis functions
 A cutoff of  1.0D-14 yielded    893 shell pairs
 There are      4937 function pairs (      5574 Cartesian)
 Smallest overlap matrix eigenvalue = 6.09E-04
 Guess MOs from SCF MO coefficient file

 -----------------------------------------------------------------------
  General SCF calculation program by
  Eric Jon Sundstrom, Paul Horn, Yuezhi Mao, Dmitri Zuev, Alec White,
  David Stuck, Shaama M.S., Shane Yost, Joonho Lee, David Small,
  Daniel Levine, Susi Lehtola, Hugh Burton, Evgeny Epifanovsky,
  Bang C. Huynh
 -----------------------------------------------------------------------
 Exchange:     0.1670 Hartree-Fock + 1.0000 wB97X-V + LR-HF
 Correlation:  1.0000 wB97X-V
 Using SG-3 standard quadrature grid
 Nonlocal Correlation:  VV10 with C = 0.0100 and b = 6.00 and scale = 1.00000
 Grid used for NLC:  SG-1 standard quadrature
 
 Citation of the SMD model:
 Marenich, A.V.; Cramer, C.J.; Truhlar, D.G.
 J. Phys. Chem. B 2009, 113, 6378-6396.
 iSolventCode=           0
 Solvent: other                                                           
 
 vradii
            1           2           3           4           5           6
    1   1.8500000   2.2940000   1.2000000   2.2940000   2.1476001   2.1476001
 using 40 threads for integral computing
 -------------------------------------------------------
 OpenMP Integral computing Module                
 Release: version 1.0, May 2013, Q-Chem Inc. Pittsburgh 
 -------------------------------------------------------
 using 40 threads for integral computing
 -------------------------------------------------------
 OpenMP Integral computing Module                
 Release: version 1.0, May 2013, Q-Chem Inc. Pittsburgh 
 -------------------------------------------------------
 -------------------------------------------------------
 OpenMP BLAS3 based DFT computing Module                
 Release: version 1.0, May 2013, Q-Chem Inc. Pittsburgh 
 -------------------------------------------------------
 -------------------------------------------------------
 OpenMP BLAS3 based DFT computing Module                
 Release: version 1.0, May 2013, Q-Chem Inc. Pittsburgh 
 -------------------------------------------------------
 -------------------------------------------------------
 OpenMP BLAS3 based DFT computing Module                
 Release: version 1.0, May 2013, Q-Chem Inc. Pittsburgh 
 -------------------------------------------------------
 A unrestricted SCF calculation will be
 performed using Roothaan-Hall, DIIS
 SCF converges when DIIS error is below 1.0e-08
 ---------------------------------------
  Cycle       Energy         DIIS error
 ---------------------------------------
    1    -203.7028700517      3.28e-04  Roothaan Step
 ---------------------------------------
  Cycle       Energy         DIIS error
 ---------------------------------------
    1    -203.9699421714      3.64e-04  
    2    -203.9703666542      4.45e-04  
    3    -203.9710861697      6.81e-05  
    4    -203.9711349662      4.22e-05  
    5    -203.9711469850      2.26e-05  
    6    -203.9711525196      6.04e-06  
    7    -203.9711541309      2.68e-06  
    8    -203.9711545316      1.40e-06  
    9    -203.9711546461      7.04e-07  
   10    -203.9711546794      2.95e-07  
   11    -203.9711546854      9.41e-08  
   12    -203.9711546858      3.86e-08  
   13    -203.9711546859      1.70e-08  
   14    -203.9711546859      6.75e-09  Convergence criterion met
 ---------------------------------------
 SCF time:   CPU 358.26s  wall 12.00s 
<S^2> =          0.753628064
(3)  G-ENP(liq) elect-nuc-pol free energy of system     -203.971154686 a.u.
(4)  G-CDS(liq) cavity-dispersion-solvent structure 
     free energy                                               -0.2282 kcal/mol
(6)  G-S(liq) free energy of system                     -203.971518346 a.u.
 SCF   energy in the final basis set =     -203.9711546859
 Total energy in the final basis set =     -203.9715183463
 
 --------------------------------------------------------------
 
                    Orbital Energies (a.u.)
 --------------------------------------------------------------
 
 Alpha MOs
 -- Occupied --
-19.2799 -19.0627 -10.3824  -2.0421  -2.0313  -1.2178  -0.8450  -0.7187
 -0.6078  -0.5509  -0.5375  -0.3237  -0.3000  -0.2740  -0.2684
 -- Virtual --
  0.0265   0.0383   0.0556   0.0615   0.0678   0.0791   0.0853   0.0874
  0.1102   0.1213   0.1303   0.1515   0.1670   0.2003   0.2022   0.2130
  0.2212   0.2304   0.2476   0.2544   0.2740   0.2848   0.3079   0.3172
  0.3287   0.3406   0.3862   0.4040   0.4106   0.4457   0.4585   0.4695
  0.4946   0.5287   0.5386   0.5880   0.6158   0.6350   0.6420   0.6535
  0.6793   0.6907   0.7046   0.7064   0.7454   0.7489   0.7987   0.8218
  0.8640   0.9042   0.9302   0.9601   0.9765   1.0058   1.0452   1.0950
  1.1824   1.4037   1.4569   1.5227   1.5540   1.6180   1.6468   1.7128
  1.7243   1.7396   1.8711   1.9823   1.9992   2.0993   2.2249   2.6321
  2.7971   2.9364   2.9998   3.1043   3.1082   3.1237   3.1509   3.1705
  3.2750   3.4671   3.8208
 
 Beta MOs
 -- Occupied --
-19.2724 -19.0617 -10.3748  -2.0421  -2.0310  -1.2016  -0.8419  -0.6899
 -0.5826  -0.5289  -0.4951  -0.3017  -0.2726  -0.2675
 -- Virtual --
  0.0064   0.0281   0.0431   0.0615   0.0621   0.0717   0.0798   0.0865
  0.0939   0.1121   0.1225   0.1332   0.1539   0.1702   0.2008   0.2034
  0.2136   0.2217   0.2350   0.2510   0.2561   0.2759   0.2911   0.3095
  0.3192   0.3364   0.3437   0.3892   0.4061   0.4148   0.4503   0.4603
  0.4758   0.4997   0.5309   0.5452   0.5951   0.6204   0.6359   0.6447
  0.6556   0.6808   0.6938   0.7093   0.7113   0.7465   0.7507   0.8031
  0.8275   0.8715   0.9052   0.9315   0.9625   0.9804   1.0229   1.0551
  1.1041   1.1898   1.4055   1.4619   1.5310   1.5608   1.6394   1.6655
  1.7144   1.7336   1.7604   1.8798   2.0035   2.0201   2.1227   2.2419
  2.6568   2.8190   2.9586   3.0209   3.1064   3.1097   3.1259   3.1537
  3.1741   3.2831   3.4944   3.8334
 --------------------------------------------------------------
 
          Ground-State Mulliken Net Atomic Charges

     Atom                 Charge (a.u.)    Spin (a.u.)
  --------------------------------------------------------
      1 C                     0.284290       0.505773
      2 O                    -0.345178       0.274992
      3 H                    -0.009352       0.163836
      4 O                    -1.730591       0.021979
      5 Li                    0.914971      -0.000710
      6 Li                    0.885860       0.034129
  --------------------------------------------------------
  Sum of atomic charges =    -0.000000
  Sum of spin   charges =     1.000000

  Building new vdw surfaces
         Merz-Kollman RESP Net Atomic Charges

     Atom                 Charge (a.u.)
  ----------------------------------------
      1 C                     0.022417
      2 O                    -0.260983
      3 H                     0.232132
      4 O                    -1.719931
      5 Li                    0.910684
      6 Li                    0.815682
  ----------------------------------------
  Sum of atomic charges =     0.000000

  Related Dipole Moment =     1.4044 (X  1.1178 Y  0.8502 Z  0.0038)

 -----------------------------------------------------------------
                    Cartesian Multipole Moments
 -----------------------------------------------------------------
    Charge (ESU x 10^10)
                -0.0000
    Dipole Moment (Debye)
         X       1.1549      Y       0.8004      Z       0.0372
       Tot       1.4057
    Quadrupole Moments (Debye-Ang)
        XX     -25.6832     XY      12.6224     YY      -9.1469
        XZ       8.6561     YZ       2.5681     ZZ     -19.7506
    Octopole Moments (Debye-Ang^2)
       XXX       3.4692    XXY      -8.0185    XYY      14.4196
       YYY      59.7252    XXZ      -7.8915    XYZ      -2.0250
       YYZ      21.2198    XZZ      -0.8965    YZZ       4.0119
       ZZZ       5.0250
    Hexadecapole Moments (Debye-Ang^3)
      XXXX    -172.9400   XXXY     105.2745   XXYY     -99.9370
      XYYY      97.5973   YYYY    -128.6624   XXXZ      36.9478
      XXYZ      -9.9509   XYYZ       8.6626   YYYZ      11.8873
      XXZZ     -33.7310   XYZZ      29.8136   YYZZ     -49.1150
      XZZZ      22.5129   YZZZ     -21.4853   ZZZZ     -55.3882
 -----------------------------------------------------------------
 Calculating analytic gradient of the SCF energy
 Gradient of CDS energy
            1           2           3           4           5           6
    1   0.0003229   0.0000873  -0.0000927   0.0002562  -0.0003545  -0.0002192
    2  -0.0009728   0.0001589   0.0001912  -0.0001358   0.0000884   0.0006701
    3   0.0009274  -0.0004059  -0.0003285  -0.0000803  -0.0000550  -0.0000577
 Gradient of SCF Energy
            1           2           3           4           5           6
    1   0.0065656  -0.0031647   0.0012937  -0.0129747   0.0116176  -0.0033376
    2  -0.0043903   0.0001234  -0.0011404   0.0026208   0.0119409  -0.0091545
    3  -0.0028176   0.0015738   0.0023871   0.0037073   0.0036489  -0.0084995
 Max gradient component =       1.297E-02
 RMS gradient           =       6.405E-03
 Computing fast CPCM-SWIG gradient
 Updating gradient with PCM contributions...
 -- total gradient after adding PCM contribution --
---------------------------------------------------
  Atom         X              Y              Z     
---------------------------------------------------
   1       0.006893      -0.004059       0.000498
   2      -0.003731      -0.000066       0.001831
   3       0.000217      -0.000228      -0.001458
   4      -0.004956       0.001154       0.001757
   5       0.004430       0.005985       0.001789
   6      -0.002853      -0.002786      -0.004418
---------------------------------------------------
 Number of fixed atoms: 0
 Gradient time:  CPU 51.40 s  wall 1.79 s
 ----------------------------------------------------------------
             Standard Nuclear Orientation (Angstroms)
    I     Atom           X                Y                Z
 ----------------------------------------------------------------
    1      C       0.3191300000    -1.3623000000     0.0128700000
    2      O       1.2852600000    -1.4554200000    -0.6606500000
    3      H       0.2921000000    -1.3964700000     1.1311400000
    4      O      -1.0993600000     1.1729700000     0.1536300000
    5      Li     -0.0891800000     2.4722900000     0.5674400000
    6      Li     -1.6138800000    -0.1007900000    -0.8422700000
 ----------------------------------------------------------------
 Nuclear Repulsion Energy =          76.35210476 hartrees
 There are       15 alpha and       14 beta electrons
 Discretize the solute cavity surface with Lebedev spheres
	Using 110 Lebedev grid points for each H atom
	Using 194 Lebedev grid points for other atoms
	Atomic van der Waals radii will be scaled by 1.20
 Remove points where switching function is < 1.0e-08
 Keep 639 surface tesserae and discard 441 interior tesserae
 Molecular Surface Area = 153.201 Angst**2

                       Distance Matrix (Angstroms)
             C (  1)   O (  2)   H (  3)   O (  4)   Li(  5)
   O (  2)  1.181401
   H (  3)  1.119118  2.049476
   O (  4)  2.908526  3.641140  3.081186
   Li(  5)  3.895940  4.338686  3.928159  1.697037
   Li(  6)  2.461544  3.205155  3.034122  1.696765  3.306468
 
 Requested basis set is def2-SVPD
 There are 42 shells and 98 basis functions
 A cutoff of  1.0D-14 yielded    893 shell pairs
 There are      4937 function pairs (      5574 Cartesian)
 Smallest overlap matrix eigenvalue = 6.10E-04
 Guess MOs from SCF MO coefficient file

 -----------------------------------------------------------------------
  General SCF calculation program by
  Eric Jon Sundstrom, Paul Horn, Yuezhi Mao, Dmitri Zuev, Alec White,
  David Stuck, Shaama M.S., Shane Yost, Joonho Lee, David Small,
  Daniel Levine, Susi Lehtola, Hugh Burton, Evgeny Epifanovsky,
  Bang C. Huynh
 -----------------------------------------------------------------------
 Exchange:     0.1670 Hartree-Fock + 1.0000 wB97X-V + LR-HF
 Correlation:  1.0000 wB97X-V
 Using SG-3 standard quadrature grid
 Nonlocal Correlation:  VV10 with C = 0.0100 and b = 6.00 and scale = 1.00000
 Grid used for NLC:  SG-1 standard quadrature
 
 Citation of the SMD model:
 Marenich, A.V.; Cramer, C.J.; Truhlar, D.G.
 J. Phys. Chem. B 2009, 113, 6378-6396.
 iSolventCode=           0
 Solvent: other                                                           
 
 vradii
            1           2           3           4           5           6
    1   1.8500000   2.2940000   1.2000000   2.2940000   2.1476001   2.1476001
 using 40 threads for integral computing
 -------------------------------------------------------
 OpenMP Integral computing Module                
 Release: version 1.0, May 2013, Q-Chem Inc. Pittsburgh 
 -------------------------------------------------------
 using 40 threads for integral computing
 -------------------------------------------------------
 OpenMP Integral computing Module                
 Release: version 1.0, May 2013, Q-Chem Inc. Pittsburgh 
 -------------------------------------------------------
 -------------------------------------------------------
 OpenMP BLAS3 based DFT computing Module                
 Release: version 1.0, May 2013, Q-Chem Inc. Pittsburgh 
 -------------------------------------------------------
 -------------------------------------------------------
 OpenMP BLAS3 based DFT computing Module                
 Release: version 1.0, May 2013, Q-Chem Inc. Pittsburgh 
 -------------------------------------------------------
 -------------------------------------------------------
 OpenMP BLAS3 based DFT computing Module                
 Release: version 1.0, May 2013, Q-Chem Inc. Pittsburgh 
 -------------------------------------------------------
 A unrestricted SCF calculation will be
 performed using Roothaan-Hall, DIIS
 SCF converges when DIIS error is below 1.0e-08
 ---------------------------------------
  Cycle       Energy         DIIS error
 ---------------------------------------
    1    -203.7029085492      3.28e-04  Roothaan Step
 ---------------------------------------
  Cycle       Energy         DIIS error
 ---------------------------------------
    1    -203.9699270203      3.65e-04  
    2    -203.9703501427      4.47e-04  
    3    -203.9710746949      6.79e-05  
    4    -203.9711233740      4.24e-05  
    5    -203.9711353755      2.25e-05  
    6    -203.9711408200      5.89e-06  
    7    -203.9711423318      2.50e-06  
    8    -203.9711426758      1.27e-06  
    9    -203.9711427654      6.33e-07  
   10    -203.9711427917      2.73e-07  
   11    -203.9711427966      8.79e-08  
   12    -203.9711427970      3.44e-08  
   13    -203.9711427970      1.51e-08  
   14    -203.9711427970      6.12e-09  Convergence criterion met
 ---------------------------------------
 SCF time:   CPU 376.98s  wall 12.00s 
<S^2> =          0.753616364
(3)  G-ENP(liq) elect-nuc-pol free energy of system     -203.971142797 a.u.
(4)  G-CDS(liq) cavity-dispersion-solvent structure 
     free energy                                               -0.2259 kcal/mol
(6)  G-S(liq) free energy of system                     -203.971502775 a.u.
 SCF   energy in the final basis set =     -203.9711427970
 Total energy in the final basis set =     -203.9715027754
 
 --------------------------------------------------------------
 
                    Orbital Energies (a.u.)
 --------------------------------------------------------------
 
 Alpha MOs
 -- Occupied --
-19.2800 -19.0626 -10.3824  -2.0421  -2.0313  -1.2180  -0.8449  -0.7187
 -0.6079  -0.5510  -0.5376  -0.3237  -0.3000  -0.2740  -0.2684
 -- Virtual --
  0.0265   0.0383   0.0555   0.0615   0.0678   0.0791   0.0853   0.0874
  0.1103   0.1213   0.1303   0.1516   0.1670   0.2003   0.2022   0.2130
  0.2212   0.2304   0.2477   0.2544   0.2740   0.2847   0.3080   0.3173
  0.3287   0.3405   0.3861   0.4040   0.4105   0.4457   0.4584   0.4695
  0.4947   0.5286   0.5386   0.5880   0.6156   0.6349   0.6418   0.6535
  0.6793   0.6907   0.7044   0.7063   0.7452   0.7488   0.7987   0.8217
  0.8640   0.9042   0.9301   0.9600   0.9764   1.0058   1.0453   1.0948
  1.1823   1.4037   1.4565   1.5225   1.5539   1.6179   1.6468   1.7128
  1.7242   1.7393   1.8708   1.9823   1.9993   2.0989   2.2250   2.6325
  2.7969   2.9363   2.9997   3.1043   3.1082   3.1237   3.1509   3.1705
  3.2751   3.4674   3.8209
 
 Beta MOs
 -- Occupied --
-19.2725 -19.0617 -10.3749  -2.0421  -2.0310  -1.2017  -0.8419  -0.6899
 -0.5827  -0.5290  -0.4952  -0.3017  -0.2726  -0.2675
 -- Virtual --
  0.0064   0.0281   0.0432   0.0614   0.0621   0.0717   0.0798   0.0865
  0.0939   0.1121   0.1225   0.1332   0.1540   0.1702   0.2008   0.2034
  0.2137   0.2217   0.2350   0.2510   0.2561   0.2759   0.2910   0.3095
  0.3193   0.3364   0.3436   0.3892   0.4060   0.4147   0.4502   0.4602
  0.4758   0.4997   0.5307   0.5452   0.5951   0.6202   0.6359   0.6445
  0.6556   0.6808   0.6938   0.7091   0.7112   0.7463   0.7506   0.8031
  0.8275   0.8715   0.9052   0.9315   0.9624   0.9802   1.0229   1.0551
  1.1038   1.1897   1.4055   1.4615   1.5308   1.5607   1.6392   1.6656
  1.7144   1.7335   1.7601   1.8794   2.0034   2.0202   2.1223   2.2420
  2.6573   2.8188   2.9586   3.0208   3.1064   3.1097   3.1259   3.1537
  3.1740   3.2833   3.4947   3.8336
 --------------------------------------------------------------
 
          Ground-State Mulliken Net Atomic Charges

     Atom                 Charge (a.u.)    Spin (a.u.)
  --------------------------------------------------------
      1 C                     0.284456       0.505993
      2 O                    -0.344873       0.275056
      3 H                    -0.009303       0.163971
      4 O                    -1.731147       0.021604
      5 Li                    0.914928      -0.000705
      6 Li                    0.885940       0.034082
  --------------------------------------------------------
  Sum of atomic charges =    -0.000000
  Sum of spin   charges =     1.000000

  Building new vdw surfaces
         Merz-Kollman RESP Net Atomic Charges

     Atom                 Charge (a.u.)
  ----------------------------------------
      1 C                     0.021780
      2 O                    -0.260405
      3 H                     0.232454
      4 O                    -1.720233
      5 Li                    0.910644
      6 Li                    0.815760
  ----------------------------------------
  Sum of atomic charges =     0.000000

  Related Dipole Moment =     1.4050 (X  1.1219 Y  0.8458 Z  0.0030)

 -----------------------------------------------------------------
                    Cartesian Multipole Moments
 -----------------------------------------------------------------
    Charge (ESU x 10^10)
                 0.0000
    Dipole Moment (Debye)
         X       1.1591      Y       0.7958      Z       0.0364
       Tot       1.4065
    Quadrupole Moments (Debye-Ang)
        XX     -25.6851     XY      12.6178     YY      -9.1455
        XZ       8.6555     YZ       2.5672     ZZ     -19.7497
    Octopole Moments (Debye-Ang^2)
       XXX       3.4865    XXY      -8.0186    XYY      14.4431
       YYY      59.7356    XXZ      -7.8937    XYZ      -2.0234
       YYZ      21.2220    XZZ      -0.8920    YZZ       4.0181
       ZZZ       5.0233
    Hexadecapole Moments (Debye-Ang^3)
      XXXX    -172.9582   XXXY     105.2834   XXYY     -99.9694
      XYYY      97.5791   YYYY    -128.8323   XXXZ      36.9463
      XXYZ      -9.9503   XYYZ       8.6609   YYYZ      11.8791
      XXZZ     -33.7327   XYZZ      29.8165   YYZZ     -49.1475
      XZZZ      22.5116   YZZZ     -21.4865   ZZZZ     -55.3878
 -----------------------------------------------------------------
 Calculating analytic gradient of the SCF energy
 Gradient of CDS energy
            1           2           3           4           5           6
    1   0.0003242   0.0000854  -0.0000941   0.0002562  -0.0003540  -0.0002177
    2  -0.0009756   0.0001611   0.0001932  -0.0001366   0.0000877   0.0006702
    3   0.0009273  -0.0004065  -0.0003284  -0.0000792  -0.0000551  -0.0000581
 Gradient of SCF Energy
            1           2           3           4           5           6
    1   0.0067333  -0.0033474   0.0012818  -0.0129684   0.0116245  -0.0033238
    2  -0.0045193   0.0001918  -0.0010895   0.0026307   0.0119455  -0.0091592
    3  -0.0029041   0.0016883   0.0023520   0.0037142   0.0036499  -0.0085003
 Max gradient component =       1.297E-02
 RMS gradient           =       6.429E-03
 Computing fast CPCM-SWIG gradient
 Updating gradient with PCM contributions...
 -- total gradient after adding PCM contribution --
---------------------------------------------------
  Atom         X              Y              Z     
---------------------------------------------------
   1       0.007067      -0.004179       0.000407
   2      -0.003920       0.000003       0.001954
   3       0.000206      -0.000182      -0.001497
   4      -0.004947       0.001159       0.001762
   5       0.004435       0.005989       0.001791
   6      -0.002841      -0.002790      -0.004417
---------------------------------------------------
 Number of fixed atoms: 0
 Gradient time:  CPU 49.52 s  wall 1.77 s
 ----------------------------------------------------------------
             Standard Nuclear Orientation (Angstroms)
    I     Atom           X                Y                Z
 ----------------------------------------------------------------
    1      C       0.3191300000    -1.3613000000     0.0138700000
    2      O       1.2852600000    -1.4554200000    -0.6606500000
    3      H       0.2921000000    -1.3964700000     1.1311400000
    4      O      -1.0993600000     1.1729700000     0.1536300000
    5      Li     -0.0891800000     2.4722900000     0.5674400000
    6      Li     -1.6138800000    -0.1007900000    -0.8422700000
 ----------------------------------------------------------------
 Nuclear Repulsion Energy =          76.34647495 hartrees
 There are       15 alpha and       14 beta electrons
 Discretize the solute cavity surface with Lebedev spheres
	Using 110 Lebedev grid points for each H atom
	Using 194 Lebedev grid points for other atoms
	Atomic van der Waals radii will be scaled by 1.20
 Remove points where switching function is < 1.0e-08
 Keep 639 surface tesserae and discard 441 interior tesserae
 Molecular Surface Area = 153.195 Angst**2

                       Distance Matrix (Angstroms)
             C (  1)   O (  2)   H (  3)   O (  4)   Li(  5)
   O (  2)  1.182050
   H (  3)  1.118150  2.049476
   O (  4)  2.907606  3.641140  3.081186
   Li(  5)  3.894813  4.338686  3.928159  1.697037
   Li(  6)  2.461379  3.205155  3.034122  1.696765  3.306468
 
 Requested basis set is def2-SVPD
 There are 42 shells and 98 basis functions
 A cutoff of  1.0D-14 yielded    893 shell pairs
 There are      4937 function pairs (      5574 Cartesian)
 Smallest overlap matrix eigenvalue = 6.09E-04
 Guess MOs from SCF MO coefficient file

 -----------------------------------------------------------------------
  General SCF calculation program by
  Eric Jon Sundstrom, Paul Horn, Yuezhi Mao, Dmitri Zuev, Alec White,
  David Stuck, Shaama M.S., Shane Yost, Joonho Lee, David Small,
  Daniel Levine, Susi Lehtola, Hugh Burton, Evgeny Epifanovsky,
  Bang C. Huynh
 -----------------------------------------------------------------------
 Exchange:     0.1670 Hartree-Fock + 1.0000 wB97X-V + LR-HF
 Correlation:  1.0000 wB97X-V
 Using SG-3 standard quadrature grid
 Nonlocal Correlation:  VV10 with C = 0.0100 and b = 6.00 and scale = 1.00000
 Grid used for NLC:  SG-1 standard quadrature
 
 Citation of the SMD model:
 Marenich, A.V.; Cramer, C.J.; Truhlar, D.G.
 J. Phys. Chem. B 2009, 113, 6378-6396.
 iSolventCode=           0
 Solvent: other                                                           
 
 vradii
            1           2           3           4           5           6
    1   1.8500000   2.2940000   1.2000000   2.2940000   2.1476001   2.1476001
 using 40 threads for integral computing
 -------------------------------------------------------
 OpenMP Integral computing Module                
 Release: version 1.0, May 2013, Q-Chem Inc. Pittsburgh 
 -------------------------------------------------------
 using 40 threads for integral computing
 -------------------------------------------------------
 OpenMP Integral computing Module                
 Release: version 1.0, May 2013, Q-Chem Inc. Pittsburgh 
 -------------------------------------------------------
 -------------------------------------------------------
 OpenMP BLAS3 based DFT computing Module                
 Release: version 1.0, May 2013, Q-Chem Inc. Pittsburgh 
 -------------------------------------------------------
 -------------------------------------------------------
 OpenMP BLAS3 based DFT computing Module                
 Release: version 1.0, May 2013, Q-Chem Inc. Pittsburgh 
 -------------------------------------------------------
 -------------------------------------------------------
 OpenMP BLAS3 based DFT computing Module                
 Release: version 1.0, May 2013, Q-Chem Inc. Pittsburgh 
 -------------------------------------------------------
 A unrestricted SCF calculation will be
 performed using Roothaan-Hall, DIIS
 SCF converges when DIIS error is below 1.0e-08
 ---------------------------------------
  Cycle       Energy         DIIS error
 ---------------------------------------
    1    -203.7028979187      3.28e-04  Roothaan Step
 ---------------------------------------
  Cycle       Energy         DIIS error
 ---------------------------------------
    1    -203.9699303838      3.66e-04  
    2    -203.9703515852      4.48e-04  
    3    -203.9710806917      6.77e-05  
    4    -203.9711290940      4.25e-05  
    5    -203.9711410773      2.26e-05  
    6    -203.9711465420      5.92e-06  
    7    -203.9711480912      2.59e-06  
    8    -203.9711484706      1.33e-06  
    9    -203.9711485724      6.83e-07  
   10    -203.9711486035      2.92e-07  
   11    -203.9711486094      9.35e-08  
   12    -203.9711486098      3.81e-08  
   13    -203.9711486099      1.68e-08  
   14    -203.9711486099      6.68e-09  Convergence criterion met
 ---------------------------------------
 SCF time:   CPU 361.87s  wall 11.00s 
<S^2> =          0.753623544
(3)  G-ENP(liq) elect-nuc-pol free energy of system     -203.971148610 a.u.
(4)  G-CDS(liq) cavity-dispersion-solvent structure 
     free energy                                               -0.2259 kcal/mol
(6)  G-S(liq) free energy of system                     -203.971508671 a.u.
 SCF   energy in the final basis set =     -203.9711486099
 Total energy in the final basis set =     -203.9715086715
 
 --------------------------------------------------------------
 
                    Orbital Energies (a.u.)
 --------------------------------------------------------------
 
 Alpha MOs
 -- Occupied --
-19.2799 -19.0627 -10.3824  -2.0421  -2.0313  -1.2176  -0.8450  -0.7189
 -0.6078  -0.5508  -0.5373  -0.3237  -0.3001  -0.2740  -0.2684
 -- Virtual --
  0.0265   0.0383   0.0555   0.0615   0.0678   0.0791   0.0853   0.0873
  0.1102   0.1213   0.1303   0.1516   0.1671   0.2003   0.2022   0.2130
  0.2212   0.2304   0.2476   0.2544   0.2740   0.2848   0.3080   0.3173
  0.3287   0.3406   0.3861   0.4040   0.4105   0.4458   0.4585   0.4695
  0.4947   0.5285   0.5385   0.5879   0.6157   0.6349   0.6419   0.6535
  0.6794   0.6907   0.7045   0.7064   0.7454   0.7489   0.7987   0.8218
  0.8640   0.9042   0.9301   0.9600   0.9766   1.0060   1.0447   1.0948
  1.1824   1.4037   1.4567   1.5227   1.5537   1.6179   1.6467   1.7128
  1.7242   1.7394   1.8711   1.9835   1.9992   2.0989   2.2257   2.6323
  2.7976   2.9364   2.9998   3.1043   3.1082   3.1237   3.1509   3.1705
  3.2745   3.4674   3.8202
 
 Beta MOs
 -- Occupied --
-19.2724 -19.0617 -10.3749  -2.0421  -2.0310  -1.2013  -0.8419  -0.6901
 -0.5826  -0.5287  -0.4950  -0.3017  -0.2726  -0.2675
 -- Virtual --
  0.0064   0.0281   0.0432   0.0614   0.0621   0.0717   0.0798   0.0865
  0.0939   0.1121   0.1225   0.1332   0.1540   0.1702   0.2008   0.2034
  0.2136   0.2217   0.2350   0.2510   0.2561   0.2759   0.2911   0.3095
  0.3193   0.3364   0.3437   0.3891   0.4061   0.4147   0.4503   0.4603
  0.4758   0.4998   0.5307   0.5450   0.5951   0.6203   0.6359   0.6446
  0.6556   0.6809   0.6938   0.7092   0.7113   0.7464   0.7507   0.8031
  0.8276   0.8715   0.9052   0.9315   0.9624   0.9804   1.0231   1.0546
  1.1038   1.1898   1.4054   1.4617   1.5309   1.5606   1.6392   1.6654
  1.7144   1.7336   1.7601   1.8798   2.0046   2.0201   2.1223   2.2427
  2.6571   2.8194   2.9586   3.0208   3.1064   3.1097   3.1259   3.1536
  3.1740   3.2827   3.4947   3.8328
 --------------------------------------------------------------
 
          Ground-State Mulliken Net Atomic Charges

     Atom                 Charge (a.u.)    Spin (a.u.)
  --------------------------------------------------------
      1 C                     0.287433       0.506458
      2 O                    -0.346004       0.275004
      3 H                    -0.011509       0.163315
      4 O                    -1.730794       0.021872
      5 Li                    0.914969      -0.000714
      6 Li                    0.885905       0.034065
  --------------------------------------------------------
  Sum of atomic charges =    -0.000000
  Sum of spin   charges =     1.000000

  Building new vdw surfaces
         Merz-Kollman RESP Net Atomic Charges

     Atom                 Charge (a.u.)
  ----------------------------------------
      1 C                     0.021929
      2 O                    -0.261110
      3 H                     0.232671
      4 O                    -1.719984
      5 Li                    0.910688
      6 Li                    0.815805
  ----------------------------------------
  Sum of atomic charges =     0.000000

  Related Dipole Moment =     1.4033 (X  1.1164 Y  0.8503 Z  0.0066)

 -----------------------------------------------------------------
                    Cartesian Multipole Moments
 -----------------------------------------------------------------
    Charge (ESU x 10^10)
                -0.0000
    Dipole Moment (Debye)
         X       1.1536      Y       0.8005      Z       0.0399
       Tot       1.4047
    Quadrupole Moments (Debye-Ang)
        XX     -25.6857     XY      12.6222     YY      -9.1464
        XZ       8.6582     YZ       2.5629     ZZ     -19.7487
    Octopole Moments (Debye-Ang^2)
       XXX       3.4641    XXY      -8.0100    XYY      14.4204
       YYY      59.7447    XXZ      -7.8960    XYZ      -2.0272
       YYZ      21.2250    XZZ      -0.8978    YZZ       4.0157
       ZZZ       5.0164
    Hexadecapole Moments (Debye-Ang^3)
      XXXX    -172.9545   XXXY     105.2841   XXYY     -99.9570
      XYYY      97.5965   YYYY    -128.7487   XXXZ      36.9470
      XXYZ      -9.9466   XYYZ       8.6667   YYYZ      11.8814
      XXZZ     -33.7298   XYZZ      29.8168   YYZZ     -49.1267
      XZZZ      22.5133   YZZZ     -21.4769   ZZZZ     -55.3765
 -----------------------------------------------------------------
 Calculating analytic gradient of the SCF energy
 Gradient of CDS energy
            1           2           3           4           5           6
    1   0.0003212   0.0000870  -0.0000927   0.0002560  -0.0003543  -0.0002173
    2  -0.0009742   0.0001608   0.0001910  -0.0001357   0.0000882   0.0006698
    3   0.0009344  -0.0004089  -0.0003314  -0.0000802  -0.0000552  -0.0000586
 Gradient of SCF Energy
            1           2           3           4           5           6
    1   0.0058916  -0.0024447   0.0012467  -0.0129726   0.0116165  -0.0033375
    2  -0.0044197   0.0000825  -0.0010936   0.0026405   0.0119418  -0.0091516
    3  -0.0017084   0.0010012   0.0018522   0.0037001   0.0036502  -0.0084954
 Max gradient component =       1.297E-02
 RMS gradient           =       6.312E-03
 Computing fast CPCM-SWIG gradient
 Updating gradient with PCM contributions...
 -- total gradient after adding PCM contribution --
---------------------------------------------------
  Atom         X              Y              Z     
---------------------------------------------------
   1       0.006220      -0.004074       0.001607
   2      -0.003013      -0.000108       0.001264
   3       0.000171      -0.000193      -0.001997
   4      -0.004957       0.001173       0.001754
   5       0.004430       0.005985       0.001789
   6      -0.002850      -0.002785      -0.004416
---------------------------------------------------
 Number of fixed atoms: 0
 Gradient time:  CPU 42.01 s  wall 1.46 s
 ----------------------------------------------------------------
             Standard Nuclear Orientation (Angstroms)
    I     Atom           X                Y                Z
 ----------------------------------------------------------------
    1      C       0.3191300000    -1.3613000000     0.0118700000
    2      O       1.2852600000    -1.4554200000    -0.6606500000
    3      H       0.2921000000    -1.3964700000     1.1311400000
    4      O      -1.0993600000     1.1729700000     0.1536300000
    5      Li     -0.0891800000     2.4722900000     0.5674400000
    6      Li     -1.6138800000    -0.1007900000    -0.8422700000
 ----------------------------------------------------------------
 Nuclear Repulsion Energy =          76.36277863 hartrees
 There are       15 alpha and       14 beta electrons
 Discretize the solute cavity surface with Lebedev spheres
	Using 110 Lebedev grid points for each H atom
	Using 194 Lebedev grid points for other atoms
	Atomic van der Waals radii will be scaled by 1.20
 Remove points where switching function is < 1.0e-08
 Keep 639 surface tesserae and discard 441 interior tesserae
 Molecular Surface Area = 153.200 Angst**2

                       Distance Matrix (Angstroms)
             C (  1)   O (  2)   H (  3)   O (  4)   Li(  5)
   O (  2)  1.180910
   H (  3)  1.120149  2.049476
   O (  4)  2.907703  3.641140  3.081186
   Li(  5)  3.895098  4.338686  3.928159  1.697037
   Li(  6)  2.460685  3.205155  3.034122  1.696765  3.306468
 
 Requested basis set is def2-SVPD
 There are 42 shells and 98 basis functions
 A cutoff of  1.0D-14 yielded    893 shell pairs
 There are      4937 function pairs (      5574 Cartesian)
 Smallest overlap matrix eigenvalue = 6.10E-04
 Guess MOs from SCF MO coefficient file

 -----------------------------------------------------------------------
  General SCF calculation program by
  Eric Jon Sundstrom, Paul Horn, Yuezhi Mao, Dmitri Zuev, Alec White,
  David Stuck, Shaama M.S., Shane Yost, Joonho Lee, David Small,
  Daniel Levine, Susi Lehtola, Hugh Burton, Evgeny Epifanovsky,
  Bang C. Huynh
 -----------------------------------------------------------------------
 Exchange:     0.1670 Hartree-Fock + 1.0000 wB97X-V + LR-HF
 Correlation:  1.0000 wB97X-V
 Using SG-3 standard quadrature grid
 Nonlocal Correlation:  VV10 with C = 0.0100 and b = 6.00 and scale = 1.00000
 Grid used for NLC:  SG-1 standard quadrature
 
 Citation of the SMD model:
 Marenich, A.V.; Cramer, C.J.; Truhlar, D.G.
 J. Phys. Chem. B 2009, 113, 6378-6396.
 iSolventCode=           0
 Solvent: other                                                           
 
 vradii
            1           2           3           4           5           6
    1   1.8500000   2.2940000   1.2000000   2.2940000   2.1476001   2.1476001
 using 40 threads for integral computing
 -------------------------------------------------------
 OpenMP Integral computing Module                
 Release: version 1.0, May 2013, Q-Chem Inc. Pittsburgh 
 -------------------------------------------------------
 using 40 threads for integral computing
 -------------------------------------------------------
 OpenMP Integral computing Module                
 Release: version 1.0, May 2013, Q-Chem Inc. Pittsburgh 
 -------------------------------------------------------
 -------------------------------------------------------
 OpenMP BLAS3 based DFT computing Module                
 Release: version 1.0, May 2013, Q-Chem Inc. Pittsburgh 
 -------------------------------------------------------
 -------------------------------------------------------
 OpenMP BLAS3 based DFT computing Module                
 Release: version 1.0, May 2013, Q-Chem Inc. Pittsburgh 
 -------------------------------------------------------
 -------------------------------------------------------
 OpenMP BLAS3 based DFT computing Module                
 Release: version 1.0, May 2013, Q-Chem Inc. Pittsburgh 
 -------------------------------------------------------
 A unrestricted SCF calculation will be
 performed using Roothaan-Hall, DIIS
 SCF converges when DIIS error is below 1.0e-08
 ---------------------------------------
  Cycle       Energy         DIIS error
 ---------------------------------------
    1    -203.7029628878      3.28e-04  Roothaan Step
 ---------------------------------------
  Cycle       Energy         DIIS error
 ---------------------------------------
    1    -203.9699397966      3.63e-04  
[...]
 ----------------------------------------------------------------
             Standard Nuclear Orientation (Angstroms)
    I     Atom           X                Y                Z
 ----------------------------------------------------------------
    1      C       0.3191300000    -1.3613000000     0.0128700000
    2      O       1.2852600000    -1.4554200000    -0.6606500000
    3      H       0.2921000000    -1.3964700000     1.1311400000
    4      O      -1.0993600000     1.1729700000     0.1536300000
    5      Li     -0.0891800000     2.4722900000     0.5674400000
    6      Li     -1.6138800000    -0.1007900000    -0.8422700000
 ----------------------------------------------------------------
 Nuclear Repulsion Energy =          76.35462552 hartrees
 There are       15 alpha and       14 beta electrons
 old dipole drv.
            1           2           3           4           5           6
    1   0.9591243  -0.4379501  -0.7204306  -1.1707065   0.1717964   0.5972683
    2  -0.8969755   0.4843339   0.4947659   0.6499159  -0.2887759  -0.3986790
    3  -0.4791092   0.0869185   0.6380762   0.5292695  -0.0712959  -0.6465492
            7           8           9          10          11          12
    1   0.1853386   0.0731259   0.0482510  -1.7076264   0.2023845  -0.0174934
    2   0.0891148   0.1618074  -0.0182865   0.1067995  -2.1009031  -0.0977226
    3  -0.1020121   0.0320650  -0.0497093  -0.0418358  -0.0704754  -1.6106803
           13          14          15          16          17          18
    1   0.8190368   0.0007321  -0.0054087   0.9147754  -0.0100679   0.0977865
    2   0.0956387   0.9355548   0.0325830  -0.0445476   0.8079720  -0.0126532
    3   0.0301472   0.0365292   0.8476375   0.0635597  -0.0137417   0.8212401
 New transposed dipole drv.
            1           2           3
    1   0.9591243  -0.8969755  -0.4791092
    2  -0.4379501   0.4843339   0.0869185
    3  -0.7204306   0.4947659   0.6380762
    4  -1.1707065   0.6499159   0.5292695
    5   0.1717964  -0.2887759  -0.0712959
    6   0.5972683  -0.3986790  -0.6465492
    7   0.1853386   0.0891148  -0.1020121
    8   0.0731259   0.1618074   0.0320650
    9   0.0482510  -0.0182865  -0.0497093
   10  -1.7076264   0.1067995  -0.0418358
   11   0.2023845  -2.1009031  -0.0704754
   12  -0.0174934  -0.0977226  -1.6106803
   13   0.8190368   0.0956387   0.0301472
   14   0.0007321   0.9355548   0.0365292
   15  -0.0054087   0.0325830   0.8476375
   16   0.9147754  -0.0445476   0.0635597
   17  -0.0100679   0.8079720  -0.0137417
   18   0.0977865  -0.0126532   0.8212401
FINAL TENSOR RESULT:
Order 2, Length 18
    Atom      X          Y          Z
     1 Order 1, Length 18
    Atom      X          Y          Z
     1    7.182478014918495e-01  -4.606345108836397e-02  -4.032320122951945e-01
     2   -6.748345551131917e-01   6.073450704014945e-02   4.168942219833990e-01
     3   -4.240103350500832e-02  -2.300746374853166e-03  -7.457333513868840e-03
     4    4.001301278208932e-03  -1.569019895099027e-02  -7.583772599502627e-04
     5    2.548712153585351e-03   2.067784780225105e-03   7.563154151797838e-04
     6   -7.561679456178664e-03   1.252222452239001e-03  -6.202279854033788e-03

Order 1, Length 18
    Atom      X          Y          Z
     1   -4.606345108836397e-02   3.178520580613368e-02   2.416017222208314e-02
     2    5.021299623742446e-02  -1.837200000598083e-02  -3.270895487386907e-02
     3    2.921451919693344e-03  -1.215555998190979e-02   1.053431719000173e-02
     4   -2.534610476250528e-03  -1.260113137465652e-03  -1.334363187418812e-03
     5   -1.473135973981374e-03  -1.072226481064368e-03  -3.862546319125162e-04
     6   -3.070159974374537e-03   1.075866151676699e-03  -2.628584643211342e-04

Order 1, Length 18
    Atom      X          Y          Z
     1   -4.032320122951945e-01   2.416017222208314e-02   6.097970784775566e-01
     2    4.309447459564140e-01  -4.046897014583045e-02  -3.328579592527399e-01
     3   -2.164328386197263e-02   6.401451074798972e-03  -2.739570353161580e-01
     4   -2.990498114126021e-03   8.992464388863216e-03  -3.058028681915998e-03
     5   -1.325266325654071e-03  -7.696976872804912e-04  -4.830955038240613e-04
     6   -1.753657586649734e-03   1.684629743479230e-03   5.586649084198275e-04


     2 Order 1, Length 18
    Atom      X          Y          Z
     1   -6.748345551131917e-01   5.021299623742446e-02   4.309447459564140e-01
     2    6.736196310654480e-01  -6.333164652001727e-02  -4.569732072060432e-01
     3    5.639695813317325e-03   2.435546319536251e-03   2.200875141975471e-02
     4   -3.393277156438303e-03   1.189650890005856e-02   1.942022875148060e-04
     5   -1.980492024700298e-03  -1.429734263608613e-03  -5.137769416699584e-04
     6    9.482308936234670e-04   2.163100332810641e-04   4.338625031737199e-03

Order 1, Length 18
    Atom      X          Y          Z
     1    6.073450704014945e-02  -1.837200000598083e-02  -4.046897014583045e-02
     2   -6.333164652001727e-02   1.264699107018417e-02   4.209326062065424e-02
     3   -9.816888610295069e-04   4.070965875557353e-03  -1.906759878872969e-03
     4    8.561750027474880e-04   1.934946445506608e-03  -4.339270027925836e-04
     5    3.872393322283733e-04   3.650555767744044e-04   6.011563501723886e-05
     6    2.337898370219252e-03  -6.464742320918780e-04   6.553758868483493e-04

Order 1, Length 18
    Atom      X          Y          Z
     1    4.168942219833990e-01  -3.270895487386907e-02  -3.328579592527399e-01
     2   -4.569732072060432e-01   4.209326062065424e-02   3.588082513157663e-01
     3    3.737607658203568e-02  -2.662211005294456e-03  -2.535272654044179e-02
     4    2.284375330789701e-03  -7.243545123842194e-03   7.857654484395979e-04
     5    1.147522648683731e-03   8.189887941175884e-04   3.350919906325237e-04
     6   -7.279553463162679e-04  -2.976392002522647e-04  -1.718146427037476e-03


     3 Order 1, Length 18
    Atom      X          Y          Z
     1   -4.240103350500832e-02   2.921451919693344e-03  -2.164328386197263e-02
     2    5.639695813317325e-03  -9.816888610295069e-04   3.737607658203568e-02
     3    3.652506854415805e-02  -2.683540574387369e-03  -1.561400399385564e-02
     4   -1.618320534369759e-05   8.162231500149647e-04   6.590784399736078e-04
     5   -2.154704870821802e-04  -1.728878138934915e-04  -8.542840941901943e-05
     6    4.681921089967119e-04   1.003519781245611e-04  -6.923764613542467e-04

Order 1, Length 18
    Atom      X          Y          Z
     1   -2.300746374853166e-03  -1.215555998190979e-02   6.401451074798972e-03
     2    2.435546319536251e-03   4.070965875557353e-03  -2.662211005294456e-03
     3   -2.683540574387369e-03   7.189701483389859e-03  -6.696170911025121e-03
     4   -5.492635507191399e-04   1.576945614768848e-03   1.616472236584609e-03
     5    2.380998406100344e-04   3.448232499692846e-06   1.132466521555294e-04
     6    2.864429580547419e-03  -6.861477744756640e-04   1.225894903270847e-03

Order 1, Length 18
    Atom      X          Y          Z
     1   -7.457333513868840e-03   1.053431719000173e-02  -2.739570353161580e-01
     2    2.200875141975471e-02  -1.906759878872969e-03  -2.535272654044179e-02
     3   -1.561400399385564e-02  -6.696170911025121e-03   2.991812038167452e-01
     4    8.852138981330364e-04  -1.777945170305687e-03   1.130726131418252e-03
     5    8.832733380490772e-05   9.470449210078949e-05   5.388830731805418e-05
     6    8.811870290180147e-05  -2.480935850458694e-04  -1.056020051837868e-03


     4 Order 1, Length 18
    Atom      X          Y          Z
     1    4.001301278208932e-03  -2.534610476250528e-03  -2.990498114126021e-03
     2   -3.393277156438303e-03   8.561750027474880e-04   2.284375330789701e-03
     3   -1.618320534369759e-05  -5.492635507191399e-04   8.852138981330364e-04
     4    4.967886583030092e-02   7.061179930041600e-02   3.131922176227649e-02
     5   -3.909376068547508e-02  -4.727644173477968e-02  -1.500285109998277e-02
     6   -1.117574203028004e-02  -2.110769787591563e-02  -1.649533303698872e-02

Order 1, Length 18
    Atom      X          Y          Z
     1   -1.569019895099027e-02  -1.260113137465652e-03   8.992464388863216e-03
     2    1.189650890005856e-02   1.934946445506608e-03  -7.243545123842194e-03
     3    8.162231500149647e-04   1.576945614768848e-03  -1.777945170305687e-03
     4    7.061179930041600e-02   1.177537539380070e-01   6.296846305195289e-02
     5   -4.531484954355033e-02  -6.063082215346534e-02  -1.831217746773962e-02
     6   -2.231961352996184e-02  -5.937472390679387e-02  -4.462705359146248e-02

Order 1, Length 18
    Atom      X          Y          Z
     1   -7.583772599502627e-04  -1.334363187418812e-03  -3.058028681915998e-03
     2    1.942022875148060e-04  -4.339270027925836e-04   7.857654484395979e-04
     3    6.590784399736078e-04   1.616472236584609e-03   1.130726131418252e-03
     4    3.131922176227649e-02   6.296846305195289e-02   4.709367526673985e-02
     5   -1.370205065635119e-02  -1.750713635825639e-02  -7.848526004133778e-03
     6   -1.771263424367854e-02  -4.530951397390465e-02  -3.810364404548977e-02


     5 Order 1, Length 18
    Atom      X          Y          Z
     1    2.548712153585351e-03  -1.473135973981374e-03  -1.325266325654071e-03
     2   -1.980492024700298e-03   3.872393322283733e-04   1.147522648683731e-03
     3   -2.154704870821802e-04   2.380998406100344e-04   8.832733380490772e-05
     4   -3.909376068547508e-02  -4.531484954355033e-02  -1.370205065635119e-02
     5    3.934294535429570e-02   4.797315292581873e-02   1.536066001443607e-02
     6   -6.026065733561420e-04  -1.810471229274930e-03  -1.569377633011217e-03

Order 1, Length 18
    Atom      X          Y          Z
     1    2.067784780225105e-03  -1.072226481064368e-03  -7.696976872804912e-04
     2   -1.429734263608613e-03   3.650555767744044e-04   8.189887941175884e-04
     3   -1.728878138934915e-04   3.448232499692846e-06   9.470449210078949e-05
     4   -4.727644173477968e-02  -6.063082215346534e-02  -1.750713635825639e-02
     5    4.797315292581873e-02   6.365302043736362e-02   1.935406585825748e-02
     6   -1.162139148205385e-03  -2.318456721536643e-03  -1.990981906750457e-03

Order 1, Length 18
    Atom      X          Y          Z
     1    7.563154151797838e-04  -3.862546319125162e-04  -4.830955038240613e-04
     2   -5.137769416699584e-04   6.011563501723886e-05   3.350919906325237e-04
     3   -8.542840941901943e-05   1.132466521555294e-04   5.388830731805418e-05
     4   -1.500285109998277e-02  -1.831217746773962e-02  -7.848526004133778e-03
     5    1.536066001443607e-02   1.935406585825748e-02   8.264069581084839e-03
     6   -5.146206707485696e-04  -8.289852519020777e-04  -3.213874680081693e-04


     6 Order 1, Length 18
    Atom      X          Y          Z
     1   -7.561679456178664e-03  -3.070159974374537e-03  -1.753657586649734e-03
     2    9.482308936234670e-04   2.337898370219252e-03  -7.279553463162679e-04
     3    4.681921089967119e-04   2.864429580547419e-03   8.811870290180147e-05
     4   -1.117574203028004e-02  -2.231961352996184e-02  -1.771263424367854e-02
     5   -6.026065733561420e-04  -1.162139148205385e-03  -5.146206707485696e-04
     6    1.792302368776176e-02   2.134958031372101e-02   2.062086769152530e-02

Order 1, Length 18
    Atom      X          Y          Z
     1    1.252222452239001e-03   1.075866151676699e-03   1.684629743479230e-03
     2    2.163100332810641e-04  -6.464742320918780e-04  -2.976392002522647e-04
     3    1.003519781245611e-04  -6.861477744756640e-04  -2.480935850458694e-04
     4   -2.110769787591563e-02  -5.937472390679387e-02  -4.530951397390465e-02
     5   -1.810471229274930e-03  -2.318456721536643e-03  -8.289852519020777e-04
     6    2.134958031372101e-02   6.194992025662303e-02   4.499961666957342e-02

Order 1, Length 18
    Atom      X          Y          Z
     1   -6.202279854033788e-03  -2.628584643211342e-04   5.586649084198275e-04
     2    4.338625031737199e-03   6.553758868483493e-04  -1.718146427037476e-03
     3   -6.923764613542467e-04   1.225894903270847e-03  -1.056020051837868e-03
     4   -1.649533303698872e-02  -4.462705359146248e-02  -3.810364404548977e-02
     5   -1.569377633011217e-03  -1.990981906750457e-03  -3.213874680081693e-04
     6    2.062086769152530e-02   4.499961666957342e-02   4.064058654774837e-02




 # Finishing finite difference calculation for IDERIV #
 ######################################################
 ######################################################
 Requested basis set is def2-SVPD
 There are 42 shells and 98 basis functions
 **********************************************************************
 **                                                                  **
 **                       VIBRATIONAL ANALYSIS                       **
 **                       --------------------                       **
 **                                                                  **
 **        VIBRATIONAL FREQUENCIES (CM**-1) AND NORMAL MODES         **
 **     FORCE CONSTANTS (mDYN/ANGSTROM) AND REDUCED MASSES (AMU)     **
 **                  INFRARED INTENSITIES (KM/MOL)                   **
 **                                                                  **
 **********************************************************************
 

 Mode:                 1                      2                      3
 Frequency:       -88.51                  75.52                 103.36
 Force Cnst:      0.0425                 0.0138                 0.0440
 Red. Mass:       9.2079                 4.1168                 6.9940
 IR Active:          YES                    YES                    YES
 IR Intens:       95.694                 71.512                210.332
 Raman Active:       YES                    YES                    YES
               X      Y      Z        X      Y      Z        X      Y      Z
 C          0.188 -0.346 -0.061    0.118  0.123  0.194   -0.137 -0.075 -0.139
 O          0.176 -0.289 -0.062   -0.138 -0.155 -0.141   -0.011 -0.053  0.036
 H          0.164 -0.527 -0.059    0.539  0.573  0.215   -0.362 -0.289 -0.152
 O         -0.298  0.393  0.033    0.072  0.007 -0.130    0.300 -0.139  0.139
 Li        -0.180  0.285  0.034   -0.228  0.097  0.323   -0.483  0.565 -0.137
 Li         0.115  0.148  0.145    0.100 -0.051 -0.069    0.110  0.041 -0.002
 TransDip   0.207 -0.234  0.018   -0.049  0.117  0.239   -0.343  0.284 -0.133

 Mode:                 4                      5                      6
 Frequency:       145.08                 157.92                 199.26
 Force Cnst:      0.0931                 0.0687                 0.1535
 Red. Mass:       7.5078                 4.6724                 6.5605
 IR Active:          YES                    YES                    YES
 IR Intens:      249.439                 88.160                 99.708
 Raman Active:       YES                    YES                    YES
               X      Y      Z        X      Y      Z        X      Y      Z
 C          0.064  0.012  0.185   -0.040 -0.298  0.162   -0.151  0.276 -0.181
 O         -0.128 -0.009 -0.092   -0.151  0.274 -0.067   -0.050 -0.081  0.013
 H          0.371  0.078  0.191    0.186 -0.781  0.159   -0.424 -0.064 -0.199
 O         -0.161 -0.099  0.306    0.057  0.055 -0.118   -0.100  0.077  0.015
 Li         0.038 -0.042 -0.383    0.016  0.032  0.055    0.049 -0.035  0.018
 Li         0.457  0.257 -0.450    0.240 -0.161  0.066    0.612 -0.418  0.256
 TransDip   0.275  0.125 -0.406    0.139 -0.230  0.135    0.250 -0.175  0.097

 Mode:                 7                      8                      9
 Frequency:       499.81                 663.11                 841.96
 Force Cnst:      0.2038                 1.8608                 3.9273
 Red. Mass:       1.3845                 7.1825                 9.4029
 IR Active:          YES                    YES                    YES
 IR Intens:       33.730                 27.361                433.647
 Raman Active:       YES                    YES                    YES
               X      Y      Z        X      Y      Z        X      Y      Z
 C         -0.046 -0.152 -0.048    0.005  0.001  0.008    0.007 -0.002  0.003
 O          0.007  0.046  0.012    0.003 -0.004 -0.003   -0.003  0.002 -0.001
 H         -0.024  0.981 -0.019    0.022 -0.053  0.005   -0.031  0.010  0.002
 O         -0.005  0.013  0.014   -0.096 -0.003  0.107    0.239  0.401  0.221
 Li         0.014  0.012  0.004    0.419  0.535  0.167   -0.359 -0.462 -0.147
 Li         0.064 -0.028  0.021   -0.218 -0.514 -0.418   -0.187 -0.453 -0.359
 TransDip   0.182  0.037  0.007    0.097  0.048 -0.127   -0.268 -0.545 -0.276

 Mode:                10                     11                     12
 Frequency:      1095.24                1937.94                2912.64
 Force Cnst:      0.8862                23.2314                 5.4525
 Red. Mass:       1.2538                10.4989                 1.0909
 IR Active:          YES                    YES                    YES
 IR Intens:       49.403                405.461                 28.470
 Raman Active:       YES                    YES                    YES
               X      Y      Z        X      Y      Z        X      Y      Z
 C         -0.093  0.008 -0.087    0.584 -0.044 -0.360    0.011  0.002 -0.086
 O          0.007 -0.002  0.066   -0.440  0.041  0.303   -0.005  0.000  0.002
 H          0.986 -0.078 -0.032   -0.006 -0.012 -0.491   -0.049 -0.023  0.995
 O          0.001  0.002  0.002    0.002 -0.009 -0.000    0.000 -0.001  0.000
 Li        -0.002 -0.002 -0.001    0.004  0.003  0.001    0.000  0.000  0.000
 Li         0.003 -0.001 -0.002   -0.004  0.000 -0.006    0.000 -0.000 -0.001
 TransDip   0.158  0.080 -0.139    0.466 -0.343 -0.285    0.111 -0.077 -0.105

 STANDARD THERMODYNAMIC QUANTITIES AT   298.15 K  AND     1.00 ATM

   This Molecule has  1 Imaginary Frequencies
   Zero point vibrational energy:       12.340 kcal/mol

   Atom    1 Element C  Has Mass   12.00000
   Atom    2 Element O  Has Mass   15.99491
   Atom    3 Element H  Has Mass    1.00783
   Atom    4 Element O  Has Mass   15.99491
   Atom    5 Element Li Has Mass    7.01600
   Atom    6 Element Li Has Mass    7.01600
   Molecular Mass:    59.029650 amu
   Principal axes and moments of inertia in amu*Bohr^2:
                             1           2           3
    Eigenvalues --      142.27389   606.67725   694.42890
          X              -0.50800     0.84284    -0.17762
          Y               0.84350     0.44501    -0.30079
          Z               0.17448     0.30262     0.93700
   Rotational Symmetry Number is   1
   The Molecule is an Asymmetric Top
   Translational Enthalpy:        0.889 kcal/mol
   Rotational Enthalpy:           0.889 kcal/mol
   Vibrational Enthalpy:         14.724 kcal/mol
   gas constant (RT):             0.592 kcal/mol
   Translational Entropy:        38.147  cal/mol.K
   Rotational Entropy:           25.597  cal/mol.K
   Vibrational Entropy:          16.097  cal/mol.K

   Total Enthalpy:               17.094 kcal/mol
   Total Entropy:                79.840  cal/mol.K
Archival summary:
1\1\n0102.lr6\FREQ\ProcedureUnspecified\BasisUnspecified\21i21(2)\ewcspott\WedNov1108:46:192020WedNov1108:46:192020\0\\#,FREQ,ProcedureUnspecified,BasisUnspecified,\\0,2\O\C,1,1.18148\H,2,1.11915,1,125.935\Li,2,2.46103,1,119.013,3,152.655,0\O,4,1.69677,2,86.6967,1,-101.521,0\Li,5,1.69704,4,153.947,2,75.6926,0\\\@

 Total job time:  515.07s(wall), 15997.11s(cpu) 
 Wed Nov 11 08:46:19 2020

        *************************************************************
        *                                                           *
        *  Thank you very much for using Q-Chem.  Have a nice day.  *
        *                                                           *
        *************************************************************


