
Running Job 1 of 1 mol.qin
qchem mol.qin_17052.0 /tmp/scratch/ 0
/clusterfs/mp/software/qchem/exe/qcprog.exe_s mol.qin_17052.0 /tmp/scratch/
                  Welcome to Q-Chem
     A Quantum Leap Into The Future Of Chemistry


 Q-Chem 5.2, Q-Chem, Inc., Pleasanton, CA (2019)

 Yihan Shao,  Zhengting Gan,  E. Epifanovsky,  A. T. B. Gilbert,  M. Wormit,  
 J. Kussmann,  A. W. Lange,  A. Behn,  Jia Deng,  Xintian Feng,  D. Ghosh,  
 M. Goldey,  P. R. Horn,  L. D. Jacobson,  I. Kaliman,  T. Kus,  A. Landau,  
 Jie Liu,  E. I. Proynov,  R. M. Richard,  R. P. Steele,  E. J. Sundstrom,  
 H. L. Woodcock III,  P. M. Zimmerman,  D. Zuev,  B. Alam,  B. Albrecht,  
 E. Alguire,  S. A. Baeppler,  D. Barton,  Z. Benda,  Y. A. Bernard,  
 E. J. Berquist,  K. B. Bravaya,  H. Burton,  K. Carter-Fenk,  D. Casanova,  
 Chun-Min Chang,  Yunqing Chen,  A. Chien,  K. D. Closser,  M. P. Coons,  
 S. Coriani,  S. Dasgupta,  A. L. Dempwolff,  M. Diedenhofen,  Hainam Do,  
 R. G. Edgar,  Po-Tung Fang,  S. Faraji,  S. Fatehi,  Qingguo Feng,  
 J. Fosso-Tande,  J. Gayvert,  Qinghui Ge,  A. Ghysels,  G. Gidofalvi,  
 J. Gomes,  J. Gonthier,  A. Gunina,  D. Hait,  M. W. D. Hanson-Heine,  
 P. H. P. Harbach,  A. W. Hauser,  M. F. Herbst,  J. E. Herr,  
 E. G. Hohenstein,  Z. C. Holden,  Kerwin Hui,  B. C. Huynh,  T.-C. Jagau,  
 Hyunjun Ji,  B. Kaduk,  K. Khistyaev,  Jaehoon Kim,  P. Klunzinger,  K. Koh,  
 D. Kosenkov,  L. Koulias,  T. Kowalczyk,  C. M. Krauter,  A. Kunitsa,  
 Ka Un Lao,  A. Laurent,  K. V. Lawler,  Joonho Lee,  D. Lefrancois,  
 S. Lehtola,  D. S. Levine,  Yi-Pei Li,  You-Sheng Lin,  Fenglai Liu,  
 Kuan-Yu Liu,  E. Livshits,  M. Loipersberger,  A. Luenser,  P. Manohar,  
 E. Mansoor,  S. F. Manzer,  Shan-Ping Mao,  Yuezhi Mao,  N. Mardirossian,  
 A. V. Marenich,  T. Markovich,  L. A. Martinez-Martinez,  S. A. Maurer,  
 N. J. Mayhall,  S. C. McKenzie,  J.-M. Mewes,  P. Morgante,  A. F. Morrison,  
 J. W. Mullinax,  K. Nanda,  T. S. Nguyen-Beck,  R. Olivares-Amaya,  
 J. A. Parkhill,  S. K. Paul,  Zheng Pei,  T. M. Perrine,  F. Plasser,  
 P. Pokhilko,  S. Prager,  A. Prociuk,  E. Ramos,  B. Rana,  D. R. Rehn,  
 F. Rob,  M. Scheurer,  M. Schneider,  N. Sergueev,  S. M. Sharada,  
 S. Sharma,  D. W. Small,  T. Stauch,  C. J. Stein,  T. Stein,  Yu-Chuan Su,  
 S. P. Veccham,  A. J. W. Thom,  A. Tkatchenko,  T. Tsuchimochi,  
 N. M. Tubman,  L. Vogt,  M. L. Vidal,  O. Vydrov,  M. A. Watson,  J. Wenzel,  
 M. de Wergifosse,  T. A. Wesolowski,  A. White,  J. Witte,  A. Yamada,  
 Jun Yang,  K. Yao,  S. Yeganeh,  S. R. Yost,  Zhi-Qiang You,  A. Zech,  
 Igor Ying Zhang,  Xing Zhang,  Yan Zhao,  Ying Zhu,  B. R. Brooks,  
 G. K. L. Chan,  C. J. Cramer,  M. S. Gordon,  W. J. Hehre,  A. Klamt,  
 M. W. Schmidt,  C. D. Sherrill,  D. G. Truhlar,  A. Aspuru-Guzik,  R. Baer,  
 A. T. Bell,  N. A. Besley,  Jeng-Da Chai,  A. E. DePrince, III,  
 R. A. DiStasio Jr.,  A. Dreuw,  B. D. Dunietz,  T. R. Furlani,  
 Chao-Ping Hsu,  Yousung Jung,  Jing Kong,  D. S. Lambrecht,  WanZhen Liang,  
 C. Ochsenfeld,  V. A. Rassolov,  L. V. Slipchenko,  J. E. Subotnik,  
 T. Van Voorhis,  J. M. Herbert,  A. I. Krylov,  P. M. W. Gill,  M. Head-Gordon

 Contributors to earlier versions of Q-Chem not listed above: 
 R. D. Adamson,  B. Austin,  J. Baker,  G. J. O. Beran,  K. Brandhorst,  
 S. T. Brown,  E. F. C. Byrd,  A. K. Chakraborty,  C.-L. Cheng,  
 Siu Hung Chien,  D. M. Chipman,  D. L. Crittenden,  H. Dachsel,  
 R. J. Doerksen,  A. D. Dutoi,  L. Fusti-Molnar,  W. A. Goddard III,  
 A. Golubeva-Zadorozhnaya,  S. R. Gwaltney,  G. Hawkins,  A. Heyden,  
 S. Hirata,  G. Kedziora,  F. J. Keil,  C. Kelley,  Jihan Kim,  R. A. King,  
 R. Z. Khaliullin,  P. P. Korambath,  W. Kurlancheek,  A. M. Lee,  M. S. Lee,  
 S. V. Levchenko,  Ching Yeh Lin,  D. Liotard,  R. C. Lochan,  I. Lotan,  
 P. E. Maslen,  N. Nair,  D. P. O'Neill,  D. Neuhauser,  E. Neuscamman,  
 C. M. Oana,  R. Olson,  B. Peters,  R. Peverati,  P. A. Pieniazek,  
 Y. M. Rhee,  J. Ritchie,  M. A. Rohrdanz,  E. Rosta,  N. J. Russ,  
 H. F. Schaefer III,  N. E. Schultz,  N. Shenvi,  A. C. Simmonett,  A. Sodt,  
 D. Stuck,  K. S. Thanthiriwatte,  V. Vanovschi,  Tao Wang,  A. Warshel,  
 C. F. Williams,  Q. Wu,  X. Xu,  W. Zhang

 Please cite Q-Chem as follows:
 Y. Shao et al., Mol. Phys. 113, 184-215 (2015)
 DOI: 10.1080/00268976.2014.952696

 Q-Chem 5.2.2 for Intel X86 EM64T Linux

 Parts of Q-Chem use Armadillo 8.300.2 (Tropical Shenanigans).
 http://arma.sourceforge.net/

 Q-Chem begins on Wed Nov 11 08:49:14 2020  

Host: 
0

     Scratch files written to /tmp/scratch//
 Nov2519 |scratch|qcdevops|jenkins|workspace|build_RNUM 6829   
Processing $rem in /clusterfs/mp/software/qchem/config/preferences:
	 MEM_TOTAL  96000 
NAlpha2: 30
NElect   29
Mult     2
Symmetry turned off for PCM/SM12/SMD calculation

Checking the input file for inconsistencies... 	...done.

--------------------------------------------------------------
User input:
--------------------------------------------------------------
$molecule
0 2
C      0.3967596691     -1.5703473831     -0.0259748355
O      1.2947800350     -1.8337144031     -0.7414502642
H      0.3239679043     -1.8356770991      1.0661458281
O     -1.1224527235      1.5235652923      0.1280034475
Li     -0.5343080478      3.0320255941      0.5057178648
Li     -1.2646768372      0.0154279989     -0.5702820407
$end

$rem
job_type = freq
basis = def2-svpd
max_scf_cycles = 200
gen_scfman = true
xc_grid = 3
scf_algorithm = diis
resp_charges = true
symmetry = false
sym_ignore = true
method = wb97xv
solvent_method = smd
ideriv = 1
thresh = 14
$end

$smx
solvent other
$end
--------------------------------------------------------------
 ----------------------------------------------------------------
             Standard Nuclear Orientation (Angstroms)
    I     Atom           X                Y                Z
 ----------------------------------------------------------------
    1      C       0.3967596691    -1.5703473831    -0.0259748355
    2      O       1.2947800350    -1.8337144031    -0.7414502642
    3      H       0.3239679043    -1.8356770991     1.0661458281
    4      O      -1.1224527235     1.5235652923     0.1280034475
    5      Li     -0.5343080478     3.0320255941     0.5057178648
    6      Li     -1.2646768372     0.0154279989    -0.5702820407
 ----------------------------------------------------------------
 Nuclear Repulsion Energy =          72.94498433 hartrees
 There are       15 alpha and       14 beta electrons
 Requested basis set is def2-SVPD
 There are 42 shells and 98 basis functions

 Total QAlloc Memory Limit  96000 MB
 Mega-Array Size       188 MB
 MEM_STATIC part       192 MB
 
 Citation of the SMD model:
 Marenich, A.V.; Cramer, C.J.; Truhlar, D.G.
 J. Phys. Chem. B 2009, 113, 6378-6396.
 iSolventCode=           0
 Solvent: other                                                           
 
 vradii
            1           2           3           4           5           6
    1   1.8500000   2.2940000   1.2000000   2.2940000   2.1476001   2.1476001
 Changing PCM_VDW_RADII to SMD_RADIUS
 Discretize the solute cavity surface with Lebedev spheres
	Using 110 Lebedev grid points for each H atom
	Using 194 Lebedev grid points for other atoms
	Atomic van der Waals radii will be scaled by 1.20
 Remove points where switching function is < 1.0e-08
 Keep 661 surface tesserae and discard 419 interior tesserae
 Molecular Surface Area = 155.758 Angst**2

                       Distance Matrix (Angstroms)
             C (  1)   O (  2)   H (  3)   O (  4)   Li(  5)
   O (  2)  1.178010
   H (  3)  1.126244  2.051800
   O (  4)  3.450219  4.227327  3.775812
   Li(  5)  4.725613  5.345691  4.974459  1.662539
   Li(  6)  2.360365  3.162190  2.937393  1.668025  3.284977
 
 A cutoff of  1.0D-14 yielded    882 shell pairs
 There are      4850 function pairs (      5468 Cartesian)
 Smallest overlap matrix eigenvalue = 5.12E-04
 Guess from superposition of atomic densities
 Warning:  Energy on first SCF cycle will be non-variational
 SAD guess density has 29.000000 electrons

 -----------------------------------------------------------------------
  General SCF calculation program by
  Eric Jon Sundstrom, Paul Horn, Yuezhi Mao, Dmitri Zuev, Alec White,
  David Stuck, Shaama M.S., Shane Yost, Joonho Lee, David Small,
  Daniel Levine, Susi Lehtola, Hugh Burton, Evgeny Epifanovsky,
  Bang C. Huynh
 -----------------------------------------------------------------------
 Exchange:     0.1670 Hartree-Fock + 1.0000 wB97X-V + LR-HF
 Correlation:  1.0000 wB97X-V
 Using SG-3 standard quadrature grid
 Nonlocal Correlation:  VV10 with C = 0.0100 and b = 6.00 and scale = 1.00000
 Grid used for NLC:  SG-1 standard quadrature
 
 Citation of the SMD model:
 Marenich, A.V.; Cramer, C.J.; Truhlar, D.G.
 J. Phys. Chem. B 2009, 113, 6378-6396.
 iSolventCode=           0
 Solvent: other                                                           
 
 vradii
            1           2           3           4           5           6
    1   1.8500000   2.2940000   1.2000000   2.2940000   2.1476001   2.1476001
 using 40 threads for integral computing
 -------------------------------------------------------
 OpenMP Integral computing Module                
 Release: version 1.0, May 2013, Q-Chem Inc. Pittsburgh 
 -------------------------------------------------------
 using 40 threads for integral computing
 -------------------------------------------------------
 OpenMP Integral computing Module                
 Release: version 1.0, May 2013, Q-Chem Inc. Pittsburgh 
 -------------------------------------------------------
 -------------------------------------------------------
 OpenMP BLAS3 based DFT computing Module                
 Release: version 1.0, May 2013, Q-Chem Inc. Pittsburgh 
 -------------------------------------------------------
 -------------------------------------------------------
 OpenMP BLAS3 based DFT computing Module                
 Release: version 1.0, May 2013, Q-Chem Inc. Pittsburgh 
 -------------------------------------------------------
 -------------------------------------------------------
 OpenMP BLAS3 based DFT computing Module                
 Release: version 1.0, May 2013, Q-Chem Inc. Pittsburgh 
 -------------------------------------------------------
 A unrestricted SCF calculation will be
 performed using DIIS
 SCF converges when DIIS error is below 1.0e-08
 ---------------------------------------
  Cycle       Energy         DIIS error
 ---------------------------------------
    1    -203.5196232725      2.25e-02  
    2    -203.5619455612      9.51e-03  
    3    -201.7810616830      1.95e-02  
    4    -203.9176599045      3.29e-03  
    5    -203.9539758368      2.05e-03  
    6    -203.9694353870      3.11e-04  
    7    -203.9700675483      9.82e-05  
    8    -203.9701568334      3.94e-05  
    9    -203.9701787886      1.10e-05  
   10    -203.9701838481      5.85e-06  
   11    -203.9701858230      2.62e-06  
   12    -203.9701863725      1.05e-06  
   13    -203.9701864336      3.29e-07  
   14    -203.9701864385      1.56e-07  
   15    -203.9701864394      5.04e-08  
   16    -203.9701864395      1.87e-08  
   17    -203.9701864395      7.50e-09  Convergence criterion met
 ---------------------------------------
 SCF time:   CPU 429.01s  wall 13.00s 
<S^2> =          0.753337486
(3)  G-ENP(liq) elect-nuc-pol free energy of system     -203.970186440 a.u.
(4)  G-CDS(liq) cavity-dispersion-solvent structure 
     free energy                                               -0.1822 kcal/mol
(6)  G-S(liq) free energy of system                     -203.970476749 a.u.
 SCF   energy in the final basis set =     -203.9701864395
 Total energy in the final basis set =     -203.9704767491
 
 --------------------------------------------------------------
 
                    Orbital Energies (a.u.)
 --------------------------------------------------------------
 
 Alpha MOs
 -- Occupied --
-19.3054 -19.0562 -10.3992  -2.0335  -2.0194  -1.2417  -0.8411  -0.7379
 -0.6286  -0.5733  -0.5591  -0.3399  -0.3010  -0.2712  -0.2696
 -- Virtual --
  0.0263   0.0324   0.0461   0.0618   0.0649   0.0786   0.0836   0.0890
  0.1121   0.1224   0.1357   0.1518   0.1676   0.1883   0.1973   0.2229
  0.2250   0.2314   0.2450   0.2601   0.2847   0.2908   0.2968   0.3176
  0.3289   0.3375   0.3792   0.3902   0.4239   0.4371   0.4438   0.4680
  0.4900   0.5039   0.5270   0.5693   0.6124   0.6256   0.6370   0.6413
  0.6607   0.6768   0.6845   0.7098   0.7364   0.7601   0.7990   0.8174
  0.8291   0.8644   0.9429   0.9585   1.0057   1.0182   1.0396   1.1534
  1.1932   1.4056   1.4225   1.4820   1.5156   1.6037   1.6162   1.6732
  1.7138   1.7742   1.8890   1.9545   1.9674   2.0747   2.1767   2.6119
  2.7764   2.9120   2.9765   3.0893   3.0933   3.1253   3.1536   3.1639
  3.2488   3.4458   3.8094
 
 Beta MOs
 -- Occupied --
-19.2973 -19.0558 -10.3922  -2.0335  -2.0185  -1.2243  -0.8398  -0.7073
 -0.6013  -0.5497  -0.5158  -0.3006  -0.2706  -0.2684
 -- Virtual --
 -0.0122   0.0273   0.0404   0.0525   0.0622   0.0655   0.0790   0.0847
  0.0911   0.1134   0.1233   0.1387   0.1543   0.1708   0.1892   0.1974
  0.2245   0.2255   0.2361   0.2493   0.2611   0.2867   0.2925   0.3030
  0.3191   0.3353   0.3408   0.3832   0.3924   0.4261   0.4419   0.4515
  0.4702   0.4951   0.5055   0.5345   0.5758   0.6140   0.6302   0.6387
  0.6419   0.6640   0.6820   0.6863   0.7139   0.7391   0.7621   0.8059
  0.8203   0.8320   0.8731   0.9487   0.9624   1.0089   1.0281   1.0482
  1.1593   1.2034   1.4064   1.4245   1.4905   1.5252   1.6216   1.6369
  1.6911   1.7207   1.7816   1.8985   1.9757   1.9895   2.0982   2.1934
  2.6360   2.8001   2.9361   2.9995   3.0906   3.0946   3.1258   3.1552
  3.1647   3.2570   3.4742   3.8226
 --------------------------------------------------------------
 
          Ground-State Mulliken Net Atomic Charges

     Atom                 Charge (a.u.)    Spin (a.u.)
  --------------------------------------------------------
      1 C                     0.208447       0.480326
      2 O                    -0.285399       0.306055
      3 H                     0.065046       0.175410
      4 O                    -1.721890      -0.000087
      5 Li                    0.892241       0.003140
      6 Li                    0.841555       0.035157
  --------------------------------------------------------
  Sum of atomic charges =    -0.000000
  Sum of spin   charges =     1.000000

  Building new vdw surfaces
         Merz-Kollman RESP Net Atomic Charges

     Atom                 Charge (a.u.)
  ----------------------------------------
      1 C                     0.100327
      2 O                    -0.243822
      3 H                     0.220102
      4 O                    -1.772236
      5 Li                    0.905487
      6 Li                    0.790143
  ----------------------------------------
  Sum of atomic charges =     0.000000

  Related Dipole Moment =     1.7422 (X  1.4486 Y -0.2735 Z  0.9285)

 -----------------------------------------------------------------
                    Cartesian Multipole Moments
 -----------------------------------------------------------------
    Charge (ESU x 10^10)
                -0.0000
    Dipole Moment (Debye)
         X       1.3970      Y      -0.3058      Z       0.9804
       Tot       1.7339
    Quadrupole Moments (Debye-Ang)
        XX     -29.0152     XY       9.2709     YY      -1.8125
        XZ       4.7048     YZ       1.9072     ZZ     -21.8233
    Octopole Moments (Debye-Ang^2)
       XXX      15.1096    XXY      -9.3693    XYY       2.7919
       YYY      93.5406    XXZ      -0.5352    XYZ      -4.9854
       YYZ      28.6957    XZZ       2.1759    YZZ       2.2411
       ZZZ       8.8378
    Hexadecapole Moments (Debye-Ang^3)
      XXXX    -196.3966   XXXY     135.3635   XXYY    -124.8974
      XYYY      86.7913   YYYY     -70.0251   XXXZ      27.7269
      XXYZ     -12.5136   XYYZ       2.3362   YYYZ      23.8905
      XXZZ     -40.7104   XYZZ      37.3595   YYZZ     -69.5266
      XZZZ      21.3511   YZZZ     -30.0051   ZZZZ     -59.0188
 -----------------------------------------------------------------
 Calculating analytic gradient of the SCF energy
 Gradient of CDS energy
            1           2           3           4           5           6
    1   0.0002370   0.0001632   0.0000225   0.0000928  -0.0001222  -0.0003934
    2  -0.0005984   0.0000564   0.0000821   0.0000019  -0.0003134   0.0007714
    3   0.0008796  -0.0003073  -0.0003380  -0.0000658  -0.0000785  -0.0000901
 Gradient of SCF Energy
            1           2           3           4           5           6
    1  -0.0063970   0.0066925   0.0002005  -0.0059422   0.0047633   0.0006830
    2   0.0044977  -0.0008337  -0.0034405  -0.0004291   0.0084169  -0.0082113
    3  -0.0081642  -0.0044429   0.0120055  -0.0000856   0.0022227  -0.0015355
 Max gradient component =       1.201E-02
 RMS gradient           =       5.544E-03
 Computing fast CPCM-SWIG gradient
 Updating gradient with PCM contributions...
 -- total gradient after adding PCM contribution --
---------------------------------------------------
  Atom         X              Y              Z     
---------------------------------------------------
   1      -0.000043       0.000045      -0.000034
   2       0.000016      -0.000027       0.000009
   3      -0.000014      -0.000006       0.000008
   4      -0.000056      -0.000001       0.000009
   5       0.000051       0.000045       0.000030
   6       0.000045      -0.000056      -0.000022
---------------------------------------------------
 Number of fixed atoms: 0
 Gradient time:  CPU 45.42 s  wall 1.68 s
 ######################################################
 ######################################################
 # Starting finite difference calculation for IDERIV  #
 Finite diff step size:  1.88973e-03 a.u.
 ----------------------------------------------------------------
             Standard Nuclear Orientation (Angstroms)
    I     Atom           X                Y                Z
 ----------------------------------------------------------------
    1      C       0.3977596691    -1.5703473831    -0.0259748355
    2      O       1.2947800350    -1.8337144031    -0.7414502642
    3      H       0.3239679043    -1.8356770991     1.0661458281
    4      O      -1.1224527235     1.5235652923     0.1280034475
    5      Li     -0.5343080478     3.0320255941     0.5057178648
    6      Li     -1.2646768372     0.0154279989    -0.5702820407
 ----------------------------------------------------------------
 Nuclear Repulsion Energy =          72.95655365 hartrees
 There are       15 alpha and       14 beta electrons
 Discretize the solute cavity surface with Lebedev spheres
	Using 110 Lebedev grid points for each H atom
	Using 194 Lebedev grid points for other atoms
	Atomic van der Waals radii will be scaled by 1.20
 Remove points where switching function is < 1.0e-08
 Keep 662 surface tesserae and discard 418 interior tesserae
 Molecular Surface Area = 155.757 Angst**2

                       Distance Matrix (Angstroms)
             C (  1)   O (  2)   H (  3)   O (  4)   Li(  5)
   O (  2)  1.177248
   H (  3)  1.126309  2.051800
   O (  4)  3.450659  4.227327  3.775812
   Li(  5)  4.725810  5.345691  4.974459  1.662539
   Li(  6)  2.361069  3.162190  2.937393  1.668025  3.284977
 
 Requested basis set is def2-SVPD
 There are 42 shells and 98 basis functions
 A cutoff of  1.0D-14 yielded    882 shell pairs
 There are      4850 function pairs (      5468 Cartesian)
 Smallest overlap matrix eigenvalue = 5.12E-04
 Guess MOs from SCF MO coefficient file

 -----------------------------------------------------------------------
  General SCF calculation program by
  Eric Jon Sundstrom, Paul Horn, Yuezhi Mao, Dmitri Zuev, Alec White,
  David Stuck, Shaama M.S., Shane Yost, Joonho Lee, David Small,
  Daniel Levine, Susi Lehtola, Hugh Burton, Evgeny Epifanovsky,
  Bang C. Huynh
 -----------------------------------------------------------------------
 Exchange:     0.1670 Hartree-Fock + 1.0000 wB97X-V + LR-HF
 Correlation:  1.0000 wB97X-V
 Using SG-3 standard quadrature grid
 Nonlocal Correlation:  VV10 with C = 0.0100 and b = 6.00 and scale = 1.00000
 Grid used for NLC:  SG-1 standard quadrature
 
 Citation of the SMD model:
 Marenich, A.V.; Cramer, C.J.; Truhlar, D.G.
 J. Phys. Chem. B 2009, 113, 6378-6396.
 iSolventCode=           0
 Solvent: other                                                           
 
 vradii
            1           2           3           4           5           6
    1   1.8500000   2.2940000   1.2000000   2.2940000   2.1476001   2.1476001
 using 40 threads for integral computing
 -------------------------------------------------------
 OpenMP Integral computing Module                
 Release: version 1.0, May 2013, Q-Chem Inc. Pittsburgh 
 -------------------------------------------------------
 using 40 threads for integral computing
 -------------------------------------------------------
 OpenMP Integral computing Module                
 Release: version 1.0, May 2013, Q-Chem Inc. Pittsburgh 
 -------------------------------------------------------
 -------------------------------------------------------
 OpenMP BLAS3 based DFT computing Module                
 Release: version 1.0, May 2013, Q-Chem Inc. Pittsburgh 
 -------------------------------------------------------
 -------------------------------------------------------
 OpenMP BLAS3 based DFT computing Module                
 Release: version 1.0, May 2013, Q-Chem Inc. Pittsburgh 
 -------------------------------------------------------
 -------------------------------------------------------
 OpenMP BLAS3 based DFT computing Module                
 Release: version 1.0, May 2013, Q-Chem Inc. Pittsburgh 
 -------------------------------------------------------
 A unrestricted SCF calculation will be
 performed using Roothaan-Hall, DIIS
 SCF converges when DIIS error is below 1.0e-08
 ---------------------------------------
  Cycle       Energy         DIIS error
 ---------------------------------------
    1    -203.7818677675      3.73e-04  Roothaan Step
 ---------------------------------------
  Cycle       Energy         DIIS error
 ---------------------------------------
    1    -203.9685599966      4.25e-04  
    2    -203.9691686655      5.14e-04  
    3    -203.9701081213      7.32e-05  
    4    -203.9701666369      4.01e-05  
    5    -203.9701780195      2.67e-05  
    6    -203.9701838071      5.82e-06  
    7    -203.9701852422      2.62e-06  
    8    -203.9701856942      1.15e-06  
    9    -203.9701857847      5.41e-07  
   10    -203.9701858033      2.58e-07  
   11    -203.9701858073      1.20e-07  
   12    -203.9701858083      5.00e-08  
   13    -203.9701858084      1.87e-08  
   14    -203.9701858084      7.00e-09  Convergence criterion met
 ---------------------------------------
 SCF time:   CPU 378.72s  wall 11.00s 
<S^2> =          0.753332183
(3)  G-ENP(liq) elect-nuc-pol free energy of system     -203.970185808 a.u.
(4)  G-CDS(liq) cavity-dispersion-solvent structure 
     free energy                                               -0.1819 kcal/mol
(6)  G-S(liq) free energy of system                     -203.970475667 a.u.
 SCF   energy in the final basis set =     -203.9701858084
 Total energy in the final basis set =     -203.9704756675
 
 --------------------------------------------------------------
 
                    Orbital Energies (a.u.)
 --------------------------------------------------------------
 
 Alpha MOs
 -- Occupied --
-19.3054 -19.0561 -10.3990  -2.0335  -2.0194  -1.2420  -0.8411  -0.7378
 -0.6287  -0.5735  -0.5593  -0.3396  -0.3010  -0.2712  -0.2696
 -- Virtual --
  0.0263   0.0325   0.0462   0.0618   0.0649   0.0786   0.0836   0.0890
  0.1121   0.1224   0.1357   0.1518   0.1676   0.1882   0.1973   0.2228
  0.2250   0.2314   0.2451   0.2601   0.2848   0.2908   0.2968   0.3176
  0.3289   0.3376   0.3791   0.3902   0.4239   0.4371   0.4439   0.4681
  0.4901   0.5041   0.5270   0.5693   0.6124   0.6257   0.6371   0.6413
  0.6608   0.6769   0.6845   0.7099   0.7364   0.7602   0.7990   0.8174
  0.8291   0.8644   0.9430   0.9585   1.0058   1.0182   1.0402   1.1534
  1.1930   1.4056   1.4225   1.4822   1.5156   1.6040   1.6162   1.6732
  1.7139   1.7742   1.8891   1.9545   1.9675   2.0744   2.1766   2.6138
  2.7760   2.9122   2.9764   3.0893   3.0933   3.1253   3.1536   3.1639
  3.2498   3.4473   3.8108
 
 Beta MOs
 -- Occupied --
-19.2973 -19.0558 -10.3920  -2.0335  -2.0185  -1.2247  -0.8398  -0.7072
 -0.6014  -0.5499  -0.5160  -0.3005  -0.2706  -0.2683
 -- Virtual --
 -0.0119   0.0273   0.0404   0.0526   0.0622   0.0655   0.0790   0.0847
  0.0912   0.1134   0.1233   0.1387   0.1543   0.1708   0.1892   0.1974
  0.2245   0.2255   0.2360   0.2493   0.2611   0.2868   0.2925   0.3030
  0.3191   0.3353   0.3408   0.3832   0.3924   0.4261   0.4419   0.4516
  0.4702   0.4951   0.5056   0.5345   0.5758   0.6141   0.6303   0.6388
  0.6419   0.6641   0.6821   0.6863   0.7139   0.7391   0.7622   0.8059
  0.8203   0.8320   0.8731   0.9488   0.9624   1.0089   1.0282   1.0489
  1.1593   1.2032   1.4064   1.4245   1.4907   1.5252   1.6218   1.6369
  1.6911   1.7207   1.7816   1.8987   1.9757   1.9896   2.0979   2.1933
  2.6379   2.7997   2.9362   2.9995   3.0906   3.0946   3.1258   3.1552
  3.1647   3.2580   3.4757   3.8239
 --------------------------------------------------------------
 
          Ground-State Mulliken Net Atomic Charges

     Atom                 Charge (a.u.)    Spin (a.u.)
  --------------------------------------------------------
      1 C                     0.207657       0.480500
      2 O                    -0.284506       0.305725
      3 H                     0.065080       0.175482
      4 O                    -1.721994      -0.000094
      5 Li                    0.892204       0.003150
      6 Li                    0.841559       0.035236
  --------------------------------------------------------
  Sum of atomic charges =    -0.000000
  Sum of spin   charges =     1.000000

  Building new vdw surfaces
         Merz-Kollman RESP Net Atomic Charges

     Atom                 Charge (a.u.)
  ----------------------------------------
      1 C                     0.100716
      2 O                    -0.243727
      3 H                     0.219778
      4 O                    -1.772303
      5 Li                    0.905465
      6 Li                    0.790072
  ----------------------------------------
  Sum of atomic charges =     0.000000

  Related Dipole Moment =     1.7432 (X  1.4507 Y -0.2753 Z  0.9265)

 -----------------------------------------------------------------
                    Cartesian Multipole Moments
 -----------------------------------------------------------------
    Charge (ESU x 10^10)
                -0.0000
    Dipole Moment (Debye)
         X       1.3993      Y      -0.3074      Z       0.9786
       Tot       1.7350
    Quadrupole Moments (Debye-Ang)
        XX     -29.0123     XY       9.2699     YY      -1.8120
        XZ       4.7038     YZ       1.9108     ZZ     -21.8228
    Octopole Moments (Debye-Ang^2)
       XXX      15.1041    XXY      -9.3776    XYY       2.7946
       YYY      93.5245    XXZ      -0.5361    XYZ      -4.9838
       YYZ      28.6870    XZZ       2.1720    YZZ       2.2388
       ZZZ       8.8305
    Hexadecapole Moments (Debye-Ang^3)
      XXXX    -196.4183   XXXY     135.3873   XXYY    -124.8993
      XYYY      86.8109   YYYY     -70.0081   XXXZ      27.7266
      XXYZ     -12.5126   XYYZ       2.3324   YYYZ      23.9141
      XXZZ     -40.7150   XYZZ      37.3688   YYZZ     -69.5273
      XZZZ      21.3464   YZZZ     -29.9913   ZZZZ     -59.0199
 -----------------------------------------------------------------
 Calculating analytic gradient of the SCF energy
 Gradient of CDS energy
            1           2           3           4           5           6
    1   0.0002398   0.0001604   0.0000228   0.0000928  -0.0001222  -0.0003936
    2  -0.0005988   0.0000571   0.0000821   0.0000019  -0.0003134   0.0007712
    3   0.0008774  -0.0003054  -0.0003378  -0.0000658  -0.0000785  -0.0000900
 Gradient of SCF Energy
            1           2           3           4           5           6
    1  -0.0051513   0.0055430   0.0001164  -0.0059399   0.0047652   0.0006666
    2   0.0041360  -0.0004909  -0.0034208  -0.0004382   0.0084187  -0.0082048
    3  -0.0089898  -0.0036147   0.0120129  -0.0000838   0.0022227  -0.0015472
 Max gradient component =       1.201E-02
 RMS gradient           =       5.419E-03
 Computing fast CPCM-SWIG gradient
 Updating gradient with PCM contributions...
 -- total gradient after adding PCM contribution --
---------------------------------------------------
  Atom         X              Y              Z     
---------------------------------------------------
   1       0.001188      -0.000322      -0.000868
   2      -0.001136       0.000322       0.000840
   3      -0.000081       0.000013       0.000020
   4      -0.000050      -0.000013       0.000009
   5       0.000052       0.000046       0.000030
   6       0.000026      -0.000046      -0.000032
---------------------------------------------------
 Number of fixed atoms: 0
 Gradient time:  CPU 48.85 s  wall 1.65 s
 ----------------------------------------------------------------
             Standard Nuclear Orientation (Angstroms)
    I     Atom           X                Y                Z
 ----------------------------------------------------------------
    1      C       0.3957596691    -1.5703473831    -0.0259748355
    2      O       1.2947800350    -1.8337144031    -0.7414502642
    3      H       0.3239679043    -1.8356770991     1.0661458281
    4      O      -1.1224527235     1.5235652923     0.1280034475
    5      Li     -0.5343080478     3.0320255941     0.5057178648
    6      Li     -1.2646768372     0.0154279989    -0.5702820407
 ----------------------------------------------------------------
 Nuclear Repulsion Energy =          72.93342437 hartrees
 There are       15 alpha and       14 beta electrons
 Discretize the solute cavity surface with Lebedev spheres
	Using 110 Lebedev grid points for each H atom
	Using 194 Lebedev grid points for other atoms
	Atomic van der Waals radii will be scaled by 1.20
 Remove points where switching function is < 1.0e-08
 Keep 661 surface tesserae and discard 419 interior tesserae
 Molecular Surface Area = 155.759 Angst**2

                       Distance Matrix (Angstroms)
             C (  1)   O (  2)   H (  3)   O (  4)   Li(  5)
   O (  2)  1.178773
   H (  3)  1.126180  2.051800
   O (  4)  3.449779  4.227327  3.775812
   Li(  5)  4.725416  5.345691  4.974459  1.662539
   Li(  6)  2.359662  3.162190  2.937393  1.668025  3.284977
 
 Requested basis set is def2-SVPD
 There are 42 shells and 98 basis functions
 A cutoff of  1.0D-14 yielded    882 shell pairs
 There are      4850 function pairs (      5468 Cartesian)
 Smallest overlap matrix eigenvalue = 5.13E-04
 Guess MOs from SCF MO coefficient file

 -----------------------------------------------------------------------
  General SCF calculation program by
  Eric Jon Sundstrom, Paul Horn, Yuezhi Mao, Dmitri Zuev, Alec White,
  David Stuck, Shaama M.S., Shane Yost, Joonho Lee, David Small,
  Daniel Levine, Susi Lehtola, Hugh Burton, Evgeny Epifanovsky,
  Bang C. Huynh
 -----------------------------------------------------------------------
 Exchange:     0.1670 Hartree-Fock + 1.0000 wB97X-V + LR-HF
 Correlation:  1.0000 wB97X-V
 Using SG-3 standard quadrature grid
 Nonlocal Correlation:  VV10 with C = 0.0100 and b = 6.00 and scale = 1.00000
 Grid used for NLC:  SG-1 standard quadrature
 
 Citation of the SMD model:
 Marenich, A.V.; Cramer, C.J.; Truhlar, D.G.
 J. Phys. Chem. B 2009, 113, 6378-6396.
 iSolventCode=           0
 Solvent: other                                                           
 
 vradii
            1           2           3           4           5           6
    1   1.8500000   2.2940000   1.2000000   2.2940000   2.1476001   2.1476001
 using 40 threads for integral computing
 -------------------------------------------------------
 OpenMP Integral computing Module                
 Release: version 1.0, May 2013, Q-Chem Inc. Pittsburgh 
 -------------------------------------------------------
 using 40 threads for integral computing
 -------------------------------------------------------
 OpenMP Integral computing Module                
 Release: version 1.0, May 2013, Q-Chem Inc. Pittsburgh 
 -------------------------------------------------------
 -------------------------------------------------------
 OpenMP BLAS3 based DFT computing Module                
 Release: version 1.0, May 2013, Q-Chem Inc. Pittsburgh 
 -------------------------------------------------------
 -------------------------------------------------------
 OpenMP BLAS3 based DFT computing Module                
 Release: version 1.0, May 2013, Q-Chem Inc. Pittsburgh 
 -------------------------------------------------------
 -------------------------------------------------------
 OpenMP BLAS3 based DFT computing Module                
 Release: version 1.0, May 2013, Q-Chem Inc. Pittsburgh 
 -------------------------------------------------------
 A unrestricted SCF calculation will be
 performed using Roothaan-Hall, DIIS
 SCF converges when DIIS error is below 1.0e-08
 ---------------------------------------
  Cycle       Energy         DIIS error
 ---------------------------------------
    1    -203.7818334228      3.73e-04  Roothaan Step
 ---------------------------------------
  Cycle       Energy         DIIS error
 ---------------------------------------
    1    -203.9685450238      4.29e-04  
    2    -203.9691404295      5.22e-04  
    3    -203.9701081792      7.25e-05  
    4    -203.9701660660      4.02e-05  
    5    -203.9701772638      2.67e-05  
    6    -203.9701829282      5.71e-06  
    7    -203.9701842604      2.48e-06  
    8    -203.9701846549      1.09e-06  
    9    -203.9701847313      5.37e-07  
   10    -203.9701847473      2.70e-07  
   11    -203.9701847520      1.18e-07  
   12    -203.9701847530      4.88e-08  
   13    -203.9701847531      1.87e-08  
   14    -203.9701847531      7.09e-09  Convergence criterion met
 ---------------------------------------
 SCF time:   CPU 372.83s  wall 11.00s 
<S^2> =          0.753342774
(3)  G-ENP(liq) elect-nuc-pol free energy of system     -203.970184753 a.u.
(4)  G-CDS(liq) cavity-dispersion-solvent structure 
     free energy                                               -0.1825 kcal/mol
(6)  G-S(liq) free energy of system                     -203.970475508 a.u.
 SCF   energy in the final basis set =     -203.9701847531
 Total energy in the final basis set =     -203.9704755080
 
 --------------------------------------------------------------
 
                    Orbital Energies (a.u.)
 --------------------------------------------------------------
 
 Alpha MOs
 -- Occupied --
-19.3055 -19.0562 -10.3993  -2.0335  -2.0194  -1.2413  -0.8411  -0.7380
 -0.6284  -0.5732  -0.5588  -0.3402  -0.3010  -0.2712  -0.2696
 -- Virtual --
  0.0263   0.0323   0.0460   0.0618   0.0649   0.0786   0.0836   0.0890
  0.1121   0.1223   0.1357   0.1519   0.1676   0.1883   0.1973   0.2229
  0.2250   0.2314   0.2450   0.2601   0.2847   0.2908   0.2968   0.3176
  0.3288   0.3375   0.3792   0.3902   0.4239   0.4371   0.4437   0.4680
  0.4900   0.5038   0.5269   0.5692   0.6123   0.6255   0.6369   0.6413
  0.6606   0.6768   0.6845   0.7098   0.7364   0.7600   0.7989   0.8175
  0.8291   0.8644   0.9428   0.9585   1.0057   1.0182   1.0389   1.1534
  1.1934   1.4056   1.4224   1.4818   1.5155   1.6035   1.6161   1.6732
  1.7138   1.7743   1.8889   1.9546   1.9674   2.0749   2.1768   2.6100
  2.7768   2.9119   2.9765   3.0893   3.0933   3.1253   3.1536   3.1639
  3.2478   3.4444   3.8081
 
 Beta MOs
 -- Occupied --
-19.2973 -19.0558 -10.3923  -2.0335  -2.0185  -1.2239  -0.8398  -0.7074
 -0.6011  -0.5494  -0.5156  -0.3006  -0.2706  -0.2684
 -- Virtual --
 -0.0124   0.0273   0.0403   0.0524   0.0622   0.0655   0.0790   0.0847
  0.0911   0.1134   0.1233   0.1387   0.1544   0.1708   0.1892   0.1974
  0.2245   0.2255   0.2361   0.2493   0.2611   0.2867   0.2925   0.3030
  0.3191   0.3353   0.3407   0.3833   0.3924   0.4261   0.4418   0.4515
  0.4702   0.4950   0.5054   0.5345   0.5758   0.6140   0.6301   0.6386
  0.6419   0.6639   0.6820   0.6863   0.7138   0.7391   0.7620   0.8058
  0.8203   0.8319   0.8731   0.9487   0.9624   1.0089   1.0281   1.0475
  1.1593   1.2036   1.4064   1.4244   1.4903   1.5252   1.6214   1.6369
  1.6911   1.7206   1.7816   1.8984   1.9758   1.9895   2.0984   2.1935
  2.6341   2.8005   2.9360   2.9996   3.0906   3.0946   3.1258   3.1552
  3.1647   3.2560   3.4728   3.8212
 --------------------------------------------------------------
 
          Ground-State Mulliken Net Atomic Charges

     Atom                 Charge (a.u.)    Spin (a.u.)
  --------------------------------------------------------
      1 C                     0.209233       0.480145
      2 O                    -0.286290       0.306390
      3 H                     0.065014       0.175339
      4 O                    -1.721785      -0.000082
      5 Li                    0.892278       0.003130
      6 Li                    0.841551       0.035079
  --------------------------------------------------------
  Sum of atomic charges =     0.000000
  Sum of spin   charges =     1.000000

  Building new vdw surfaces
         Merz-Kollman RESP Net Atomic Charges

     Atom                 Charge (a.u.)
  ----------------------------------------
      1 C                     0.099936
      2 O                    -0.243917
      3 H                     0.220426
      4 O                    -1.772168
      5 Li                    0.905508
      6 Li                    0.790214
  ----------------------------------------
  Sum of atomic charges =     0.000000

  Related Dipole Moment =     1.7412 (X  1.4464 Y -0.2718 Z  0.9304)

 -----------------------------------------------------------------
                    Cartesian Multipole Moments
 -----------------------------------------------------------------
    Charge (ESU x 10^10)
                -0.0000
    Dipole Moment (Debye)
         X       1.3948      Y      -0.3042      Z       0.9823
       Tot       1.7329
    Quadrupole Moments (Debye-Ang)
        XX     -29.0180     XY       9.2718     YY      -1.8130
        XZ       4.7058     YZ       1.9035     ZZ     -21.8237
    Octopole Moments (Debye-Ang^2)
       XXX      15.1151    XXY      -9.3610    XYY       2.7893
       YYY      93.5567    XXZ      -0.5342    XYZ      -4.9870
       YYZ      28.7045    XZZ       2.1797    YZZ       2.2434
       ZZZ       8.8450
    Hexadecapole Moments (Debye-Ang^3)
      XXXX    -196.3747   XXXY     135.3396   XXYY    -124.8955
      XYYY      86.7717   YYYY     -70.0421   XXXZ      27.7271
      XXYZ     -12.5145   XYYZ       2.3400   YYYZ      23.8669
      XXZZ     -40.7059   XYZZ      37.3500   YYZZ     -69.5259
      XZZZ      21.3558   YZZZ     -30.0188   ZZZZ     -59.0177
 -----------------------------------------------------------------
 Calculating analytic gradient of the SCF energy
 Gradient of CDS energy
            1           2           3           4           5           6
    1   0.0002343   0.0001660   0.0000222   0.0000928  -0.0001222  -0.0003931
    2  -0.0005979   0.0000557   0.0000822   0.0000019  -0.0003134   0.0007716
    3   0.0008818  -0.0003092  -0.0003381  -0.0000658  -0.0000785  -0.0000902
 Gradient of SCF Energy
            1           2           3           4           5           6
    1  -0.0076380   0.0078374   0.0002844  -0.0059445   0.0047614   0.0006994
    2   0.0048573  -0.0011744  -0.0034602  -0.0004201   0.0084151  -0.0082178
    3  -0.0073439  -0.0052659   0.0119984  -0.0000874   0.0022227  -0.0015238
 Max gradient component =       1.200E-02
 RMS gradient           =       5.709E-03
 Computing fast CPCM-SWIG gradient
 Updating gradient with PCM contributions...
 -- total gradient after adding PCM contribution --
---------------------------------------------------
  Atom         X              Y              Z     
---------------------------------------------------
   1      -0.001270       0.000410       0.000795
   2       0.001163      -0.000374      -0.000818
   3       0.000053      -0.000024      -0.000004
   4      -0.000061       0.000010       0.000009
   5       0.000050       0.000043       0.000029
   6       0.000064      -0.000065      -0.000012
---------------------------------------------------
 Number of fixed atoms: 0
 Gradient time:  CPU 48.05 s  wall 1.84 s
 ----------------------------------------------------------------
             Standard Nuclear Orientation (Angstroms)
    I     Atom           X                Y                Z
 ----------------------------------------------------------------
    1      C       0.3967596691    -1.5693473831    -0.0259748355
    2      O       1.2947800350    -1.8337144031    -0.7414502642
    3      H       0.3239679043    -1.8356770991     1.0661458281
    4      O      -1.1224527235     1.5235652923     0.1280034475
    5      Li     -0.5343080478     3.0320255941     0.5057178648
    6      Li     -1.2646768372     0.0154279989    -0.5702820407
 ----------------------------------------------------------------
 Nuclear Repulsion Energy =          72.94377299 hartrees
 There are       15 alpha and       14 beta electrons
 Discretize the solute cavity surface with Lebedev spheres
	Using 110 Lebedev grid points for each H atom
	Using 194 Lebedev grid points for other atoms
	Atomic van der Waals radii will be scaled by 1.20
 Remove points where switching function is < 1.0e-08
 Keep 660 surface tesserae and discard 420 interior tesserae
 Molecular Surface Area = 155.755 Angst**2

                       Distance Matrix (Angstroms)
             C (  1)   O (  2)   H (  3)   O (  4)   Li(  5)
   O (  2)  1.178234
   H (  3)  1.126480  2.051800
   O (  4)  3.449322  4.227327  3.775812
   Li(  5)  4.724639  5.345691  4.974459  1.662539
   Li(  6)  2.359694  3.162190  2.937393  1.668025  3.284977
 
 Requested basis set is def2-SVPD
 There are 42 shells and 98 basis functions
 A cutoff of  1.0D-14 yielded    882 shell pairs
 There are      4850 function pairs (      5468 Cartesian)
 Smallest overlap matrix eigenvalue = 5.13E-04
 Guess MOs from SCF MO coefficient file

 -----------------------------------------------------------------------
  General SCF calculation program by
  Eric Jon Sundstrom, Paul Horn, Yuezhi Mao, Dmitri Zuev, Alec White,
  David Stuck, Shaama M.S., Shane Yost, Joonho Lee, David Small,
  Daniel Levine, Susi Lehtola, Hugh Burton, Evgeny Epifanovsky,
  Bang C. Huynh
 -----------------------------------------------------------------------
 Exchange:     0.1670 Hartree-Fock + 1.0000 wB97X-V + LR-HF
 Correlation:  1.0000 wB97X-V
 Using SG-3 standard quadrature grid
 Nonlocal Correlation:  VV10 with C = 0.0100 and b = 6.00 and scale = 1.00000
 Grid used for NLC:  SG-1 standard quadrature
 
 Citation of the SMD model:
 Marenich, A.V.; Cramer, C.J.; Truhlar, D.G.
 J. Phys. Chem. B 2009, 113, 6378-6396.
 iSolventCode=           0
 Solvent: other                                                           
 
 vradii
            1           2           3           4           5           6
    1   1.8500000   2.2940000   1.2000000   2.2940000   2.1476001   2.1476001
 using 40 threads for integral computing
 -------------------------------------------------------
 OpenMP Integral computing Module                
 Release: version 1.0, May 2013, Q-Chem Inc. Pittsburgh 
 -------------------------------------------------------
 using 40 threads for integral computing
 -------------------------------------------------------
 OpenMP Integral computing Module                
 Release: version 1.0, May 2013, Q-Chem Inc. Pittsburgh 
 -------------------------------------------------------
 -------------------------------------------------------
 OpenMP BLAS3 based DFT computing Module                
 Release: version 1.0, May 2013, Q-Chem Inc. Pittsburgh 
 -------------------------------------------------------
 -------------------------------------------------------
 OpenMP BLAS3 based DFT computing Module                
 Release: version 1.0, May 2013, Q-Chem Inc. Pittsburgh 
 -------------------------------------------------------
 -------------------------------------------------------
 OpenMP BLAS3 based DFT computing Module                
 Release: version 1.0, May 2013, Q-Chem Inc. Pittsburgh 
 -------------------------------------------------------
 A unrestricted SCF calculation will be
 performed using Roothaan-Hall, DIIS
 SCF converges when DIIS error is below 1.0e-08
 ---------------------------------------
  Cycle       Energy         DIIS error
 ---------------------------------------
    1    -203.7818898008      3.74e-04  Roothaan Step
 ---------------------------------------
  Cycle       Energy         DIIS error
 ---------------------------------------
    1    -203.9685556294      4.26e-04  
    2    -203.9691627040      5.15e-04  
    3    -203.9701068334      7.32e-05  
    4    -203.9701655578      4.01e-05  
    5    -203.9701770095      2.68e-05  
    6    -203.9701828867      5.95e-06  
    7    -203.9701843955      2.73e-06  
    8    -203.9701848920      1.22e-06  
    9    -203.9701849943      5.73e-07  
   10    -203.9701850150      2.72e-07  
   11    -203.9701850195      1.24e-07  
   12    -203.9701850205      5.08e-08  
   13    -203.9701850207      1.88e-08  
   14    -203.9701850207      7.05e-09  Convergence criterion met
 ---------------------------------------
 SCF time:   CPU 371.57s  wall 12.00s 
<S^2> =          0.753342105
(3)  G-ENP(liq) elect-nuc-pol free energy of system     -203.970185021 a.u.
(4)  G-CDS(liq) cavity-dispersion-solvent structure 
     free energy                                               -0.1829 kcal/mol
(6)  G-S(liq) free energy of system                     -203.970476459 a.u.
 SCF   energy in the final basis set =     -203.9701850207
 Total energy in the final basis set =     -203.9704764591
 
 --------------------------------------------------------------
 
                    Orbital Energies (a.u.)
 --------------------------------------------------------------
 
 Alpha MOs
 -- Occupied --
-19.3054 -19.0562 -10.3992  -2.0335  -2.0194  -1.2415  -0.8411  -0.7378
 -0.6285  -0.5733  -0.5590  -0.3400  -0.3010  -0.2712  -0.2696
 -- Virtual --
  0.0263   0.0324   0.0461   0.0618   0.0649   0.0786   0.0836   0.0890
  0.1121   0.1224   0.1357   0.1518   0.1676   0.1883   0.1973   0.2229
  0.2250   0.2314   0.2450   0.2601   0.2847   0.2908   0.2968   0.3176
  0.3289   0.3376   0.3792   0.3902   0.4239   0.4371   0.4437   0.4680
  0.4900   0.5039   0.5270   0.5691   0.6123   0.6256   0.6370   0.6413
  0.6608   0.6768   0.6845   0.7098   0.7364   0.7602   0.7990   0.8174
  0.8291   0.8645   0.9428   0.9585   1.0058   1.0182   1.0394   1.1535
  1.1933   1.4056   1.4224   1.4818   1.5156   1.6037   1.6162   1.6732
  1.7138   1.7743   1.8891   1.9545   1.9672   2.0749   2.1765   2.6110
  2.7765   2.9120   2.9765   3.0893   3.0933   3.1253   3.1537   3.1639
  3.2484   3.4451   3.8090
 
 Beta MOs
 -- Occupied --
-19.2973 -19.0558 -10.3922  -2.0335  -2.0185  -1.2241  -0.8398  -0.7072
 -0.6012  -0.5496  -0.5157  -0.3006  -0.2706  -0.2683
 -- Virtual --
 -0.0123   0.0273   0.0403   0.0525   0.0622   0.0655   0.0790   0.0847
  0.0911   0.1134   0.1233   0.1387   0.1543   0.1708   0.1892   0.1974
  0.2245   0.2255   0.2361   0.2493   0.2611   0.2867   0.2925   0.3030
  0.3191   0.3353   0.3408   0.3832   0.3924   0.4261   0.4418   0.4515
  0.4702   0.4950   0.5055   0.5346   0.5757   0.6140   0.6302   0.6387
  0.6419   0.6641   0.6820   0.6863   0.7138   0.7391   0.7622   0.8058
  0.8203   0.8320   0.8731   0.9487   0.9625   1.0090   1.0281   1.0480
  1.1594   1.2035   1.4064   1.4244   1.4904   1.5252   1.6216   1.6369
  1.6911   1.7207   1.7817   1.8986   1.9757   1.9893   2.0984   2.1932
  2.6351   2.8002   2.9361   2.9996   3.0906   3.0946   3.1258   3.1552
  3.1648   3.2567   3.4735   3.8221
 --------------------------------------------------------------
 
          Ground-State Mulliken Net Atomic Charges

     Atom                 Charge (a.u.)    Spin (a.u.)
  --------------------------------------------------------
      1 C                     0.207839       0.480048
      2 O                    -0.285539       0.306206
      3 H                     0.065647       0.175511
      4 O                    -1.721757      -0.000050
      5 Li                    0.892261       0.003128
      6 Li                    0.841549       0.035157
  --------------------------------------------------------
  Sum of atomic charges =    -0.000000
  Sum of spin   charges =     1.000000

  Building new vdw surfaces
         Merz-Kollman RESP Net Atomic Charges

     Atom                 Charge (a.u.)
  ----------------------------------------
      1 C                     0.100066
      2 O                    -0.243803
      3 H                     0.220223
      4 O                    -1.772388
      5 Li                    0.905537
      6 Li                    0.790364
  ----------------------------------------
  Sum of atomic charges =     0.000000

  Related Dipole Moment =     1.7414 (X  1.4477 Y -0.2727 Z  0.9285)

 -----------------------------------------------------------------
                    Cartesian Multipole Moments
 -----------------------------------------------------------------
    Charge (ESU x 10^10)
                -0.0000
    Dipole Moment (Debye)
         X       1.3961      Y      -0.3050      Z       0.9806
       Tot       1.7331
    Quadrupole Moments (Debye-Ang)
        XX     -29.0144     XY       9.2729     YY      -1.8158
        XZ       4.7057     YZ       1.9071     ZZ     -21.8235
    Octopole Moments (Debye-Ang^2)
       XXX      15.1071    XXY      -9.3744    XYY       2.7852
       YYY      93.5407    XXZ      -0.5350    XYZ      -4.9868
       YYZ      28.6964    XZZ       2.1750    YZZ       2.2361
       ZZZ       8.8385
    Hexadecapole Moments (Debye-Ang^3)
      XXXX    -196.3928   XXXY     135.3591   XXYY    -124.8807
      XYYY      86.8009   YYYY     -69.9738   XXXZ      27.7281
      XXYZ     -12.5130   XYYZ       2.3392   YYYZ      23.8883
      XXZZ     -40.7105   XYZZ      37.3580   YYZZ     -69.5092
      XZZZ      21.3531   YZZZ     -30.0052   ZZZZ     -59.0198
 -----------------------------------------------------------------
 Calculating analytic gradient of the SCF energy
 Gradient of CDS energy
            1           2           3           4           5           6
    1   0.0002366   0.0001651   0.0000225   0.0000928  -0.0001222  -0.0003948
    2  -0.0005963   0.0000540   0.0000822   0.0000019  -0.0003134   0.0007716
    3   0.0008773  -0.0003065  -0.0003372  -0.0000658  -0.0000785  -0.0000893
 Gradient of SCF Energy
            1           2           3           4           5           6
    1  -0.0067565   0.0070236   0.0002264  -0.0059398   0.0047626   0.0006836
    2   0.0047364  -0.0009737  -0.0035213  -0.0004321   0.0084161  -0.0082253
    3  -0.0080581  -0.0046632   0.0121185  -0.0000856   0.0022227  -0.0015343
 Max gradient component =       1.212E-02
 RMS gradient           =       5.621E-03
 Computing fast CPCM-SWIG gradient
 Updating gradient with PCM contributions...
 -- total gradient after adding PCM contribution --
---------------------------------------------------
  Atom         X              Y              Z     
---------------------------------------------------
   1      -0.000409       0.000262       0.000078
   2       0.000353      -0.000162      -0.000219
   3       0.000012      -0.000072       0.000123
   4      -0.000054      -0.000004       0.000009
   5       0.000051       0.000044       0.000029
   6       0.000046      -0.000068      -0.000021
---------------------------------------------------
 Number of fixed atoms: 0
 Gradient time:  CPU 48.14 s  wall 1.76 s
 ----------------------------------------------------------------
             Standard Nuclear Orientation (Angstroms)
    I     Atom           X                Y                Z
 ----------------------------------------------------------------
    1      C       0.3967596691    -1.5713473831    -0.0259748355
    2      O       1.2947800350    -1.8337144031    -0.7414502642
    3      H       0.3239679043    -1.8356770991     1.0661458281
    4      O      -1.1224527235     1.5235652923     0.1280034475
    5      Li     -0.5343080478     3.0320255941     0.5057178648
    6      Li     -1.2646768372     0.0154279989    -0.5702820407
 ----------------------------------------------------------------
 Nuclear Repulsion Energy =          72.94618189 hartrees
 There are       15 alpha and       14 beta electrons
 Discretize the solute cavity surface with Lebedev spheres
	Using 110 Lebedev grid points for each H atom
	Using 194 Lebedev grid points for other atoms
	Atomic van der Waals radii will be scaled by 1.20
 Remove points where switching function is < 1.0e-08
 Keep 661 surface tesserae and discard 419 interior tesserae
 Molecular Surface Area = 155.760 Angst**2

                       Distance Matrix (Angstroms)
             C (  1)   O (  2)   H (  3)   O (  4)   Li(  5)
   O (  2)  1.177787
   H (  3)  1.126009  2.051800
   O (  4)  3.451116  4.227327  3.775812
   Li(  5)  4.726587  5.345691  4.974459  1.662539
   Li(  6)  2.361037  3.162190  2.937393  1.668025  3.284977
 
 Requested basis set is def2-SVPD
 There are 42 shells and 98 basis functions
 A cutoff of  1.0D-14 yielded    882 shell pairs
 There are      4850 function pairs (      5468 Cartesian)
 Smallest overlap matrix eigenvalue = 5.12E-04
 Guess MOs from SCF MO coefficient file

 -----------------------------------------------------------------------
  General SCF calculation program by
  Eric Jon Sundstrom, Paul Horn, Yuezhi Mao, Dmitri Zuev, Alec White,
  David Stuck, Shaama M.S., Shane Yost, Joonho Lee, David Small,
  Daniel Levine, Susi Lehtola, Hugh Burton, Evgeny Epifanovsky,
  Bang C. Huynh
 -----------------------------------------------------------------------
 Exchange:     0.1670 Hartree-Fock + 1.0000 wB97X-V + LR-HF
 Correlation:  1.0000 wB97X-V
 Using SG-3 standard quadrature grid
 Nonlocal Correlation:  VV10 with C = 0.0100 and b = 6.00 and scale = 1.00000
 Grid used for NLC:  SG-1 standard quadrature
 
 Citation of the SMD model:
 Marenich, A.V.; Cramer, C.J.; Truhlar, D.G.
 J. Phys. Chem. B 2009, 113, 6378-6396.
 iSolventCode=           0
 Solvent: other                                                           
 
 vradii
            1           2           3           4           5           6
    1   1.8500000   2.2940000   1.2000000   2.2940000   2.1476001   2.1476001
 using 40 threads for integral computing
 -------------------------------------------------------
 OpenMP Integral computing Module                
 Release: version 1.0, May 2013, Q-Chem Inc. Pittsburgh 
 -------------------------------------------------------
 using 40 threads for integral computing
 -------------------------------------------------------
 OpenMP Integral computing Module                
 Release: version 1.0, May 2013, Q-Chem Inc. Pittsburgh 
 -------------------------------------------------------
 -------------------------------------------------------
 OpenMP BLAS3 based DFT computing Module                
 Release: version 1.0, May 2013, Q-Chem Inc. Pittsburgh 
 -------------------------------------------------------
 -------------------------------------------------------
 OpenMP BLAS3 based DFT computing Module                
 Release: version 1.0, May 2013, Q-Chem Inc. Pittsburgh 
 -------------------------------------------------------
 -------------------------------------------------------
 OpenMP BLAS3 based DFT computing Module                
 Release: version 1.0, May 2013, Q-Chem Inc. Pittsburgh 
 -------------------------------------------------------
 A unrestricted SCF calculation will be
 performed using Roothaan-Hall, DIIS
 SCF converges when DIIS error is below 1.0e-08
 ---------------------------------------
  Cycle       Energy         DIIS error
 ---------------------------------------
    1    -203.7818244870      3.73e-04  Roothaan Step
 ---------------------------------------
  Cycle       Energy         DIIS error
 ---------------------------------------
    1    -203.9685581022      4.26e-04  
    2    -203.9691624954      5.16e-04  
    3    -203.9701107898      7.29e-05  
    4    -203.9701688888      4.01e-05  
    5    -203.9701800759      2.66e-05  
    6    -203.9701857033      5.61e-06  
    7    -203.9701870033      2.40e-06  
    8    -203.9701873713      1.00e-06  
    9    -203.9701874373      4.69e-07  
   10    -203.9701874502      2.31e-07  
   11    -203.9701874534      1.11e-07  
   12    -203.9701874542      4.76e-08  
   13    -203.9701874544      1.85e-08  
   14    -203.9701874544      7.00e-09  Convergence criterion met
 ---------------------------------------
 SCF time:   CPU 374.12s  wall 12.00s 
<S^2> =          0.753332854
(3)  G-ENP(liq) elect-nuc-pol free energy of system     -203.970187454 a.u.
(4)  G-CDS(liq) cavity-dispersion-solvent structure 
     free energy                                               -0.1815 kcal/mol
(6)  G-S(liq) free energy of system                     -203.970476631 a.u.
 SCF   energy in the final basis set =     -203.9701874544
 Total energy in the final basis set =     -203.9704766313
 
 --------------------------------------------------------------
 
                    Orbital Energies (a.u.)
 --------------------------------------------------------------
 
 Alpha MOs
 -- Occupied --
-19.3054 -19.0562 -10.3991  -2.0335  -2.0194  -1.2418  -0.8411  -0.7379
 -0.6286  -0.5734  -0.5591  -0.3398  -0.3010  -0.2712  -0.2696
 -- Virtual --
  0.0263   0.0325   0.0461   0.0618   0.0649   0.0786   0.0836   0.0890
  0.1121   0.1224   0.1357   0.1518   0.1676   0.1883   0.1973   0.2229
  0.2250   0.2314   0.2450   0.2601   0.2847   0.2908   0.2968   0.3176
  0.3289   0.3375   0.3791   0.3902   0.4239   0.4372   0.4439   0.4680
  0.4901   0.5040   0.5269   0.5694   0.6124   0.6256   0.6370   0.6413
  0.6606   0.6769   0.6845   0.7099   0.7364   0.7599   0.7990   0.8175
  0.8290   0.8644   0.9429   0.9584   1.0057   1.0182   1.0398   1.1533
  1.1931   1.4056   1.4225   1.4821   1.5156   1.6037   1.6162   1.6732
  1.7138   1.7741   1.8889   1.9545   1.9676   2.0745   2.1769   2.6128
  2.7763   2.9121   2.9764   3.0893   3.0933   3.1253   3.1536   3.1639
  3.2492   3.4465   3.8099
 
 Beta MOs
 -- Occupied --
-19.2973 -19.0558 -10.3921  -2.0335  -2.0185  -1.2244  -0.8398  -0.7073
 -0.6013  -0.5497  -0.5159  -0.3006  -0.2706  -0.2684
 -- Virtual --
 -0.0121   0.0273   0.0404   0.0525   0.0622   0.0655   0.0790   0.0847
  0.0911   0.1134   0.1233   0.1387   0.1543   0.1708   0.1892   0.1974
  0.2245   0.2255   0.2361   0.2493   0.2611   0.2867   0.2925   0.3030
  0.3191   0.3353   0.3407   0.3832   0.3924   0.4260   0.4419   0.4516
  0.4702   0.4952   0.5055   0.5344   0.5759   0.6141   0.6301   0.6387
  0.6419   0.6638   0.6821   0.6863   0.7139   0.7391   0.7619   0.8059
  0.8204   0.8319   0.8730   0.9487   0.9624   1.0089   1.0281   1.0484
  1.1592   1.2033   1.4064   1.4245   1.4907   1.5252   1.6216   1.6368
  1.6911   1.7207   1.7815   1.8984   1.9757   1.9897   2.0980   2.1935
  2.6369   2.8000   2.9361   2.9995   3.0905   3.0946   3.1258   3.1551
  3.1647   3.2574   3.4749   3.8230
 --------------------------------------------------------------
 
          Ground-State Mulliken Net Atomic Charges

     Atom                 Charge (a.u.)    Spin (a.u.)
  --------------------------------------------------------
      1 C                     0.209053       0.480600
      2 O                    -0.285260       0.305907
      3 H                     0.064447       0.175310
      4 O                    -1.722022      -0.000126
      5 Li                    0.892220       0.003152
      6 Li                    0.841562       0.035157
  --------------------------------------------------------
  Sum of atomic charges =    -0.000000
  Sum of spin   charges =     1.000000

  Building new vdw surfaces
         Merz-Kollman RESP Net Atomic Charges

     Atom                 Charge (a.u.)
  ----------------------------------------
      1 C                     0.100583
      2 O                    -0.243841
      3 H                     0.219982
      4 O                    -1.772082
      5 Li                    0.905436
      6 Li                    0.789921
  ----------------------------------------
  Sum of atomic charges =     0.000000

  Related Dipole Moment =     1.7430 (X  1.4494 Y -0.2744 Z  0.9285)

 -----------------------------------------------------------------
                    Cartesian Multipole Moments
 -----------------------------------------------------------------
    Charge (ESU x 10^10)
                -0.0000
    Dipole Moment (Debye)
         X       1.3979      Y      -0.3066      Z       0.9803
       Tot       1.7347
    Quadrupole Moments (Debye-Ang)
        XX     -29.0160     XY       9.2688     YY      -1.8093
        XZ       4.7039     YZ       1.9072     ZZ     -21.8230
    Octopole Moments (Debye-Ang^2)
       XXX      15.1121    XXY      -9.3641    XYY       2.7986
       YYY      93.5405    XXZ      -0.5354    XYZ      -4.9840
       YYZ      28.6951    XZZ       2.1767    YZZ       2.2462
       ZZZ       8.8371
    Hexadecapole Moments (Debye-Ang^3)
      XXXX    -196.4003   XXXY     135.3678   XXYY    -124.9142
      XYYY      86.7816   YYYY     -70.0763   XXXZ      27.7257
      XXYZ     -12.5142   XYYZ       2.3333   YYYZ      23.8926
      XXZZ     -40.7104   XYZZ      37.3609   YYZZ     -69.5440
      XZZZ      21.3490   YZZZ     -30.0049   ZZZZ     -59.0177
 -----------------------------------------------------------------
 Calculating analytic gradient of the SCF energy
 Gradient of CDS energy
            1           2           3           4           5           6
    1   0.0002375   0.0001613   0.0000226   0.0000928  -0.0001222  -0.0003920
    2  -0.0006004   0.0000588   0.0000820   0.0000019  -0.0003134   0.0007712
    3   0.0008819  -0.0003081  -0.0003387  -0.0000658  -0.0000785  -0.0000909
 Gradient of SCF Energy
            1           2           3           4           5           6
    1  -0.0060378   0.0063617   0.0001744  -0.0059447   0.0047640   0.0006824
    2   0.0042604  -0.0006947  -0.0033601  -0.0004261   0.0084178  -0.0081973
    3  -0.0082701  -0.0042230   0.0118926  -0.0000855   0.0022227  -0.0015367
 Max gradient component =       1.189E-02
 RMS gradient           =       5.470E-03
 Computing fast CPCM-SWIG gradient
 Updating gradient with PCM contributions...
 -- total gradient after adding PCM contribution --
---------------------------------------------------
  Atom         X              Y              Z     
---------------------------------------------------
   1       0.000323      -0.000170      -0.000146
   2      -0.000321       0.000106       0.000236
   3      -0.000040       0.000060      -0.000107
   4      -0.000057       0.000001       0.000009
   5       0.000052       0.000045       0.000030
   6       0.000044      -0.000043      -0.000023
---------------------------------------------------
 Number of fixed atoms: 0
 Gradient time:  CPU 48.19 s  wall 1.65 s
 ----------------------------------------------------------------
             Standard Nuclear Orientation (Angstroms)
    I     Atom           X                Y                Z
 ----------------------------------------------------------------
    1      C       0.3967596691    -1.5703473831    -0.0249748355
    2      O       1.2947800350    -1.8337144031    -0.7414502642
    3      H       0.3239679043    -1.8356770991     1.0661458281
    4      O      -1.1224527235     1.5235652923     0.1280034475
    5      Li     -0.5343080478     3.0320255941     0.5057178648
    6      Li     -1.2646768372     0.0154279989    -0.5702820407
 ----------------------------------------------------------------
 Nuclear Repulsion Energy =          72.93604574 hartrees
 There are       15 alpha and       14 beta electrons
 Discretize the solute cavity surface with Lebedev spheres
	Using 110 Lebedev grid points for each H atom
	Using 194 Lebedev grid points for other atoms
	Atomic van der Waals radii will be scaled by 1.20
 Remove points where switching function is < 1.0e-08
 Keep 661 surface tesserae and discard 419 interior tesserae
 Molecular Surface Area = 155.755 Angst**2

                       Distance Matrix (Angstroms)
             C (  1)   O (  2)   H (  3)   O (  4)   Li(  5)
   O (  2)  1.178618
   H (  3)  1.125275  2.051800
   O (  4)  3.450175  4.227327  3.775812
   Li(  5)  4.725501  5.345691  4.974459  1.662539
   Li(  6)  2.360596  3.162190  2.937393  1.668025  3.284977
 
 Requested basis set is def2-SVPD
 There are 42 shells and 98 basis functions
 A cutoff of  1.0D-14 yielded    882 shell pairs
 There are      4850 function pairs (      5468 Cartesian)
 Smallest overlap matrix eigenvalue = 5.12E-04
 Guess MOs from SCF MO coefficient file

 -----------------------------------------------------------------------
  General SCF calculation program by
  Eric Jon Sundstrom, Paul Horn, Yuezhi Mao, Dmitri Zuev, Alec White,
  David Stuck, Shaama M.S., Shane Yost, Joonho Lee, David Small,
  Daniel Levine, Susi Lehtola, Hugh Burton, Evgeny Epifanovsky,
  Bang C. Huynh
 -----------------------------------------------------------------------
 Exchange:     0.1670 Hartree-Fock + 1.0000 wB97X-V + LR-HF
 Correlation:  1.0000 wB97X-V
 Using SG-3 standard quadrature grid
 Nonlocal Correlation:  VV10 with C = 0.0100 and b = 6.00 and scale = 1.00000
 Grid used for NLC:  SG-1 standard quadrature
 
 Citation of the SMD model:
 Marenich, A.V.; Cramer, C.J.; Truhlar, D.G.
 J. Phys. Chem. B 2009, 113, 6378-6396.
 iSolventCode=           0
 Solvent: other                                                           
 
 vradii
            1           2           3           4           5           6
    1   1.8500000   2.2940000   1.2000000   2.2940000   2.1476001   2.1476001
 using 40 threads for integral computing
 -------------------------------------------------------
 OpenMP Integral computing Module                
 Release: version 1.0, May 2013, Q-Chem Inc. Pittsburgh 
 -------------------------------------------------------
 using 40 threads for integral computing
 -------------------------------------------------------
 OpenMP Integral computing Module                
 Release: version 1.0, May 2013, Q-Chem Inc. Pittsburgh 
 -------------------------------------------------------
 -------------------------------------------------------
 OpenMP BLAS3 based DFT computing Module                
 Release: version 1.0, May 2013, Q-Chem Inc. Pittsburgh 
 -------------------------------------------------------
 -------------------------------------------------------
 OpenMP BLAS3 based DFT computing Module                
 Release: version 1.0, May 2013, Q-Chem Inc. Pittsburgh 
 -------------------------------------------------------
 -------------------------------------------------------
 OpenMP BLAS3 based DFT computing Module                
 Release: version 1.0, May 2013, Q-Chem Inc. Pittsburgh 
 -------------------------------------------------------
 A unrestricted SCF calculation will be
 performed using Roothaan-Hall, DIIS
 SCF converges when DIIS error is below 1.0e-08
 ---------------------------------------
  Cycle       Energy         DIIS error
 ---------------------------------------
    1    -203.7818992009      3.73e-04  Roothaan Step
 ---------------------------------------
  Cycle       Energy         DIIS error
 ---------------------------------------
    1    -203.9685470000      4.29e-04  
    2    -203.9691465589      5.20e-04  
    3    -203.9701092851      7.27e-05  
    4    -203.9701677107      4.02e-05  
    5    -203.9701791315      2.68e-05  
    6    -203.9701849762      5.90e-06  
    7    -203.9701864475      2.70e-06  
    8    -203.9701869267      1.21e-06  
    9    -203.9701870269      5.90e-07  
   10    -203.9701870478      2.90e-07  
   11    -203.9701870532      1.26e-07  
   12    -203.9701870543      5.07e-08  
   13    -203.9701870544      1.88e-08  
   14    -203.9701870545      7.06e-09  Convergence criterion met
 ---------------------------------------
 SCF time:   CPU 364.05s  wall 12.00s 
<S^2> =          0.753336154
(3)  G-ENP(liq) elect-nuc-pol free energy of system     -203.970187054 a.u.
(4)  G-CDS(liq) cavity-dispersion-solvent structure 
     free energy                                               -0.1811 kcal/mol
(6)  G-S(liq) free energy of system                     -203.970475694 a.u.
 SCF   energy in the final basis set =     -203.9701870545
 Total energy in the final basis set =     -203.9704756936
 
 --------------------------------------------------------------
 
                    Orbital Energies (a.u.)
 --------------------------------------------------------------
 
 Alpha MOs
 -- Occupied --
-19.3054 -19.0562 -10.3992  -2.0335  -2.0194  -1.2413  -0.8411  -0.7381
 -0.6285  -0.5732  -0.5588  -0.3400  -0.3010  -0.2712  -0.2696
 -- Virtual --
  0.0263   0.0323   0.0460   0.0618   0.0649   0.0786   0.0836   0.0890
  0.1121   0.1224   0.1357   0.1518   0.1676   0.1883   0.1973   0.2229
  0.2250   0.2314   0.2451   0.2601   0.2848   0.2908   0.2968   0.3175
  0.3289   0.3376   0.3791   0.3902   0.4239   0.4372   0.4438   0.4680
  0.4901   0.5039   0.5268   0.5692   0.6123   0.6256   0.6370   0.6413
  0.6608   0.6768   0.6845   0.7098   0.7364   0.7601   0.7991   0.8175
  0.8291   0.8645   0.9429   0.9585   1.0058   1.0183   1.0391   1.1534
  1.1931   1.4056   1.4224   1.4817   1.5156   1.6037   1.6161   1.6730
  1.7138   1.7742   1.8892   1.9546   1.9684   2.0746   2.1773   2.6118
  2.7770   2.9120   2.9765   3.0893   3.0933   3.1253   3.1536   3.1639
  3.2482   3.4458   3.8086
 
 Beta MOs
 -- Occupied --
-19.2973 -19.0558 -10.3922  -2.0335  -2.0185  -1.2239  -0.8398  -0.7075
 -0.6012  -0.5494  -0.5156  -0.3006  -0.2706  -0.2684
 -- Virtual --
 -0.0122   0.0273   0.0403   0.0524   0.0622   0.0655   0.0790   0.0847
  0.0911   0.1134   0.1233   0.1387   0.1544   0.1709   0.1892   0.1974
  0.2245   0.2255   0.2361   0.2493   0.2611   0.2868   0.2925   0.3030
  0.3191   0.3353   0.3408   0.3832   0.3924   0.4260   0.4419   0.4517
  0.4702   0.4951   0.5055   0.5343   0.5758   0.6140   0.6302   0.6386
  0.6419   0.6640   0.6820   0.6863   0.7139   0.7391   0.7621   0.8059
  0.8203   0.8320   0.8732   0.9487   0.9624   1.0089   1.0283   1.0477
  1.1593   1.2033   1.4064   1.4244   1.4902   1.5253   1.6215   1.6368
  1.6910   1.7206   1.7816   1.8988   1.9758   1.9905   2.0980   2.1940
  2.6359   2.8006   2.9361   2.9995   3.0906   3.0946   3.1258   3.1552
  3.1647   3.2564   3.4742   3.8218
 --------------------------------------------------------------
 
          Ground-State Mulliken Net Atomic Charges

     Atom                 Charge (a.u.)    Spin (a.u.)
  --------------------------------------------------------
      1 C                     0.211573       0.480847
      2 O                    -0.286393       0.306116
      3 H                     0.062931       0.174826
      4 O                    -1.721906      -0.000036
      5 Li                    0.892253       0.003138
      6 Li                    0.841542       0.035109
  --------------------------------------------------------
  Sum of atomic charges =    -0.000000
  Sum of spin   charges =     1.000000

  Building new vdw surfaces
         Merz-Kollman RESP Net Atomic Charges

     Atom                 Charge (a.u.)
  ----------------------------------------
      1 C                     0.100349
      2 O                    -0.244202
      3 H                     0.220357
      4 O                    -1.772273
      5 Li                    0.905515
      6 Li                    0.790254
  ----------------------------------------
  Sum of atomic charges =     0.000000

  Related Dipole Moment =     1.7415 (X  1.4461 Y -0.2725 Z  0.9313)

 -----------------------------------------------------------------
                    Cartesian Multipole Moments
 -----------------------------------------------------------------
    Charge (ESU x 10^10)
                -0.0000
    Dipole Moment (Debye)
         X       1.3946      Y      -0.3048      Z       0.9833
       Tot       1.7334
    Quadrupole Moments (Debye-Ang)
        XX     -29.0169     XY       9.2742     YY      -1.8136
        XZ       4.7073     YZ       1.9018     ZZ     -21.8228
    Octopole Moments (Debye-Ang^2)
       XXX      15.1009    XXY      -9.3640    XYY       2.7815
       YYY      93.5507    XXZ      -0.5381    XYZ      -4.9885
       YYZ      28.7024    XZZ       2.1735    YZZ       2.2416
       ZZZ       8.8296
    Hexadecapole Moments (Debye-Ang^3)
      XXXX    -196.4065   XXXY     135.3730   XXYY    -124.9050
      XYYY      86.8119   YYYY     -70.0409   XXXZ      27.7256
      XXYZ     -12.5094   XYYZ       2.3405   YYYZ      23.8837
      XXZZ     -40.7097   XYZZ      37.3618   YYZZ     -69.5246
      XZZZ      21.3508   YZZZ     -29.9948   ZZZZ     -59.0105
 -----------------------------------------------------------------
 Calculating analytic gradient of the SCF energy
 Gradient of CDS energy
            1           2           3           4           5           6
    1   0.0002348   0.0001631   0.0000227   0.0000928  -0.0001222  -0.0003913
    2  -0.0006006   0.0000587   0.0000828   0.0000019  -0.0003134   0.0007706
    3   0.0008883  -0.0003115  -0.0003406  -0.0000658  -0.0000785  -0.0000919
 Gradient of SCF Energy
            1           2           3           4           5           6
    1  -0.0072275   0.0075338   0.0001953  -0.0059408   0.0047618   0.0006774
    2   0.0045980  -0.0010676  -0.0033110  -0.0004238   0.0084157  -0.0082113
    3  -0.0069731  -0.0051779   0.0115511  -0.0000897   0.0022232  -0.0015335
 Max gradient component =       1.155E-02
 RMS gradient           =       5.554E-03
 Computing fast CPCM-SWIG gradient
 Updating gradient with PCM contributions...
 -- total gradient after adding PCM contribution --
---------------------------------------------------
  Atom         X              Y              Z     
---------------------------------------------------
   1      -0.000873       0.000156       0.001151
   2       0.000860      -0.000266      -0.000715
   3      -0.000024       0.000120      -0.000452
   4      -0.000056       0.000002       0.000008
   5       0.000051       0.000044       0.000029
   6       0.000042      -0.000055      -0.000021
---------------------------------------------------
 Number of fixed atoms: 0
 Gradient time:  CPU 46.75 s  wall 1.62 s
 ----------------------------------------------------------------
             Standard Nuclear Orientation (Angstroms)
    I     Atom           X                Y                Z
 ----------------------------------------------------------------
    1      C       0.3967596691    -1.5703473831    -0.0269748355
    2      O       1.2947800350    -1.8337144031    -0.7414502642
    3      H       0.3239679043    -1.8356770991     1.0661458281
    4      O      -1.1224527235     1.5235652923     0.1280034475
    5      Li     -0.5343080478     3.0320255941     0.5057178648
    6      Li     -1.2646768372     0.0154279989    -0.5702820407
 ----------------------------------------------------------------
 Nuclear Repulsion Energy =          72.95392731 hartrees
 There are       15 alpha and       14 beta electrons
 Discretize the solute cavity surface with Lebedev spheres
	Using 110 Lebedev grid points for each H atom
	Using 194 Lebedev grid points for other atoms
	Atomic van der Waals radii will be scaled by 1.20
 Remove points where switching function is < 1.0e-08
 Keep 662 surface tesserae and discard 418 interior tesserae
 Molecular Surface Area = 155.760 Angst**2

                       Distance Matrix (Angstroms)
             C (  1)   O (  2)   H (  3)   O (  4)   Li(  5)
   O (  2)  1.177403
   H (  3)  1.127214  2.051800
   O (  4)  3.450264  4.227327  3.775812
   Li(  5)  4.725726  5.345691  4.974459  1.662539
   Li(  6)  2.360135  3.162190  2.937393  1.668025  3.284977
 
 Requested basis set is def2-SVPD
 There are 42 shells and 98 basis functions
 A cutoff of  1.0D-14 yielded    882 shell pairs
 There are      4850 function pairs (      5468 Cartesian)
 Smallest overlap matrix eigenvalue = 5.13E-04
 Guess MOs from SCF MO coefficient file

 -----------------------------------------------------------------------
  General SCF calculation program by
  Eric Jon Sundstrom, Paul Horn, Yuezhi Mao, Dmitri Zuev, Alec White,
  David Stuck, Shaama M.S., Shane Yost, Joonho Lee, David Small,
  Daniel Levine, Susi Lehtola, Hugh Burton, Evgeny Epifanovsky,
  Bang C. Huynh
 -----------------------------------------------------------------------
 Exchange:     0.1670 Hartree-Fock + 1.0000 wB97X-V + LR-HF
 Correlation:  1.0000 wB97X-V
 Using SG-3 standard quadrature grid
 Nonlocal Correlation:  VV10 with C = 0.0100 and b = 6.00 and scale = 1.00000
 Grid used for NLC:  SG-1 standard quadrature
 
 Citation of the SMD model:
 Marenich, A.V.; Cramer, C.J.; Truhlar, D.G.
 J. Phys. Chem. B 2009, 113, 6378-6396.
 iSolventCode=           0
 Solvent: other                                                           
 
 vradii
            1           2           3           4           5           6
    1   1.8500000   2.2940000   1.2000000   2.2940000   2.1476001   2.1476001
 using 40 threads for integral computing
 -------------------------------------------------------
 OpenMP Integral computing Module                
 Release: version 1.0, May 2013, Q-Chem Inc. Pittsburgh 
 -------------------------------------------------------
 using 40 threads for integral computing
 -------------------------------------------------------
 OpenMP Integral computing Module                
 Release: version 1.0, May 2013, Q-Chem Inc. Pittsburgh 
 -------------------------------------------------------
 -------------------------------------------------------
 OpenMP BLAS3 based DFT computing Module                
 Release: version 1.0, May 2013, Q-Chem Inc. Pittsburgh 
 -------------------------------------------------------
 -------------------------------------------------------
 OpenMP BLAS3 based DFT computing Module                
 Release: version 1.0, May 2013, Q-Chem Inc. Pittsburgh 
 -------------------------------------------------------
 -------------------------------------------------------
 OpenMP BLAS3 based DFT computing Module                
 Release: version 1.0, May 2013, Q-Chem Inc. Pittsburgh 
 -------------------------------------------------------
 A unrestricted SCF calculation will be
 performed using Roothaan-Hall, DIIS
 SCF converges when DIIS error is below 1.0e-08
 ---------------------------------------
  Cycle       Energy         DIIS error
 ---------------------------------------
    1    -203.7819376414      3.74e-04  Roothaan Step
 ---------------------------------------
  Cycle       Energy         DIIS error
 ---------------------------------------
    1    -203.9685662222      4.24e-04  
    2    -203.9691765332      5.11e-04  
[...]
 ----------------------------------------------------------------
             Standard Nuclear Orientation (Angstroms)
    I     Atom           X                Y                Z
 ----------------------------------------------------------------
    1      C       0.3967596691    -1.5703473831    -0.0259748355
    2      O       1.2947800350    -1.8337144031    -0.7414502642
    3      H       0.3239679043    -1.8356770991     1.0661458281
    4      O      -1.1224527235     1.5235652923     0.1280034475
    5      Li     -0.5343080478     3.0320255941     0.5057178648
    6      Li     -1.2646768372     0.0154279989    -0.5702820407
 ----------------------------------------------------------------
 Nuclear Repulsion Energy =          72.94498433 hartrees
 There are       15 alpha and       14 beta electrons
 old dipole drv.
            1           2           3           4           5           6
    1   0.4659445  -0.1908673  -0.5097758  -0.7356894   0.1865346   0.4187311
    2  -0.3347346   0.1671288   0.2012385   0.2932617  -0.2602955  -0.1736644
    3  -0.3871931   0.0333747   0.5982487   0.4497213  -0.1142992  -0.6160466
            7           8           9          10          11          12
    1   0.2581700   0.0006838   0.0563312  -1.6830897   0.0684061  -0.0083853
    2   0.0496588   0.2343020   0.0182406   0.0435275  -1.9767150  -0.0732063
    3  -0.0826387   0.1109041   0.0474927  -0.0126981  -0.0658853  -1.6555273
           13          14          15          16          17          18
    1   0.8269488  -0.0084687  -0.0046324   0.8677147  -0.0562893   0.0477326
    2   0.0443236   0.9371519   0.0273272  -0.0960390   0.8984252   0.0000653
    3   0.0121990   0.0354546   0.8432809   0.0206098   0.0004518   0.7825533
 New transposed dipole drv.
            1           2           3
    1   0.4659445  -0.3347346  -0.3871931
    2  -0.1908673   0.1671288   0.0333747
    3  -0.5097758   0.2012385   0.5982487
    4  -0.7356894   0.2932617   0.4497213
    5   0.1865346  -0.2602955  -0.1142992
    6   0.4187311  -0.1736644  -0.6160466
    7   0.2581700   0.0496588  -0.0826387
    8   0.0006838   0.2343020   0.1109041
    9   0.0563312   0.0182406   0.0474927
   10  -1.6830897   0.0435275  -0.0126981
   11   0.0684061  -1.9767150  -0.0658853
   12  -0.0083853  -0.0732063  -1.6555273
   13   0.8269488   0.0443236   0.0121990
   14  -0.0084687   0.9371519   0.0354546
   15  -0.0046324   0.0273272   0.8432809
   16   0.8677147  -0.0960390   0.0206098
   17  -0.0562893   0.8984252   0.0004518
   18   0.0477326   0.0000653   0.7825533
FINAL TENSOR RESULT:
Order 2, Length 18
    Atom      X          Y          Z
     1 Order 1, Length 18
    Atom      X          Y          Z
     1    6.503988438494431e-01  -1.936013243377641e-01  -4.400670925490653e-01
     2   -6.082535804182452e-01   1.842218436959955e-01   4.387570691837731e-01
     3   -3.550070024046872e-02   9.777078345120156e-03   6.358561473735081e-03
     4    2.883209319052863e-03  -6.293117135879715e-03   2.285916049367377e-05
     5    5.407479989687207e-04   9.241204896288708e-04   2.762750105317602e-04
     6   -1.006858190056057e-02   4.971374923390176e-03  -5.347513403107055e-03

Order 1, Length 18
    Atom      X          Y          Z
     1   -1.936013243377641e-01   1.141672861853408e-01   5.924777116201597e-02
     2    1.785379064235794e-01  -7.089482120239542e-02  -1.203250381853507e-01
     3    1.383673477639549e-02  -3.510606731964432e-02   6.075818284069034e-02
     4    9.430160252020974e-04  -1.306568354480156e-03   2.713198135191132e-06
     5   -1.946295427257624e-04  -3.340700049916928e-04  -8.490698505109632e-05
     6    4.781033111097240e-04  -6.526089277279877e-03   4.012338945368164e-04

Order 1, Length 18
    Atom      X          Y          Z
     1   -4.400670925490653e-01   5.924777116201597e-02   6.262651774732682e-01
     2    4.477446792428435e-01  -1.268123439903520e-01  -3.831929903336988e-01
     3   -5.597307810867142e-03   6.613162251262991e-02  -2.426651735874428e-01
     4   -2.620882476419282e-04   1.854865403227306e-03  -4.274132922164096e-04
     5   -3.034631908646605e-04  -4.383017252794793e-04  -1.445956186312776e-04
     6   -1.514714672684893e-03   1.639122718022666e-05   1.651413401318396e-04


     2 Order 1, Length 18
    Atom      X          Y          Z
     1   -6.082535804182452e-01   1.785379064235794e-01   4.477446792428435e-01
     2    6.059251715987704e-01  -1.782246390054754e-01  -4.709691162919813e-01
     3    3.423724485683586e-03  -4.222019955379250e-03   1.966330478507931e-02
     4   -1.622163336682461e-03   4.799175014949600e-03  -2.678163693710883e-04
     5   -4.301591041840949e-04  -6.714563726242970e-04  -1.930310218851270e-04
     6    9.569775579351570e-04  -2.190142250762520e-04   4.021718036433429e-03

Order 1, Length 18
    Atom      X          Y          Z
     1    1.842218436959955e-01  -7.089482120239542e-02  -1.268123439903520e-01
     2   -1.782246390054754e-01   6.150802040266738e-02   1.286899321872829e-01
     3   -8.509488621767959e-03   8.593982919508872e-03  -1.237419861422904e-03
     4   -2.940688543117510e-04  -1.478463668612355e-04  -1.508443684516214e-04
     5    1.088760593571699e-04   1.734018025685537e-04   3.515506911119141e-05
     6    2.697577304932185e-03   7.674649445517717e-04  -5.243194956587149e-04

Order 1, Length 18
    Atom      X          Y          Z
     1    4.387570691837731e-01  -1.203250381853507e-01  -3.831929903336988e-01
     2   -4.709691162919813e-01   1.286899321872829e-01   4.117030738004540e-01
     3    3.215249525717175e-02  -7.776676140622571e-03  -2.772641895928971e-02
     4    5.541899653332084e-04  -2.148556935313775e-03   2.277221590612969e-04
     5    2.575254348161608e-04   3.975009082491709e-04   1.064077689777276e-04
     6   -7.520992281028671e-04   1.162834333893395e-03  -1.117904724641220e-03


     3 Order 1, Length 18
    Atom      X          Y          Z
     1   -3.550070024046872e-02   1.383673477639549e-02  -5.597307810867142e-03
     2    3.423724485683586e-03  -8.509488621767959e-03   3.215249525717175e-02
     3    3.159091119180975e-02  -6.803414925643641e-03  -2.624919610885824e-02
     4   -5.631647282136375e-04   7.707967762288876e-04   3.543235616833890e-04
     5   -4.789443611846460e-05  -1.109351142083572e-04  -4.386646487017004e-05
     6    1.097210526274869e-03   8.163524166745215e-04  -6.164684314351059e-04

Order 1, Length 18
    Atom      X          Y          Z
     1    9.777078345120156e-03  -3.510606731964432e-02   6.613162251262991e-02
     2   -4.222019955379250e-03   8.593982919508872e-03  -7.776676140622571e-03
     3   -6.803414925643641e-03   2.484579428408552e-02  -6.011998120423143e-02
     4   -9.783719149941638e-04   1.315698175193549e-03  -1.667177327120601e-04
     5    1.114023531198295e-05  -5.036990154112386e-05   2.382985795965100e-05
     6    2.215694465821526e-03   4.011111570557074e-04   1.907838656634620e-03

Order 1, Length 18
    Atom      X          Y          Z
     1    6.358561473735081e-03   6.075818284069034e-02  -2.426651735874428e-01
     2    1.966330478507931e-02  -1.237419861422904e-03  -2.772641895928971e-02
     3   -2.624919610885824e-02  -6.011998120423143e-02   2.712883914379674e-01
     4   -1.306851270296573e-05  -2.899521926284533e-04   3.388497799282849e-04
     5    3.564749531782696e-05   5.554002188574877e-05   3.358662950890724e-05
     6    2.046819145326636e-04   8.336658183462570e-04  -1.269185610806600e-03


     4 Order 1, Length 18
    Atom      X          Y          Z
     1    2.883209319052863e-03   9.430160252020974e-04  -2.620882476419282e-04
     2   -1.622163336682461e-03  -2.940688543117510e-04   5.541899653332084e-04
     3   -5.631647282136375e-04  -9.783719149941638e-04  -1.306851270296573e-05
     4    1.678470865720382e-02   4.872978521303345e-02   1.315999727554349e-02
     5   -1.602107350179310e-02  -4.113128260228414e-02  -1.017659612171647e-02
     6   -1.461512958240768e-03  -7.269081775321859e-03  -3.262434468129466e-03

Order 1, Length 18
    Atom      X          Y          Z
     1   -6.293117135879715e-03  -1.306568354480156e-03   1.854865403227306e-03
     2    4.799175014949600e-03  -1.478463668612355e-04  -2.148556935313775e-03
     3    7.707967762288876e-04   1.315698175193549e-03  -2.899521926284533e-04
     4    4.872978521303345e-02   1.982208184406977e-01   7.016624884873229e-02
     5   -3.933775862163390e-02  -1.010597499178607e-01  -2.522353177561682e-02
     6   -8.668897327731625e-03  -9.702239672421339e-02  -4.435906044810931e-02

Order 1, Length 18
    Atom      X          Y          Z
     1    2.285916049367377e-05   2.713198135191132e-06  -4.274132922164096e-04
     2   -2.678163693710883e-04  -1.508443684516214e-04   2.277221590612969e-04
     3    3.543235616833890e-04  -1.667177327120601e-04   3.388497799282849e-04
     4    1.315999727554349e-02   7.016624884873229e-02   2.933016076983316e-02
     5   -9.281492493236052e-03  -2.402049693736725e-02  -6.903883622382458e-03
     6   -3.987872482449568e-03  -4.583090674612969e-02  -2.256543585668719e-02


     5 Order 1, Length 18
    Atom      X          Y          Z
     1    5.407479989687207e-04  -1.946295427257624e-04  -3.034631908646605e-04
     2   -4.301591041840949e-04   1.088760593571699e-04   2.575254348161608e-04
     3   -4.789443611846460e-05   1.114023531198295e-05   3.564749531782696e-05
     4   -1.602107350179310e-02  -3.933775862163390e-02  -9.281492493236052e-03
     5    1.589251736333402e-02   4.130512717380969e-02   1.028075836991786e-02
     6    6.586530833831635e-05  -1.892748621852939e-03  -9.889779317952192e-04

Order 1, Length 18
    Atom      X          Y          Z
     1    9.241204896288708e-04  -3.340700049916928e-04  -4.383017252794793e-04
     2   -6.714563726242970e-04   1.734018025685537e-04   3.975009082491709e-04
     3   -1.109351142083572e-04  -5.036990154112386e-05   5.554002188574877e-05
     4   -4.113128260228414e-02  -1.010597499178607e-01  -2.402049693736725e-02
     5    4.130512717380969e-02   1.057537367685448e-01   2.625658356236274e-02
     6   -3.155672909321794e-04  -4.482938290835655e-03  -2.250827541676079e-03

Order 1, Length 18
    Atom      X          Y          Z
     1    2.762750105317602e-04  -8.490698505109632e-05  -1.445956186312776e-04
     2   -1.930310218851270e-04   3.515506911119141e-05   1.064077689777276e-04
     3   -4.386646487017004e-05   2.382985795965100e-05   3.358662950890724e-05
     4   -1.017659612171647e-02  -2.522353177561682e-02  -6.903883622382458e-03
     5    1.028075836991786e-02   2.625658356236274e-02   7.303744636481408e-03
     6   -1.435433776550536e-04  -1.007129703585468e-03  -3.952601886001952e-04


     6 Order 1, Length 18
    Atom      X          Y          Z
     1   -1.006858190056057e-02   4.781033111097240e-04  -1.514714672684893e-03
     2    9.569775579351570e-04   2.697577304932185e-03  -7.520992281028671e-04
     3    1.097210526274869e-03   2.215694465821526e-03   2.046819145326636e-04
     4   -1.461512958240768e-03  -8.668897327731625e-03  -3.987872482449568e-03
     5    6.586530833831635e-05  -3.155672909321794e-04  -1.435433776550536e-04
     6    9.410038196681679e-03   3.593113600071077e-03   6.193673002524472e-03

Order 1, Length 18
    Atom      X          Y          Z
     1    4.971374923390176e-03  -6.526089277279877e-03   1.639122718022666e-05
     2   -2.190142250762520e-04   7.674649445517717e-04   1.162834333893395e-03
     3    8.163524166745215e-04   4.011111570557074e-04   8.336658183462570e-04
     4   -7.269081775321859e-03  -9.702239672421339e-02  -4.583090674612969e-02
     5   -1.892748621852939e-03  -4.482938290835655e-03  -1.007129703585468e-03
     6    3.593113600071077e-03   1.068628606376921e-01   4.482510246868608e-02

Order 1, Length 18
    Atom      X          Y          Z
     1   -5.347513403107055e-03   4.012338945368164e-04   1.651413401318396e-04
     2    4.021718036433429e-03  -5.243194956587149e-04  -1.117904724641220e-03
     3   -6.164684314351059e-04   1.907838656634620e-03  -1.269185610806600e-03
     4   -3.262434468129466e-03  -4.435906044810931e-02  -2.256543585668719e-02
     5   -9.889779317952192e-04  -2.250827541676079e-03  -3.952601886001952e-04
     6    6.193673002524472e-03   4.482510246868608e-02   2.518256011368200e-02




 # Finishing finite difference calculation for IDERIV #
 ######################################################
 ######################################################
 Requested basis set is def2-SVPD
 There are 42 shells and 98 basis functions
 **********************************************************************
 **                                                                  **
 **                       VIBRATIONAL ANALYSIS                       **
 **                       --------------------                       **
 **                                                                  **
 **        VIBRATIONAL FREQUENCIES (CM**-1) AND NORMAL MODES         **
 **     FORCE CONSTANTS (mDYN/ANGSTROM) AND REDUCED MASSES (AMU)     **
 **                  INFRARED INTENSITIES (KM/MOL)                   **
 **                                                                  **
 **********************************************************************
 

 Mode:                 1                      2                      3
 Frequency:       -55.50                 -26.22                  62.32
 Force Cnst:      0.0128                 0.0034                 0.0085
 Red. Mass:       7.0323                 8.3732                 3.7206
 IR Active:          YES                    YES                    YES
 IR Intens:      157.377                146.816                126.301
 Raman Active:       YES                    YES                    YES
               X      Y      Z        X      Y      Z        X      Y      Z
 C         -0.131  0.230  0.005   -0.000  0.085  0.021    0.145  0.174  0.115
 O         -0.081  0.208  0.070    0.052  0.191  0.047   -0.093 -0.155 -0.065
 H          0.011  0.663  0.117   -0.017  0.043  0.010    0.492  0.641  0.250
 O          0.347 -0.300  0.016   -0.322 -0.026 -0.051   -0.027  0.043 -0.190
 Li        -0.023 -0.143 -0.019    0.775 -0.460 -0.030   -0.030 -0.094  0.365
 Li        -0.360 -0.137 -0.202   -0.155 -0.066  0.002   -0.015 -0.041 -0.016
 TransDip  -0.342  0.202 -0.061    0.360 -0.143  0.017    0.074  0.010  0.352

 Mode:                 4                      5                      6
 Frequency:        84.95                 159.92                 253.29
 Force Cnst:      0.0244                 0.0930                 0.2006
 Red. Mass:       5.7314                 6.1693                 5.3071
 IR Active:          YES                    YES                    YES
 IR Intens:      220.010                 57.702                 44.416
 Raman Active:       YES                    YES                    YES
               X      Y      Z        X      Y      Z        X      Y      Z
 C          0.062  0.227 -0.053    0.005 -0.086  0.309   -0.156  0.266 -0.190
 O         -0.009 -0.220  0.020   -0.247  0.223 -0.124   -0.049 -0.009  0.055
 H          0.060  0.701  0.060    0.404 -0.455  0.239   -0.558  0.227 -0.220
 O         -0.130 -0.082  0.293   -0.001 -0.091  0.005   -0.005 -0.059 -0.052
 Li         0.027 -0.011 -0.242   -0.017 -0.078 -0.047   -0.024 -0.072 -0.010
 Li         0.174  0.210 -0.389    0.516 -0.010 -0.244    0.494 -0.261  0.359
 TransDip   0.151  0.216 -0.395    0.229 -0.040 -0.071    0.139 -0.074  0.144

 Mode:                 7                      8                      9
 Frequency:       449.72                 717.40                 919.47
 Force Cnst:      0.1907                 2.1451                 4.6921
 Red. Mass:       1.6002                 7.0742                 9.4198
 IR Active:          YES                    YES                    YES
 IR Intens:       55.972                 17.662                456.549
 Raman Active:       YES                    YES                    YES
               X      Y      Z        X      Y      Z        X      Y      Z
 C         -0.100 -0.173 -0.064   -0.003 -0.020 -0.002    0.003  0.003 -0.000
 O          0.028  0.050  0.017    0.007  0.002  0.002   -0.004  0.002 -0.001
 H          0.406  0.855  0.219    0.055  0.056  0.021   -0.045  0.013 -0.002
 O         -0.016  0.021  0.005    0.082 -0.004 -0.062    0.118  0.476  0.169
 Li         0.009  0.022  0.006   -0.244 -0.622 -0.153   -0.219 -0.563 -0.142
 Li         0.078 -0.011  0.022    0.037  0.653  0.291   -0.038 -0.533 -0.240
 TransDip   0.189  0.134  0.062   -0.116  0.005  0.068   -0.119 -0.641 -0.209

 Mode:                10                     11                     12
 Frequency:      1084.97                1976.05                2849.04
 Force Cnst:      0.8635                23.5490                 5.2254
 Red. Mass:       1.2450                10.2359                 1.0926
 IR Active:          YES                    YES                    YES
 IR Intens:       72.118                163.847                 10.787
 Raman Active:       YES                    YES                    YES
               X      Y      Z        X      Y      Z        X      Y      Z
 C         -0.077  0.061 -0.076    0.538 -0.169 -0.379    0.015  0.016 -0.085
 O          0.001 -0.019  0.064   -0.403  0.119  0.317   -0.006  0.002  0.003
 H          0.886 -0.430 -0.099    0.005  0.129 -0.495   -0.085 -0.223  0.967
 O          0.000  0.002  0.001    0.001 -0.003 -0.000    0.000 -0.000  0.000
 Li        -0.001 -0.002 -0.001    0.001  0.002  0.000    0.000  0.000  0.000
 Li         0.003 -0.003 -0.004   -0.005  0.004 -0.004   -0.000  0.000 -0.001
 TransDip   0.213 -0.047 -0.163    0.280 -0.142 -0.264    0.082 -0.058 -0.032

 STANDARD THERMODYNAMIC QUANTITIES AT   298.15 K  AND     1.00 ATM

   This Molecule has  2 Imaginary Frequencies
   Zero point vibrational energy:       12.233 kcal/mol

   Atom    1 Element C  Has Mass   12.00000
   Atom    2 Element O  Has Mass   15.99491
   Atom    3 Element H  Has Mass    1.00783
   Atom    4 Element O  Has Mass   15.99491
   Atom    5 Element Li Has Mass    7.01600
   Atom    6 Element Li Has Mass    7.01600
   Molecular Mass:    59.029650 amu
   Principal axes and moments of inertia in amu*Bohr^2:
                             1           2           3
    Eigenvalues --       91.55747   869.88022   914.40994
          X              -0.44297     0.89555    -0.04196
          Y               0.88196     0.42688    -0.19980
          Z               0.16102     0.12552     0.97894
   Rotational Symmetry Number is   1
   The Molecule is an Asymmetric Top
   Translational Enthalpy:        0.889 kcal/mol
   Rotational Enthalpy:           0.889 kcal/mol
   Vibrational Enthalpy:         14.196 kcal/mol
   gas constant (RT):             0.592 kcal/mol
   Translational Entropy:        38.147  cal/mol.K
   Rotational Entropy:           25.790  cal/mol.K
   Vibrational Entropy:          13.693  cal/mol.K

   Total Enthalpy:               16.566 kcal/mol
   Total Entropy:                77.631  cal/mol.K
Archival summary:
1\1\n0102.lr6\FREQ\ProcedureUnspecified\BasisUnspecified\21i21(2)\ewcspott\WedNov1108:57:422020WedNov1108:57:422020\0\\#,FREQ,ProcedureUnspecified,BasisUnspecified,\\0,2\O\C,1,1.17801\H,2,1.12624,1,125.842\Li,2,2.36037,1,123.143,3,165.303,0\O,4,1.66803,2,116.8,1,-101.178,0\Li,5,1.66254,4,161.019,2,65.9761,0\\\@

 Total job time:  507.76s(wall), 15891.38s(cpu) 
 Wed Nov 11 08:57:42 2020

        *************************************************************
        *                                                           *
        *  Thank you very much for using Q-Chem.  Have a nice day.  *
        *                                                           *
        *************************************************************


