
Running Job 1 of 1 mol.qin
qchem mol.qin_53339.0 /tmp/qchem53339/ 1
/global/common/cori/software/qchem/5.1/exe/qcprog.exe mol.qin_53339.0 /tmp/qchem53339/
Check license passed

                  Welcome to Q-Chem
     A Quantum Leap Into The Future Of Chemistry


 Q-Chem 5.1, Q-Chem, Inc., Pleasanton, CA (2018)

 Yihan Shao,  Zhengting Gan,  E. Epifanovsky,  A. T. B. Gilbert,  M. Wormit,  
 J. Kussmann,  A. W. Lange,  A. Behn,  Jia Deng,  Xintian Feng,  D. Ghosh,  
 M. Goldey,  P. R. Horn,  L. D. Jacobson,  I. Kaliman,  T. Kus,  A. Landau,  
 Jie Liu,  E. I. Proynov,  R. M. Richard,  R. P. Steele,  E. J. Sundstrom,  
 H. L. Woodcock III,  P. M. Zimmerman,  D. Zuev,  B. Albrecht,  E. Alguire,  
 S. A. Baeppler,  D. Barton,  Z. Benda,  Y. A. Bernard,  E. J. Berquist,  
 K. B. Bravaya,  H. Burton,  D. Casanova,  Chun-Min Chang,  Yunqing Chen,  
 A. Chien,  K. D. Closser,  M. P. Coons,  S. Coriani,  S. Dasgupta,  
 A. L. Dempwolff,  M. Diedenhofen,  Hainam Do,  R. G. Edgar,  Po-Tung Fang,  
 S. Faraji,  S. Fatehi,  Qingguo Feng,  K. D. Fenk,  J. Fosso-Tande,  
 Qinghui Ge,  A. Ghysels,  G. Gidofalvi,  J. Gomes,  J. Gonthier,  A. Gunina,  
 D. Hait,  M. W. D. Hanson-Heine,  P. H. P. Harbach,  A. W. Hauser,  
 J. E. Herr,  E. G. Hohenstein,  Z. C. Holden,  Kerwin Hui,  B. C. Huynh,  
 T.-C. Jagau,  Hyunjun Ji,  B. Kaduk,  K. Khistyaev,  Jaehoon Kim,  
 P. Klunzinger,  K. Koh,  D. Kosenkov,  L. Koulias,  T. Kowalczyk,  
 C. M. Krauter,  A. Kunitsa,  Ka Un Lao,  A. Laurent,  K. V. Lawler,  
 Joonho Lee,  D. Lefrancois,  S. Lehtola,  D. S. Levine,  Yi-Pei Li,  
 You-Sheng Lin,  Fenglai Liu,  E. Livshits,  A. Luenser,  P. Manohar,  
 E. Mansoor,  S. F. Manzer,  Shan-Ping Mao,  Yuezhi Mao,  N. Mardirossian,  
 A. V. Marenich,  T. Markovich,  L. A. Martinez-Martinez,  S. A. Maurer,  
 N. J. Mayhall,  S. C. McKenzie,  J.-M. Mewes,  A. F. Morrison,  
 J. W. Mullinax,  K. Nanda,  T. S. Nguyen-Beck,  R. Olivares-Amaya,  
 J. A. Parkhill,  T. M. Perrine,  F. Plasser,  P. Pokhilko,  S. Prager,  
 A. Prociuk,  E. Ramos,  D. R. Rehn,  F. Rob,  M. Schneider,  N. Sergueev,  
 S. M. Sharada,  S. Sharma,  D. W. Small,  T. Stauch,  T. Stein,  
 Yu-Chuan Su,  A. J. W. Thom,  A. Tkatchenko,  T. Tsuchimochi,  N. M. Tubman,  
 L. Vogt,  M. L. Vidal,  O. Vydrov,  M. A. Watson,  J. Wenzel,  
 M. de Wergifosse,  T. A. Wesolowski,  A. White,  J. Witte,  A. Yamada,  
 Jun Yang,  K. Yao,  S. Yeganeh,  S. R. Yost,  Zhi-Qiang You,  A. Zech,  
 Igor Ying Zhang,  Xing Zhang,  Yan Zhao,  Ying Zhu,  B. R. Brooks,  
 G. K. L. Chan,  C. J. Cramer,  M. S. Gordon,  W. J. Hehre,  A. Klamt,  
 M. W. Schmidt,  C. D. Sherrill,  D. G. Truhlar,  A. Aspuru-Guzik,  R. Baer,  
 A. T. Bell,  N. A. Besley,  Jeng-Da Chai,  R. A. DiStasio Jr.,  A. Dreuw,  
 B. D. Dunietz,  T. R. Furlani,  Chao-Ping Hsu,  Yousung Jung,  Jing Kong,  
 D. S. Lambrecht,  WanZhen Liang,  C. Ochsenfeld,  V. A. Rassolov,  
 L. V. Slipchenko,  J. E. Subotnik,  T. Van Voorhis,  J. M. Herbert,  
 A. I. Krylov,  P. M. W. Gill,  M. Head-Gordon

 Contributors to earlier versions of Q-Chem not listed above: 
 R. D. Adamson,  B. Austin,  J. Baker,  G. J. O. Beran,  K. Brandhorst,  
 S. T. Brown,  E. F. C. Byrd,  A. K. Chakraborty,  C.-L. Cheng,  
 Siu Hung Chien,  D. M. Chipman,  D. L. Crittenden,  H. Dachsel,  
 R. J. Doerksen,  A. D. Dutoi,  L. Fusti-Molnar,  W. A. Goddard III,  
 A. Golubeva-Zadorozhnaya,  S. R. Gwaltney,  G. Hawkins,  A. Heyden,  
 S. Hirata,  G. Kedziora,  F. J. Keil,  C. Kelley,  Jihan Kim,  R. A. King,  
 R. Z. Khaliullin,  P. P. Korambath,  W. Kurlancheek,  A. M. Lee,  M. S. Lee,  
 S. V. Levchenko,  Ching Yeh Lin,  D. Liotard,  R. C. Lochan,  I. Lotan,  
 P. E. Maslen,  N. Nair,  D. P. O'Neill,  D. Neuhauser,  E. Neuscamman,  
 C. M. Oana,  R. Olson,  B. Peters,  R. Peverati,  P. A. Pieniazek,  
 Y. M. Rhee,  J. Ritchie,  M. A. Rohrdanz,  E. Rosta,  N. J. Russ,  
 H. F. Schaefer III,  N. E. Schultz,  N. Shenvi,  A. C. Simmonett,  A. Sodt,  
 D. Stuck,  K. S. Thanthiriwatte,  V. Vanovschi,  Tao Wang,  A. Warshel,  
 C. F. Williams,  Q. Wu,  X. Xu,  W. Zhang

 Please cite Q-Chem as follows:
 Y. Shao et al., Mol. Phys. 113, 184-215 (2015)
 DOI: 10.1080/00268976.2014.952696

 Q-Chem 5.1.0 for Intel X86 EM64T Linux

 Parts of Q-Chem use Armadillo 8.300.2 (Tropical Shenanigans).
 http://arma.sourceforge.net/

 Q-Chem begins on Tue Nov 13 21:31:55 2018  

Host: cori01
0

     Scratch files written to /tmp/qchem53339//
 Jun2518 |scratch|qcdevops|jenkins|workspace|build_RNUM -1
Processing $rem in /global/common/cori/software/qchem/5.1/config/preferences.
 MEM_TOTAL  96000 
Symmetry turned off for PCM/SM12/SMD calculation

Checking the input file for inconsistencies... 	...done.

--------------------------------------------------------------
User input:
--------------------------------------------------------------
$molecule
-1 2
S      1.1964048302      0.0411821561     -0.2245029690
C      0.9157276689      1.2176435347      1.1691388862
N      0.0587671431      0.4418277832     -1.2764425966
O      1.0819986300     -1.3106733486      0.3273918970
O      2.4845150285      0.4541359122     -0.7490637075
F     -0.2517387273      1.1096974483      1.7760742297
F      1.8997026557      1.2282223957      2.0676285778
S     -1.3782725451     -0.2548943847     -1.3836178060
C     -2.3366735499      1.2457747365     -1.9932604674
O     -1.4726085058     -1.2144116719     -2.4848864580
O     -2.0003955395     -0.6117708764     -0.1145616343
F     -1.8400285412      1.7103172932     -3.1371186226
F     -3.6085549708      0.8846905798     -2.2115377418
F     -2.3276870342      2.2283366709     -1.0823083941
$end

$rem
job_type = opt
basis = 6-311++g*
max_scf_cycles = 200
gen_scfman = true
scf_algorithm = gdm
method = wb97xd
geom_opt_max_cycles = 200
solvent_method = pcm
xc_grid = 3
$end

$pcm
heavypoints 194
hpoints 194
radii uff
theory cpcm
vdwscale 1.1
$end

$solvent
dielectric 3.0
$end
--------------------------------------------------------------
 ----------------------------------------------------------------
             Standard Nuclear Orientation (Angstroms)
    I     Atom           X                Y                Z
 ----------------------------------------------------------------
    1      S       1.1964048302     0.0411821561    -0.2245029690
    2      C       0.9157276689     1.2176435347     1.1691388862
    3      N       0.0587671431     0.4418277832    -1.2764425966
    4      O       1.0819986300    -1.3106733486     0.3273918970
    5      O       2.4845150285     0.4541359122    -0.7490637075
    6      F      -0.2517387273     1.1096974483     1.7760742297
    7      F       1.8997026557     1.2282223957     2.0676285778
    8      S      -1.3782725451    -0.2548943847    -1.3836178060
    9      C      -2.3366735499     1.2457747365    -1.9932604674
   10      O      -1.4726085058    -1.2144116719    -2.4848864580
   11      O      -2.0003955395    -0.6117708764    -0.1145616343
   12      F      -1.8400285412     1.7103172932    -3.1371186226
   13      F      -3.6085549708     0.8846905798    -2.2115377418
   14      F      -2.3276870342     2.2283366709    -1.0823083941
 ----------------------------------------------------------------
 Nuclear Repulsion Energy =  1390.6745794127 hartrees
 There are       65 alpha and       64 beta electrons
 Requested basis set is 6-311++G(d)
 There are 98 shells and 324 basis functions

 Total QAlloc Memory Limit  96000 MB
 Mega-Array Size       188 MB
 MEM_STATIC part       192 MB
 Discretize the solute cavity surface with Lebedev spheres
	Using 194 Lebedev grid points for each H atom
	Using 194 Lebedev grid points for other atoms
	Atomic van der Waals radii will be scaled by 1.10
 Remove points where switching function is < 1.0e-08
 Keep 1289 surface tesserae and discard 1427 interior tesserae
 Molecular Surface Area = 228.493 Angst**2
 A cutoff of  1.0D-12 yielded   3738 shell pairs
 There are     43068 function pairs (     46550 Cartesian)
 
 -------------------------------------------------------
 OpenMP Integral Computing Module                       
 Release: version 1.0, May 2013, Q-Chem Inc. Pittsburgh 
 -------------------------------------------------------
 Integral Job Info:
 Integral job number is                      11
 Integral operator is                         1
 short-range coefficients              22203600
 long-range coefficients              100000000
 Omega coefficients                         200
 if combine SR and LR in K                    1
 Integral screening is                        0
 Integral computing path is                   2
 max size of driver memory is            800000
 size of driver memory is                593474
 size of scratch memory is              4293864
 max col of scratch BK array               1296
 max len of scratch array in speh3          155
 max len of scratch index in speh4           18
 max int batch size is                      520
 min int batch size is                       52
 fixed nKL is                                52
 max L of basis functions is                  2
 order of int derivative is                   0
 number of shells is                         98
 number of basis is                         338
 number of cartesian basis is               338
 number of contracted shell pairs          3738
 number of primitive shell pairs           9928
 maxK2 (contraction) of shell pair           36
 max number of K2 of shell pair               1
 max number of CS2 of shell pair            742
 max number of PS2 of shell pair           2472
 mem total for path MDJ                  602908
 -------------------------------------------------------
 Smallest overlap matrix eigenvalue = 5.78E-05

 Scale SEOQF with 1.000000e-01/1.000000e-01/1.000000e-01

 Standard Electronic Orientation quadrupole field applied
 Nucleus-field energy     =    -0.0000000101 hartrees
 Guess from superposition of atomic densities
 Warning:  Energy on first SCF cycle will be non-variational
 SAD guess density has 128.000000 electrons

 -----------------------------------------------------------------------
  General SCF calculation program by
  Eric Jon Sundstrom, Paul Horn, Yuezhi Mao, Dmitri Zuev, Alec White,
  David Stuck, Shaama M.S., Shane Yost, Joonho Lee, David Small,
  Daniel Levine, Susi Lehtola, Hugh Burton, Evgeny Epifanovsky
 -----------------------------------------------------------------------
 Exchange:     0.2220 Hartree-Fock + 1.0000 wB97X-D + LR-HF
 Correlation:  1.0000 wB97X-D
 Using SG-3 standard quadrature grid
 Dispersion:   Grimme D
 using 32 threads for integral computing
 -------------------------------------------------------
 OpenMP Integral computing Module                
 Release: version 1.0, May 2013, Q-Chem Inc. Pittsburgh 
 -------------------------------------------------------
 using 32 threads for integral computing
 -------------------------------------------------------
 OpenMP Integral computing Module                
 Release: version 1.0, May 2013, Q-Chem Inc. Pittsburgh 
 -------------------------------------------------------
 -------------------------------------------------------
 OpenMP BLAS3 based DFT computing Module                
 Release: version 1.0, May 2013, Q-Chem Inc. Pittsburgh 
 -------------------------------------------------------
 A unrestricted SCF calculation will be
 performed using Roothaan-Hall, GDM
 SCF converges when RMS gradient is below 1.0e-08
 ---------------------------------------
  Cycle       Energy         DIIS error
 ---------------------------------------
    1   -1730.6135498825      1.90e-02  Roothaan Step
 ---------------------------------------
  Cycle       Energy        RMS Gradient
 ---------------------------------------
    1   -1726.7012045611      2.19e-01   Descent step
    2   -1727.1493187407      6.98e-02   Descent step
    3   -1727.3283093442      2.07e-02   Normal BFGS step
    4   -1727.3468740846      1.11e-02   Normal BFGS step
    5   -1727.3484450054      8.83e-03   Normal BFGS step
    6   -1727.3500696803      2.91e-03   Normal BFGS step
    7   -1727.3501448090      1.51e-03   Normal BFGS step
    8   -1727.3501703684      4.13e-04   Normal BFGS step
    9   -1727.3501740039      3.15e-04   Normal BFGS step
   10   -1727.3501763862      1.56e-04   Normal BFGS step
   11   -1727.3501764854      7.97e-05   Normal BFGS step
   12   -1727.3501765784      1.66e-05   Normal BFGS step
   13   -1727.3501765831      6.50e-06   Normal BFGS step
   14   -1727.3501765849      1.75e-06   Normal BFGS step
   15   -1727.3501765850      1.71e-06   Normal BFGS step
   16   -1727.3501765851      3.14e-07   Normal BFGS step
   17   -1727.3501765851      2.46e-07   Normal BFGS step
   18   -1727.3501765851      1.12e-07   Normal BFGS step
   19   -1727.3501765851      4.44e-08   Normal BFGS step
   20   -1727.3501765851      1.37e-08   Normal BFGS step
   21   -1727.3501765851      8.15e-09  Convergence criterion met
 ---------------------------------------
 SCF time:   CPU 1640.99s  wall 89.00s 
<S^2> =          0.753304173

************** Final PCM Free Energy Summary **************
 G_electrostatic  =      -0.05085603 hartree =     -31.91263869 kcal/mol
 G_cavitation     =       0.00000000 hartree =       0.00000000 kcal/mol
 G_dispersion     =       0.00000000 hartree =       0.00000000 kcal/mol
 G_repulsion      =       0.00000000 hartree =       0.00000000 kcal/mol
 --------------------------------------------------
 Non-electrostatic Free Energy =       0.00000000 hartree =       0.00000000 kcal/mol
 Total                         =      -0.05085603 hartree =     -31.91263869 kcal/mol
 --------------------------------------------------
 SCF Energy (H0 + V/2)                       =   -1727.35017659 
 Solute Internal Energy (H0)                 =   -1727.29932056 
 Total Free Energy (H0 + V/2 + non-elec)     =   -1727.35017659 hartree
                                             = -1083928.59554065 kcal/mol
***********************************************************

 SCF   energy in the final basis set =    -1727.3501765851
 Total energy in the final basis set =    -1727.3501765851
 
 --------------------------------------------------------------
 
                    Orbital Energies (a.u.)
 --------------------------------------------------------------
 
 Alpha MOs
 -- Occupied --
-89.211 -89.211 -24.834 -24.832 -24.832 -24.831 -24.831 -19.218
-19.217 -19.216 -19.213 -14.407 -10.535 -10.452  -8.232  -8.231
 -6.181  -6.180  -6.180  -6.180  -6.180  -6.179  -1.418  -1.387
 -1.328  -1.326  -1.325  -1.210  -1.193  -1.086  -1.084  -0.990
 -0.838  -0.808  -0.760  -0.704  -0.681  -0.681  -0.664  -0.655
 -0.615  -0.600  -0.572  -0.556  -0.552  -0.542  -0.538  -0.533
 -0.526  -0.519  -0.514  -0.512  -0.506  -0.493  -0.460  -0.412
 -0.409  -0.406  -0.387  -0.381  -0.377  -0.364  -0.340  -0.325
 -0.297
 -- Virtual --
  0.101   0.110   0.119   0.127   0.134   0.138   0.143   0.146
  0.152   0.158   0.160   0.172   0.175   0.181   0.184   0.186
  0.197   0.199   0.213   0.215   0.232   0.240   0.247   0.262
  0.287   0.297   0.302   0.307   0.316   0.324   0.332   0.337
  0.342   0.345   0.350   0.355   0.358   0.363   0.368   0.376
  0.390   0.395   0.398   0.406   0.412   0.414   0.417   0.422
  0.426   0.429   0.433   0.444   0.454   0.458   0.465   0.470
  0.471   0.478   0.489   0.496   0.499   0.505   0.509   0.535
  0.540   0.548   0.559   0.573   0.580   0.586   0.599   0.603
  0.637   0.644   0.659   0.683   0.709   0.718   0.739   0.783
  0.805   0.866   0.915   0.925   0.930   0.958   0.963   1.004
  1.033   1.053   1.088   1.107   1.136   1.150   1.166   1.184
  1.191   1.215   1.234   1.245   1.253   1.259   1.265   1.278
  1.290   1.299   1.305   1.311   1.315   1.324   1.354   1.362
  1.367   1.411   1.416   1.461   1.483   1.497   1.510   1.517
  1.527   1.539   1.560   1.578   1.590   1.598   1.600   1.609
  1.618   1.632   1.674   1.723   1.748   1.768   1.814   1.825
  1.854   1.914   1.925   1.935   1.987   2.006   2.011   2.022
  2.041   2.052   2.070   2.085   2.124   2.161   2.232   2.305
  2.327   2.355   2.703   2.735   2.807   2.893   2.923   2.935
  2.941   2.951   2.957   2.967   2.978   2.985   3.014   3.036
  3.051   3.060   3.068   3.116   3.135   3.152   3.192   3.232
  3.274   3.287   3.584   3.599   3.722   3.730   3.811   3.848
  3.850   3.852   3.855   3.860   3.870   3.877   3.880   3.886
  3.909   3.912   3.968   3.981   4.071   4.102   4.103   4.155
  4.222   4.289   4.293   4.296   4.373   4.480   4.611   5.013
  5.029   5.034   5.151   5.159   5.165   5.187   5.197   5.212
  5.227   5.274   5.290   5.299   5.443   5.453   6.412   6.414
  6.417   6.443   6.464   6.477   6.500   6.501   6.514   6.524
  6.550   6.564   6.874   6.881   6.908   8.270   8.316  17.497
 17.532  17.555  17.606  17.640  17.659  23.615  23.646  35.599
 50.033  50.041  50.080  50.081  66.906  66.914  66.919  66.928
 66.969 189.496 189.543
 
 Beta MOs
 -- Occupied --
-89.211 -89.210 -24.832 -24.831 -24.831 -24.831 -24.829 -19.217
-19.216 -19.216 -19.213 -14.407 -10.535 -10.439  -8.232  -8.231
 -6.181  -6.180  -6.180  -6.180  -6.179  -6.179  -1.418  -1.377
 -1.328  -1.326  -1.317  -1.209  -1.192  -1.085  -1.082  -0.990
 -0.835  -0.796  -0.754  -0.700  -0.681  -0.680  -0.659  -0.647
 -0.599  -0.582  -0.568  -0.556  -0.552  -0.539  -0.535  -0.525
 -0.520  -0.516  -0.513  -0.510  -0.503  -0.493  -0.458  -0.409
 -0.408  -0.393  -0.381  -0.379  -0.375  -0.362  -0.339  -0.323
 -- Virtual --
  0.002   0.103   0.111   0.121   0.127   0.136   0.140   0.144
  0.148   0.154   0.160   0.161   0.173   0.177   0.182   0.185
  0.188   0.197   0.207   0.217   0.218   0.239   0.241   0.250
  0.268   0.288   0.299   0.306   0.314   0.317   0.326   0.331
  0.339   0.343   0.347   0.352   0.359   0.361   0.365   0.369
  0.378   0.390   0.396   0.398   0.406   0.412   0.415   0.418
  0.424   0.426   0.430   0.434   0.444   0.456   0.459   0.465
  0.471   0.471   0.480   0.489   0.497   0.499   0.506   0.510
  0.536   0.541   0.548   0.560   0.574   0.580   0.586   0.599
  0.603   0.639   0.647   0.660   0.683   0.712   0.729   0.746
  0.790   0.806   0.876   0.915   0.928   0.933   0.961   0.966
  1.008   1.039   1.054   1.089   1.109   1.138   1.150   1.166
  1.185   1.192   1.215   1.236   1.248   1.254   1.261   1.266
  1.279   1.291   1.301   1.308   1.313   1.316   1.330   1.355
  1.366   1.377   1.414   1.421   1.468   1.485   1.497   1.511
  1.518   1.529   1.541   1.566   1.578   1.591   1.603   1.609
  1.614   1.621   1.638   1.700   1.736   1.751   1.769   1.815
  1.846   1.857   1.921   1.933   1.936   1.988   2.008   2.013
  2.028   2.042   2.055   2.077   2.085   2.128   2.166   2.234
  2.305   2.328   2.357   2.704   2.740   2.857   2.893   2.928
  2.935   2.943   2.952   2.961   2.970   2.978   2.986   3.018
  3.039   3.052   3.061   3.074   3.124   3.136   3.162   3.192
  3.236   3.274   3.291   3.584   3.601   3.723   3.732   3.811
  3.848   3.852   3.856   3.858   3.867   3.875   3.879   3.881
  3.893   3.909   3.916   3.968   3.981   4.079   4.106   4.115
  4.156   4.222   4.289   4.296   4.298   4.373   4.480   4.619
  5.019   5.029   5.034   5.153   5.160   5.165   5.187   5.199
  5.212   5.230   5.275   5.292   5.299   5.444   5.453   6.413
  6.421   6.427   6.444   6.467   6.479   6.501   6.501   6.515
  6.524   6.551   6.567   6.874   6.882   6.913   8.270   8.316
 17.498  17.532  17.555  17.606  17.640  17.659  23.615  23.669
 35.599  50.034  50.042  50.080  50.081  66.908  66.915  66.919
 66.929  66.969 189.496 189.544
 --------------------------------------------------------------
 
          Ground-State Mulliken Net Atomic Charges

     Atom                 Charge (a.u.)    Spin (a.u.)
  --------------------------------------------------------
      1 S                     0.600623       0.009767
      2 C                    -0.218974       0.818658
      3 N                    -0.670655       0.009183
      4 O                    -0.169423       0.063791
      5 O                    -0.242996       0.006313
      6 F                    -0.012401       0.048784
      7 F                    -0.062716       0.043145
      8 S                     0.265124      -0.001747
      9 C                     0.059599       0.002560
     10 O                    -0.136834      -0.000505
     11 O                    -0.201169      -0.000176
     12 F                    -0.050723       0.000146
     13 F                    -0.084345      -0.000064
     14 F                    -0.075108       0.000145
  --------------------------------------------------------
  Sum of atomic charges =    -1.000000
  Sum of spin   charges =     1.000000

 -----------------------------------------------------------------
                    Cartesian Multipole Moments
 -----------------------------------------------------------------
    Charge (ESU x 10^10)
                -4.8032
    Dipole Moment (Debye)
         X      -0.1617      Y       2.6594      Z       4.2743
       Tot       5.0367
    Quadrupole Moments (Debye-Ang)
        XX    -114.3220     XY      -3.7300     YY    -100.3949
        XZ      -2.7024     YZ      -1.4294     ZZ    -107.3780
    Octopole Moments (Debye-Ang^2)
       XXX     114.8740    XXY     -33.8698    XYY      44.1037
       YYY     -96.4851    XXZ      80.5823    XYZ       8.0759
       YYZ      72.9478    XZZ      52.0453    YZZ     -28.5252
       ZZZ     226.3975
    Hexadecapole Moments (Debye-Ang^3)
      XXXX   -1955.4193   XXXY      88.0462   XXYY    -434.6523
      XYYY     114.2765   YYYY    -690.9315   XXXZ    -512.0105
      XXYZ      13.9760   XYYZ    -181.7617   YYYZ      53.0745
      XXZZ    -581.9358   XYZZ      15.5519   YYZZ    -377.1620
      XZZZ    -553.4577   YZZZ      28.1671   ZZZZ   -1529.2991
 -----------------------------------------------------------------
 Calculating analytic gradient of the SCF energy
 Gradient of SCF Energy
            1           2           3           4           5           6
    1   0.0000441  -0.0032471  -0.0031121   0.0054956  -0.0194482   0.0087705
    2   0.0094514  -0.0095814  -0.0246915   0.0128548  -0.0128724   0.0046061
    3   0.0030440   0.0086472   0.0039536  -0.0143441   0.0114404  -0.0045696
            7           8           9          10          11          12
    1  -0.0044544   0.0097543  -0.0074210  -0.0020918   0.0127947  -0.0050090
    2   0.0035570   0.0020241   0.0041956   0.0065950   0.0075951  -0.0035071
    3  -0.0039316  -0.0005518  -0.0040157   0.0108096  -0.0143478   0.0087252
           13          14
    1   0.0067482   0.0011762
    2   0.0034098  -0.0036366
    3  -0.0001501  -0.0047093
 Max gradient component =       2.469E-02
 RMS gradient           =       8.649E-03
 Computing fast CPCM-SWIG gradient
 Updating gradient with PCM contributions...
 -- total gradient after adding PCM contribution --
---------------------------------------------------
  Atom         X              Y              Z     
---------------------------------------------------
   1       0.002401       0.004207      -0.001879
   2      -0.002224       0.001391      -0.002119
   3      -0.001660       0.002837      -0.002961
   4       0.000623      -0.008440       0.003709
   5       0.001988      -0.000246      -0.000467
   6      -0.001948       0.000153       0.001475
   7       0.004583       0.000824       0.004826
   8       0.001724       0.004902       0.003782
   9       0.002203      -0.002286      -0.001095
  10      -0.000930      -0.009137      -0.009857
  11      -0.000726      -0.000573       0.004937
  12       0.000307       0.000469      -0.004077
  13      -0.005881      -0.001137      -0.002644
  14      -0.000460       0.007037       0.006371
---------------------------------------------------
 Number of fixed atoms: 0
 Gradient time:  CPU 143.36 s  wall 12.25 s
 Geometry Optimization Parameters
   NAtoms,    NIC,     NZ,  NCons,   NDum,   NFix, NCnnct, MaxDiis
       14      84       0       0       0       0       0       0


** GEOMETRY OPTIMIZATION IN DELOCALIZED INTERNAL COORDINATES **
   Searching for a Minimum

   Optimization Cycle:   1

                       Coordinates (Angstroms)
     ATOM                X               Y               Z
      1  S         1.1964048302    0.0411821561   -0.2245029690
      2  C         0.9157276689    1.2176435347    1.1691388862
      3  N         0.0587671431    0.4418277832   -1.2764425966
      4  O         1.0819986300   -1.3106733486    0.3273918970
      5  O         2.4845150285    0.4541359122   -0.7490637075
      6  F        -0.2517387273    1.1096974483    1.7760742297
      7  F         1.8997026557    1.2282223957    2.0676285778
      8  S        -1.3782725451   -0.2548943847   -1.3836178060
      9  C        -2.3366735499    1.2457747365   -1.9932604674
     10  O        -1.4726085058   -1.2144116719   -2.4848864580
     11  O        -2.0003955395   -0.6117708764   -0.1145616343
     12  F        -1.8400285412    1.7103172932   -3.1371186226
     13  F        -3.6085549708    0.8846905798   -2.2115377418
     14  F        -2.3276870342    2.2283366709   -1.0823083941
   Point Group: c1    Number of degrees of freedom:    36


   Energy is  -1727.350176585


 Attempting to Generate Delocalized Internal Coordinates

 36 Hessian modes will be used to form the next step
  Hessian Eigenvalues:
     0.002000    0.002000    0.018713    0.018741    0.038012    0.082563
     0.087967    0.100791    0.107216    0.111177    0.124169    0.135987
     0.153444    0.194894    0.205877    0.206405    0.228510    0.250000
     0.250000    0.250000    0.250000    0.250000    0.250000    0.250000
     0.250000    0.510975    0.511384    0.571958    0.572265    0.589150
     0.593313    0.618747    0.896858    0.900807    0.925801    0.955675

 Minimum Search - Taking Simple RFO Step
 Searching for Lamda that Minimizes Along All modes
 Value Taken    Lamda =  -0.00143915
 Step Taken.  Stepsize is  0.127751

                             Maximum     Tolerance    Cnvgd?
         Gradient           0.010644      0.000300      NO
         Displacement       0.059652      0.001200      NO
         Energy change     *********      0.000001      NO


 New Cartesian Coordinates Obtained by Inverse Iteration

 Displacement from previous Coordinates is:  0.320573
 ----------------------------------------------------------------
             Standard Nuclear Orientation (Angstroms)
    I     Atom           X                Y                Z
 ----------------------------------------------------------------
    1      S       1.1948678365     0.0458202796    -0.2354679499
    2      C       0.8878457815     1.2281835953     1.1333891651
    3      N       0.0628085754     0.4324001618    -1.2860965350
    4      O       1.0732232319    -1.2966331749     0.3235280587
    5      O       2.4817756050     0.4655138029    -0.7547535324
    6      F      -0.2973972592     1.1309068021     1.7019947498
    7      F       1.8390043220     1.2149982142     2.0579929286
    8      S      -1.3702605213    -0.2655917163    -1.3781922578
    9      C      -2.3083940216     1.2386759514    -1.9654573404
   10      O      -1.4767618522    -1.2059875980    -2.4843599482
   11      O      -1.9965265153    -0.6288149320    -0.1160925670
   12      F      -1.8234194627     1.7022290695    -3.1108090167
   13      F      -3.5857875998     0.8986584488    -2.1465017038
   14      F      -2.2598215777     2.2097193245    -1.0562408576
 ----------------------------------------------------------------
 Nuclear Repulsion Energy =  1400.6750657552 hartrees
 There are       65 alpha and       64 beta electrons
 Discretize the solute cavity surface with Lebedev spheres
	Using 194 Lebedev grid points for each H atom
	Using 194 Lebedev grid points for other atoms
	Atomic van der Waals radii will be scaled by 1.10
 Remove points where switching function is < 1.0e-08
 Keep 1275 surface tesserae and discard 1441 interior tesserae
 Molecular Surface Area = 225.705 Angst**2
 Applying Cartesian multipole field
    Component          Value
    ---------          -----
     (2,0,0)        1.00000E-11
     (0,2,0)        2.00000E-11
     (0,0,2)       -3.00000E-11
 Nucleus-field energy     =    -0.0000000096 hartrees
 Requested basis set is 6-311++G(d)
 There are 98 shells and 324 basis functions
 A cutoff of  1.0D-12 yielded   3755 shell pairs
 There are     43261 function pairs (     46748 Cartesian)
 Smallest overlap matrix eigenvalue = 5.37E-05
 Guess MOs from SCF MO coefficient file
 Reading MOs from coefficient file
 Reading MOs from coefficient file

 -----------------------------------------------------------------------
  General SCF calculation program by
  Eric Jon Sundstrom, Paul Horn, Yuezhi Mao, Dmitri Zuev, Alec White,
  David Stuck, Shaama M.S., Shane Yost, Joonho Lee, David Small,
  Daniel Levine, Susi Lehtola, Hugh Burton, Evgeny Epifanovsky
 -----------------------------------------------------------------------
 Exchange:     0.2220 Hartree-Fock + 1.0000 wB97X-D + LR-HF
 Correlation:  1.0000 wB97X-D
 Using SG-3 standard quadrature grid
 Dispersion:   Grimme D
 using 32 threads for integral computing
 -------------------------------------------------------
 OpenMP Integral computing Module                
 Release: version 1.0, May 2013, Q-Chem Inc. Pittsburgh 
 -------------------------------------------------------
 using 32 threads for integral computing
 -------------------------------------------------------
 OpenMP Integral computing Module                
 Release: version 1.0, May 2013, Q-Chem Inc. Pittsburgh 
 -------------------------------------------------------
 -------------------------------------------------------
 OpenMP BLAS3 based DFT computing Module                
 Release: version 1.0, May 2013, Q-Chem Inc. Pittsburgh 
 -------------------------------------------------------
 A unrestricted SCF calculation will be
 performed using Roothaan-Hall, GDM
 SCF converges when RMS gradient is below 1.0e-08
 ---------------------------------------
  Cycle       Energy         DIIS error
 ---------------------------------------
    1   -1715.7207666159      2.20e-04  Roothaan Step
 ---------------------------------------
  Cycle       Energy        RMS Gradient
 ---------------------------------------
    1   -1727.3498458035      6.64e-03   Normal BFGS step
    2   -1727.3504483583      3.23e-03   Normal BFGS step
    3   -1727.3508121416      9.38e-04   Normal BFGS step
    4   -1727.3508474054      6.43e-04   Normal BFGS step
    5   -1727.3508629526      1.77e-04   Normal BFGS step
    6   -1727.3508639701      7.82e-05   Normal BFGS step
    7   -1727.3508644441      5.97e-05   Normal BFGS step
    8   -1727.3508644810      2.59e-05   Normal BFGS step
    9   -1727.3508644922      1.39e-05   Normal BFGS step
   10   -1727.3508644944      3.76e-06   Normal BFGS step
   11   -1727.3508644952      2.34e-06   Normal BFGS step
   12   -1727.3508644953      1.12e-06   Normal BFGS step
   13   -1727.3508644953      5.19e-07   Normal BFGS step
   14   -1727.3508644953      2.09e-07   Normal BFGS step
   15   -1727.3508644953      5.01e-08   Normal BFGS step
   16   -1727.3508644953      3.06e-08   Normal BFGS step
   17   -1727.3508644953      9.04e-09  Convergence criterion met
 ---------------------------------------
 SCF time:   CPU 1372.55s  wall 76.00s 
<S^2> =          0.753240363

************** Final PCM Free Energy Summary **************
 G_electrostatic  =      -0.05089643 hartree =     -31.93799233 kcal/mol
 G_cavitation     =       0.00000000 hartree =       0.00000000 kcal/mol
 G_dispersion     =       0.00000000 hartree =       0.00000000 kcal/mol
 G_repulsion      =       0.00000000 hartree =       0.00000000 kcal/mol
 --------------------------------------------------
 Non-electrostatic Free Energy =       0.00000000 hartree =       0.00000000 kcal/mol
 Total                         =      -0.05089643 hartree =     -31.93799233 kcal/mol
 --------------------------------------------------
 SCF Energy (H0 + V/2)                       =   -1727.35086450 
 Solute Internal Energy (H0)                 =   -1727.29996806 
 Total Free Energy (H0 + V/2 + non-elec)     =   -1727.35086450 hartree
                                             = -1083929.02721086 kcal/mol
***********************************************************

 SCF   energy in the final basis set =    -1727.3508644953
 Total energy in the final basis set =    -1727.3508644953
 
 --------------------------------------------------------------
 
                    Orbital Energies (a.u.)
 --------------------------------------------------------------
 
 Alpha MOs
 -- Occupied --
-89.209 -89.208 -24.833 -24.832 -24.831 -24.831 -24.830 -19.217
-19.216 -19.214 -19.212 -14.404 -10.531 -10.450  -8.230  -8.230
 -6.179  -6.179  -6.178  -6.178  -6.178  -6.178  -1.421  -1.389
 -1.329  -1.328  -1.326  -1.212  -1.195  -1.088  -1.085  -0.992
 -0.839  -0.808  -0.759  -0.705  -0.683  -0.682  -0.665  -0.656
 -0.616  -0.599  -0.572  -0.556  -0.553  -0.542  -0.538  -0.533
 -0.526  -0.519  -0.514  -0.511  -0.506  -0.492  -0.460  -0.412
 -0.410  -0.407  -0.387  -0.381  -0.377  -0.363  -0.340  -0.325
 -0.296
 -- Virtual --
  0.102   0.111   0.121   0.128   0.139   0.139   0.144   0.148
  0.154   0.158   0.162   0.173   0.178   0.184   0.185   0.189
  0.197   0.200   0.213   0.219   0.233   0.241   0.250   0.265
  0.289   0.302   0.306   0.311   0.322   0.327   0.333   0.339
  0.345   0.347   0.352   0.358   0.360   0.366   0.369   0.378
  0.390   0.395   0.399   0.407   0.413   0.415   0.418   0.424
  0.426   0.430   0.434   0.446   0.456   0.458   0.465   0.471
  0.472   0.478   0.488   0.498   0.501   0.507   0.512   0.539
  0.542   0.550   0.561   0.572   0.584   0.590   0.602   0.607
  0.639   0.650   0.662   0.687   0.712   0.721   0.745   0.786
  0.809   0.868   0.919   0.926   0.936   0.962   0.968   1.003
  1.038   1.054   1.090   1.110   1.137   1.155   1.169   1.186
  1.192   1.219   1.236   1.248   1.254   1.260   1.270   1.281
  1.292   1.300   1.306   1.312   1.320   1.329   1.360   1.365
  1.372   1.415   1.423   1.459   1.485   1.499   1.511   1.518
  1.529   1.540   1.558   1.581   1.592   1.596   1.602   1.608
  1.623   1.638   1.673   1.726   1.753   1.781   1.817   1.838
  1.856   1.916   1.930   1.939   1.990   2.011   2.019   2.028
  2.047   2.056   2.077   2.093   2.129   2.171   2.238   2.311
  2.334   2.367   2.707   2.742   2.812   2.899   2.925   2.938
  2.941   2.952   2.958   2.967   2.981   2.986   3.018   3.041
  3.064   3.066   3.077   3.124   3.144   3.161   3.201   3.233
  3.283   3.293   3.593   3.606   3.727   3.737   3.811   3.848
  3.850   3.852   3.856   3.861   3.872   3.879   3.881   3.888
  3.913   3.914   3.975   3.986   4.075   4.108   4.109   4.161
  4.232   4.301   4.304   4.308   4.385   4.493   4.618   5.018
  5.038   5.043   5.152   5.162   5.167   5.189   5.201   5.216
  5.228   5.274   5.296   5.307   5.448   5.461   6.412   6.416
  6.420   6.449   6.465   6.480   6.496   6.505   6.522   6.528
  6.561   6.570   6.889   6.892   6.916   8.280   8.326  17.500
 17.534  17.562  17.616  17.653  17.670  23.630  23.655  35.606
 50.034  50.044  50.082  50.085  66.907  66.915  66.922  66.932
 66.972 189.508 189.555
 
 Beta MOs
 -- Occupied --
-89.209 -89.208 -24.831 -24.831 -24.830 -24.830 -24.829 -19.216
-19.215 -19.214 -19.212 -14.404 -10.531 -10.437  -8.230  -8.230
 -6.179  -6.178  -6.178  -6.178  -6.178  -6.177  -1.421  -1.379
 -1.329  -1.328  -1.318  -1.211  -1.194  -1.086  -1.084  -0.992
 -0.836  -0.796  -0.754  -0.701  -0.682  -0.681  -0.660  -0.647
 -0.598  -0.583  -0.569  -0.556  -0.553  -0.539  -0.535  -0.525
 -0.521  -0.516  -0.513  -0.509  -0.503  -0.492  -0.459  -0.409
 -0.409  -0.393  -0.381  -0.379  -0.375  -0.361  -0.338  -0.323
 -- Virtual --
  0.002   0.104   0.112   0.122   0.129   0.140   0.142   0.145
  0.150   0.156   0.160   0.163   0.175   0.180   0.185   0.186
  0.190   0.198   0.208   0.218   0.223   0.240   0.244   0.254
  0.270   0.291   0.303   0.310   0.319   0.322   0.329   0.332
  0.340   0.345   0.348   0.353   0.360   0.365   0.367   0.371
  0.380   0.391   0.396   0.399   0.407   0.413   0.415   0.418
  0.425   0.426   0.431   0.435   0.447   0.457   0.459   0.466
  0.471   0.472   0.481   0.489   0.499   0.501   0.508   0.512
  0.540   0.543   0.551   0.562   0.572   0.584   0.591   0.602
  0.607   0.641   0.653   0.663   0.688   0.715   0.732   0.752
  0.794   0.810   0.878   0.920   0.929   0.938   0.964   0.971
  1.006   1.044   1.055   1.090   1.112   1.138   1.156   1.169
  1.187   1.193   1.220   1.238   1.251   1.255   1.262   1.271
  1.281   1.292   1.303   1.310   1.315   1.320   1.334   1.360
  1.371   1.379   1.420   1.427   1.465   1.487   1.499   1.511
  1.519   1.531   1.542   1.563   1.582   1.593   1.603   1.608
  1.616   1.625   1.643   1.702   1.737   1.757   1.781   1.818
  1.854   1.862   1.925   1.935   1.940   1.991   2.013   2.023
  2.033   2.048   2.059   2.082   2.095   2.134   2.176   2.239
  2.311   2.335   2.368   2.707   2.746   2.861   2.900   2.930
  2.938   2.943   2.954   2.962   2.970   2.982   2.987   3.021
  3.044   3.067   3.067   3.081   3.133   3.145   3.171   3.201
  3.238   3.284   3.297   3.593   3.608   3.728   3.738   3.811
  3.848   3.852   3.857   3.858   3.867   3.876   3.880   3.883
  3.896   3.913   3.918   3.975   3.986   4.083   4.112   4.119
  4.162   4.232   4.304   4.306   4.308   4.385   4.493   4.626
  5.024   5.038   5.043   5.154   5.163   5.168   5.189   5.203
  5.216   5.231   5.275   5.298   5.308   5.449   5.462   6.416
  6.421   6.430   6.450   6.468   6.482   6.498   6.505   6.523
  6.529   6.562   6.573   6.889   6.892   6.922   8.281   8.326
 17.501  17.534  17.562  17.616  17.653  17.670  23.631  23.678
 35.606  50.035  50.044  50.083  50.085  66.909  66.916  66.923
 66.934  66.972 189.508 189.555
 --------------------------------------------------------------
 
          Ground-State Mulliken Net Atomic Charges

     Atom                 Charge (a.u.)    Spin (a.u.)
  --------------------------------------------------------
      1 S                     0.598697       0.011652
      2 C                    -0.224893       0.814588
      3 N                    -0.684885       0.008781
      4 O                    -0.163404       0.064016
      5 O                    -0.236871       0.006754
      6 F                    -0.010688       0.049435
      7 F                    -0.060530       0.044529
      8 S                     0.267064      -0.002230
      9 C                     0.049548       0.002891
     10 O                    -0.126553      -0.000440
     11 O                    -0.196742      -0.000202
     12 F                    -0.051038       0.000167
     13 F                    -0.084175      -0.000068
     14 F                    -0.075531       0.000127
  --------------------------------------------------------
  Sum of atomic charges =    -1.000000
  Sum of spin   charges =     1.000000

 -----------------------------------------------------------------
                    Cartesian Multipole Moments
 -----------------------------------------------------------------
    Charge (ESU x 10^10)
                -4.8032
    Dipole Moment (Debye)
         X      -0.1115      Y       2.6340      Z       4.3137
       Tot       5.0556
    Quadrupole Moments (Debye-Ang)
        XX    -114.0675     XY      -3.8362     YY    -100.1357
        XZ      -2.6215     YZ      -1.3535     ZZ    -107.2525
    Octopole Moments (Debye-Ang^2)
       XXX     114.4701    XXY     -33.5830    XYY      44.0382
       YYY     -96.2297    XXZ      80.5540    XYZ       8.3000
       YYZ      72.8696    XZZ      51.7892    YZZ     -28.3580
       ZZZ     226.5701
    Hexadecapole Moments (Debye-Ang^3)
      XXXX   -1919.8102   XXXY      83.7832   XXYY    -427.8951
      XYYY     110.1337   YYYY    -686.8219   XXXZ    -493.6718
      XXYZ      13.4946   XYYZ    -175.9728   YYYZ      51.0109
      XXZZ    -569.5399   XYZZ      14.4073   YYZZ    -371.0538
      XZZZ    -536.4598   YZZZ      26.3575   ZZZZ   -1497.0266
 -----------------------------------------------------------------
 Calculating analytic gradient of the SCF energy
 Gradient of SCF Energy
            1           2           3           4           5           6
    1  -0.0019145  -0.0028126  -0.0032150   0.0048960  -0.0211481   0.0113004
    2   0.0061814  -0.0100667  -0.0263767   0.0187433  -0.0123444   0.0040571
    3   0.0044087   0.0090736   0.0068920  -0.0170592   0.0120408  -0.0057531
            7           8           9          10          11          12
    1  -0.0082574   0.0115197  -0.0093070  -0.0024364   0.0126043  -0.0046998
    2   0.0025138  -0.0011059   0.0058118   0.0138004   0.0088148  -0.0037900
    3  -0.0080917  -0.0023724  -0.0045366   0.0180575  -0.0179168   0.0131515
           13          14
    1   0.0120375   0.0014330
    2   0.0040440  -0.0102830
    3   0.0028189  -0.0107133
 Max gradient component =       2.638E-02
 RMS gradient           =       1.057E-02
 Computing fast CPCM-SWIG gradient
 Updating gradient with PCM contributions...
 -- total gradient after adding PCM contribution --
---------------------------------------------------
  Atom         X              Y              Z     
---------------------------------------------------
   1       0.001840      -0.000489      -0.000424
   2      -0.001664       0.002172      -0.001425
   3      -0.001259       0.003032      -0.001148
   4      -0.000907      -0.002615       0.001218
   5       0.000123       0.000736      -0.000288
   6       0.000413      -0.000596       0.000130
   7       0.000463      -0.000715       0.000709
   8       0.002729      -0.000243       0.003734
   9       0.000234      -0.000178      -0.002607
  10      -0.000989      -0.001423      -0.003260
  11      -0.001279       0.000319       0.001459
  12       0.000749       0.000226       0.000398
  13      -0.000628      -0.000448       0.000922
  14       0.000177       0.000222       0.000582
---------------------------------------------------
 Number of fixed atoms: 0
 Gradient time:  CPU 146.47 s  wall 12.65 s
 Geometry Optimization Parameters
   NAtoms,    NIC,     NZ,  NCons,   NDum,   NFix, NCnnct, MaxDiis
       14      84       0       0       0       0       0       0

 Cartesian Hessian Update
 Hessian Updated using BFGS Update


** GEOMETRY OPTIMIZATION IN DELOCALIZED INTERNAL COORDINATES **
   Searching for a Minimum

   Optimization Cycle:   2

                       Coordinates (Angstroms)
     ATOM                X               Y               Z
      1  S         1.1948678365    0.0458202796   -0.2354679499
      2  C         0.8878457815    1.2281835953    1.1333891651
      3  N         0.0628085754    0.4324001618   -1.2860965350
      4  O         1.0732232319   -1.2966331749    0.3235280587
      5  O         2.4817756050    0.4655138029   -0.7547535324
      6  F        -0.2973972592    1.1309068021    1.7019947498
      7  F         1.8390043220    1.2149982142    2.0579929286
      8  S        -1.3702605213   -0.2655917163   -1.3781922578
      9  C        -2.3083940216    1.2386759514   -1.9654573404
     10  O        -1.4767618522   -1.2059875980   -2.4843599482
     11  O        -1.9965265153   -0.6288149320   -0.1160925670
     12  F        -1.8234194627    1.7022290695   -3.1108090167
     13  F        -3.5857875998    0.8986584488   -2.1465017038
     14  F        -2.2598215777    2.2097193245   -1.0562408576
   Point Group: c1    Number of degrees of freedom:    36


   Energy is  -1727.350864495

 Hessian Updated using BFGS Update

 30 Hessian modes will be used to form the next step
  Hessian Eigenvalues:
     0.002000    0.002040    0.018227    0.018933    0.039139    0.082926
     0.089898    0.100494    0.106748    0.113514    0.125478    0.146802
     0.153556    0.190843    0.204604    0.206435    0.224039    0.247675
     0.288490    0.496672    0.512679    0.548907    0.572198    0.585126
     0.593513    0.619460    0.815670    0.898600    0.924109    0.955344

 Minimum Search - Taking Simple RFO Step
 Searching for Lamda that Minimizes Along All modes
 Value Taken    Lamda =  -0.00027804
 Step Taken.  Stepsize is  0.057969

                             Maximum     Tolerance    Cnvgd?
         Gradient           0.002875      0.000300      NO
         Displacement       0.035127      0.001200      NO
         Energy change     -0.000688      0.000001      NO


 New Cartesian Coordinates Obtained by Inverse Iteration

 Displacement from previous Coordinates is:  0.167678
 ----------------------------------------------------------------
             Standard Nuclear Orientation (Angstroms)
    I     Atom           X                Y                Z
 ----------------------------------------------------------------
    1      S       1.1883701442     0.0398207424    -0.2266551946
    2      C       0.8991648488     1.2336807390     1.1326102486
    3      N       0.0631536167     0.4206611884    -1.2835529424
    4      O       1.0590291055    -1.2949835202     0.3418995575
    5      O       2.4793435838     0.4399953050    -0.7500700252
    6      F      -0.2885860851     1.1708238231     1.7003882058
    7      F       1.8536453232     1.2319079251     2.0512196744
    8      S      -1.3720051099    -0.2694102185    -1.3935638198
    9      C      -2.3126051510     1.2391646686    -1.9579616570
   10      O      -1.4643125209    -1.1983835900    -2.5061262651
   11      O      -1.9978133056    -0.6592784518    -0.1408839131
   12      F      -1.8280719382     1.7215593793    -3.0949326302
   13      F      -3.5860840461     0.8985183462    -2.1528954646
   14      F      -2.2720719227     2.1960018923    -1.0365425809
 ----------------------------------------------------------------
 Nuclear Repulsion Energy =  1400.2628156913 hartrees
 There are       65 alpha and       64 beta electrons
 Discretize the solute cavity surface with Lebedev spheres
	Using 194 Lebedev grid points for each H atom
	Using 194 Lebedev grid points for other atoms
	Atomic van der Waals radii will be scaled by 1.10
 Remove points where switching function is < 1.0e-08
 Keep 1281 surface tesserae and discard 1435 interior tesserae
 Molecular Surface Area = 225.880 Angst**2
 Applying Cartesian multipole field
    Component          Value
    ---------          -----
     (2,0,0)        1.00000E-11
     (0,2,0)        2.00000E-11
     (0,0,2)       -3.00000E-11
 Nucleus-field energy     =    -0.0000000095 hartrees
 Requested basis set is 6-311++G(d)
 There are 98 shells and 324 basis functions
 A cutoff of  1.0D-12 yielded   3755 shell pairs
 There are     43265 function pairs (     46756 Cartesian)
 Smallest overlap matrix eigenvalue = 5.35E-05
 Guess MOs from SCF MO coefficient file
 Reading MOs from coefficient file
 Reading MOs from coefficient file

 -----------------------------------------------------------------------
  General SCF calculation program by
  Eric Jon Sundstrom, Paul Horn, Yuezhi Mao, Dmitri Zuev, Alec White,
  David Stuck, Shaama M.S., Shane Yost, Joonho Lee, David Small,
  Daniel Levine, Susi Lehtola, Hugh Burton, Evgeny Epifanovsky
 -----------------------------------------------------------------------
 Exchange:     0.2220 Hartree-Fock + 1.0000 wB97X-D + LR-HF
 Correlation:  1.0000 wB97X-D
 Using SG-3 standard quadrature grid
 Dispersion:   Grimme D
 using 32 threads for integral computing
 -------------------------------------------------------
 OpenMP Integral computing Module                
 Release: version 1.0, May 2013, Q-Chem Inc. Pittsburgh 
 -------------------------------------------------------
 using 32 threads for integral computing
 -------------------------------------------------------
 OpenMP Integral computing Module                
 Release: version 1.0, May 2013, Q-Chem Inc. Pittsburgh 
 -------------------------------------------------------
 -------------------------------------------------------
 OpenMP BLAS3 based DFT computing Module                
 Release: version 1.0, May 2013, Q-Chem Inc. Pittsburgh 
 -------------------------------------------------------
 A unrestricted SCF calculation will be
 performed using Roothaan-Hall, GDM
 SCF converges when RMS gradient is below 1.0e-08
 ---------------------------------------
  Cycle       Energy         DIIS error
 ---------------------------------------
    1   -1715.6850506071      1.77e-04  Roothaan Step
 ---------------------------------------
  Cycle       Energy        RMS Gradient
 ---------------------------------------
    1   -1727.3500066013      8.00e-03   Normal BFGS step
    2   -1727.3505904961      3.16e-03   Normal BFGS step
    3   -1727.3509282866      9.65e-04   Normal BFGS step
    4   -1727.3509598101      6.85e-04   Normal BFGS step
    5   -1727.3509744882      2.49e-04   Normal BFGS step
    6   -1727.3509757506      9.32e-05   Normal BFGS step
    7   -1727.3509762647      8.89e-05   Normal BFGS step
    8   -1727.3509763249      4.08e-05   Normal BFGS step
    9   -1727.3509763428      1.34e-05   Normal BFGS step
   10   -1727.3509763466      6.78e-06   Normal BFGS step
   11   -1727.3509763475      2.62e-06   Normal BFGS step
   12   -1727.3509763475      1.10e-06   Normal BFGS step
   13   -1727.3509763476      5.81e-07   Normal BFGS step
   14   -1727.3509763476      2.60e-07   Normal BFGS step
   15   -1727.3509763476      5.65e-08   Normal BFGS step
   16   -1727.3509763476      2.18e-08   Normal BFGS step
   17   -1727.3509763476      8.35e-09  Convergence criterion met
 ---------------------------------------
 SCF time:   CPU 1386.60s  wall 77.00s 
<S^2> =          0.753275677

************** Final PCM Free Energy Summary **************
 G_electrostatic  =      -0.05105614 hartree =     -32.03821186 kcal/mol
 G_cavitation     =       0.00000000 hartree =       0.00000000 kcal/mol
 G_dispersion     =       0.00000000 hartree =       0.00000000 kcal/mol
 G_repulsion      =       0.00000000 hartree =       0.00000000 kcal/mol
 --------------------------------------------------
 Non-electrostatic Free Energy =       0.00000000 hartree =       0.00000000 kcal/mol
 Total                         =      -0.05105614 hartree =     -32.03821186 kcal/mol
 --------------------------------------------------
 SCF Energy (H0 + V/2)                       =   -1727.35097635 
 Solute Internal Energy (H0)                 =   -1727.29992021 
 Total Free Energy (H0 + V/2 + non-elec)     =   -1727.35097635 hartree
                                             = -1083929.09739923 kcal/mol
***********************************************************

 SCF   energy in the final basis set =    -1727.3509763476
 Total energy in the final basis set =    -1727.3509763476
 
 --------------------------------------------------------------
 
                    Orbital Energies (a.u.)
 --------------------------------------------------------------
 
 Alpha MOs
 -- Occupied --
-89.208 -89.208 -24.833 -24.833 -24.831 -24.831 -24.831 -19.216
-19.215 -19.214 -19.211 -14.403 -10.531 -10.450  -8.230  -8.229
 -6.179  -6.178  -6.178  -6.178  -6.178  -6.177  -1.423  -1.389
 -1.330  -1.329  -1.327  -1.213  -1.195  -1.087  -1.085  -0.992
 -0.840  -0.809  -0.760  -0.706  -0.684  -0.683  -0.666  -0.656
 -0.616  -0.599  -0.571  -0.557  -0.553  -0.542  -0.539  -0.534
 -0.526  -0.519  -0.514  -0.511  -0.507  -0.493  -0.460  -0.412
 -0.410  -0.406  -0.387  -0.381  -0.376  -0.364  -0.339  -0.324
 -0.295
 -- Virtual --
  0.102   0.111   0.121   0.128   0.139   0.140   0.144   0.148
  0.154   0.158   0.162   0.173   0.178   0.184   0.185   0.189
  0.197   0.201   0.214   0.218   0.235   0.241   0.251   0.265
  0.290   0.302   0.306   0.313   0.323   0.327   0.332   0.339
  0.345   0.346   0.352   0.359   0.360   0.366   0.370   0.378
  0.390   0.395   0.398   0.407   0.413   0.416   0.417   0.423
  0.425   0.430   0.434   0.447   0.455   0.457   0.465   0.471
  0.473   0.478   0.488   0.499   0.501   0.507   0.512   0.539
  0.542   0.550   0.562   0.572   0.585   0.588   0.602   0.609
  0.639   0.650   0.660   0.686   0.712   0.723   0.745   0.786
  0.809   0.868   0.920   0.928   0.936   0.963   0.967   1.004
  1.035   1.054   1.090   1.110   1.138   1.155   1.169   1.188
  1.194   1.219   1.236   1.248   1.254   1.258   1.270   1.281
  1.294   1.302   1.307   1.314   1.320   1.329   1.359   1.366
  1.372   1.413   1.421   1.459   1.486   1.498   1.510   1.517
  1.529   1.539   1.556   1.582   1.591   1.594   1.601   1.608
  1.622   1.641   1.678   1.727   1.754   1.781   1.818   1.838
  1.855   1.916   1.929   1.940   1.991   2.009   2.017   2.029
  2.045   2.057   2.075   2.092   2.128   2.167   2.236   2.310
  2.334   2.367   2.705   2.745   2.811   2.900   2.926   2.938
  2.942   2.951   2.959   2.968   2.981   2.985   3.019   3.043
  3.066   3.068   3.077   3.127   3.145   3.164   3.201   3.237
  3.285   3.296   3.596   3.608   3.731   3.742   3.810   3.848
  3.850   3.852   3.855   3.860   3.872   3.878   3.881   3.887
  3.912   3.915   3.975   3.986   4.077   4.106   4.110   4.161
  4.234   4.303   4.306   4.310   4.387   4.494   4.618   5.018
  5.039   5.043   5.152   5.162   5.167   5.189   5.203   5.217
  5.229   5.272   5.296   5.309   5.451   5.464   6.412   6.416
  6.418   6.448   6.464   6.480   6.492   6.506   6.522   6.529
  6.562   6.568   6.891   6.894   6.919   8.282   8.327  17.501
 17.535  17.563  17.616  17.654  17.672  23.632  23.657  35.606
 50.036  50.044  50.083  50.085  66.906  66.914  66.923  66.931
 66.971 189.511 189.557
 
 Beta MOs
 -- Occupied --
-89.208 -89.208 -24.831 -24.831 -24.831 -24.830 -24.830 -19.215
-19.214 -19.214 -19.211 -14.403 -10.531 -10.437  -8.230  -8.229
 -6.179  -6.178  -6.178  -6.178  -6.177  -6.177  -1.423  -1.379
 -1.330  -1.329  -1.319  -1.212  -1.194  -1.087  -1.084  -0.991
 -0.837  -0.797  -0.754  -0.702  -0.683  -0.682  -0.661  -0.648
 -0.598  -0.583  -0.569  -0.557  -0.553  -0.539  -0.535  -0.525
 -0.521  -0.516  -0.513  -0.510  -0.504  -0.493  -0.459  -0.410
 -0.408  -0.393  -0.381  -0.379  -0.374  -0.361  -0.338  -0.323
 -- Virtual --
  0.005   0.104   0.112   0.122   0.129   0.141   0.141   0.145
  0.150   0.156   0.160   0.164   0.175   0.180   0.184   0.187
  0.190   0.198   0.208   0.218   0.222   0.240   0.244   0.255
  0.270   0.292   0.303   0.311   0.320   0.323   0.329   0.332
  0.340   0.346   0.348   0.353   0.361   0.366   0.368   0.372
  0.380   0.391   0.396   0.399   0.407   0.414   0.416   0.417
  0.425   0.426   0.431   0.435   0.448   0.457   0.459   0.465
  0.471   0.473   0.481   0.489   0.500   0.501   0.507   0.512
  0.540   0.543   0.550   0.562   0.573   0.585   0.589   0.603
  0.609   0.641   0.653   0.661   0.687   0.715   0.733   0.752
  0.795   0.810   0.878   0.921   0.931   0.938   0.964   0.971
  1.007   1.041   1.056   1.091   1.112   1.139   1.156   1.170
  1.188   1.195   1.219   1.237   1.251   1.255   1.260   1.270
  1.281   1.294   1.305   1.310   1.317   1.320   1.333   1.359
  1.371   1.381   1.419   1.425   1.465   1.488   1.498   1.511
  1.518   1.531   1.541   1.561   1.582   1.592   1.601   1.608
  1.615   1.624   1.645   1.704   1.739   1.758   1.782   1.819
  1.853   1.862   1.926   1.934   1.941   1.992   2.012   2.020
  2.033   2.046   2.060   2.081   2.093   2.133   2.172   2.237
  2.310   2.335   2.368   2.705   2.750   2.860   2.900   2.931
  2.938   2.944   2.953   2.963   2.971   2.982   2.986   3.022
  3.046   3.067   3.069   3.081   3.136   3.146   3.175   3.201
  3.241   3.286   3.301   3.596   3.610   3.732   3.742   3.810
  3.848   3.852   3.857   3.858   3.866   3.876   3.880   3.883
  3.895   3.913   3.919   3.975   3.986   4.085   4.113   4.118
  4.161   4.234   4.306   4.307   4.310   4.387   4.494   4.626
  5.024   5.039   5.044   5.155   5.163   5.167   5.189   5.204
  5.217   5.232   5.273   5.298   5.309   5.452   5.465   6.416
  6.421   6.428   6.449   6.467   6.482   6.494   6.506   6.523
  6.529   6.562   6.571   6.891   6.894   6.925   8.283   8.327
 17.502  17.535  17.564  17.616  17.654  17.672  23.632  23.680
 35.606  50.036  50.045  50.084  50.085  66.908  66.916  66.923
 66.932  66.971 189.511 189.557
 --------------------------------------------------------------
 
          Ground-State Mulliken Net Atomic Charges

     Atom                 Charge (a.u.)    Spin (a.u.)
  --------------------------------------------------------
      1 S                     0.604382       0.010821
      2 C                    -0.228473       0.819108
      3 N                    -0.691524       0.007731
      4 O                    -0.164252       0.063497
      5 O                    -0.239865       0.006241
      6 F                    -0.011605       0.048627
      7 F                    -0.057275       0.044101
      8 S                     0.278132      -0.002791
      9 C                     0.044309       0.003048
     10 O                    -0.125631      -0.000452
     11 O                    -0.200496      -0.000156
     12 F                    -0.051682       0.000158
     13 F                    -0.083226      -0.000069
     14 F                    -0.072793       0.000136
  --------------------------------------------------------
  Sum of atomic charges =    -1.000000
  Sum of spin   charges =     1.000000

 -----------------------------------------------------------------
                    Cartesian Multipole Moments
 -----------------------------------------------------------------
    Charge (ESU x 10^10)
                -4.8032
    Dipole Moment (Debye)
         X      -0.1782      Y       2.7165      Z       4.3362
       Tot       5.1200
    Quadrupole Moments (Debye-Ang)
        XX    -113.9202     XY      -3.8520     YY    -100.0763
        XZ      -2.5580     YZ      -1.4086     ZZ    -107.2790
    Octopole Moments (Debye-Ang^2)
       XXX     114.0872    XXY     -33.0434    XYY      44.1913
       YYY     -95.7800    XXZ      80.5206    XYZ       8.2474
       YYZ      72.5848    XZZ      51.8288    YZZ     -28.0803
       ZZZ     227.3504
    Hexadecapole Moments (Debye-Ang^3)
      XXXX   -1920.1573   XXXY      83.6587   XXYY    -428.2295
      XYYY     109.7081   YYYY    -690.0410   XXXZ    -495.9541
      XXYZ      12.3325   XYYZ    -176.8052   YYYZ      48.1002
      XXZZ    -569.6162   XYZZ      14.6807   YYZZ    -372.1774
      XZZZ    -539.3605   YZZZ      22.6437   ZZZZ   -1499.7629
 -----------------------------------------------------------------
 Calculating analytic gradient of the SCF energy
 Gradient of SCF Energy
            1           2           3           4           5           6
    1  -0.0016617  -0.0023442  -0.0021366   0.0052044  -0.0222600   0.0111771
    2   0.0055350  -0.0116494  -0.0281859   0.0214488  -0.0126432   0.0044422
    3   0.0052961   0.0116435   0.0073370  -0.0190459   0.0119509  -0.0063180
            7           8           9          10          11          12
    1  -0.0082676   0.0078943  -0.0091286  -0.0015626   0.0142119  -0.0058878
    2   0.0031627  -0.0009808   0.0056442   0.0151222   0.0083865  -0.0043550
    3  -0.0089830  -0.0056231  -0.0028862   0.0220644  -0.0195107   0.0138231
           13          14
    1   0.0135823   0.0011793
    2   0.0049144  -0.0108417
    3   0.0023836  -0.0121317
 Max gradient component =       2.819E-02
 RMS gradient           =       1.144E-02
 Computing fast CPCM-SWIG gradient
 Updating gradient with PCM contributions...
 -- total gradient after adding PCM contribution --
---------------------------------------------------
  Atom         X              Y              Z     
---------------------------------------------------
   1       0.001170      -0.000684       0.000471
   2      -0.000955      -0.000369       0.001297
   3      -0.000207       0.000893      -0.000681
   4      -0.000252       0.000441      -0.000349
   5      -0.000503      -0.000270      -0.000177
   6       0.000291       0.000378      -0.000499
   7       0.000554       0.000193      -0.000214
   8      -0.001086       0.000833      -0.000077
   9       0.000425      -0.000328      -0.000761
  10       0.000122      -0.000362       0.000649
  11       0.000214      -0.000559      -0.000394
  12      -0.000592      -0.000149       0.001204
  13       0.000987       0.000452       0.000295
  14      -0.000169      -0.000470      -0.000762
---------------------------------------------------
 Number of fixed atoms: 0
 Gradient time:  CPU 144.72 s  wall 12.38 s
 Geometry Optimization Parameters
   NAtoms,    NIC,     NZ,  NCons,   NDum,   NFix, NCnnct, MaxDiis
       14      84       0       0       0       0       0       0

 Cartesian Hessian Update
 Hessian Updated using BFGS Update


** GEOMETRY OPTIMIZATION IN DELOCALIZED INTERNAL COORDINATES **
   Searching for a Minimum

   Optimization Cycle:   3

                       Coordinates (Angstroms)
     ATOM                X               Y               Z
      1  S         1.1883701442    0.0398207424   -0.2266551946
      2  C         0.8991648488    1.2336807390    1.1326102486
      3  N         0.0631536167    0.4206611884   -1.2835529424
      4  O         1.0590291055   -1.2949835202    0.3418995575
      5  O         2.4793435838    0.4399953050   -0.7500700252
      6  F        -0.2885860851    1.1708238231    1.7003882058
      7  F         1.8536453232    1.2319079251    2.0512196744
      8  S        -1.3720051099   -0.2694102185   -1.3935638198
      9  C        -2.3126051510    1.2391646686   -1.9579616570
     10  O        -1.4643125209   -1.1983835900   -2.5061262651
     11  O        -1.9978133056   -0.6592784518   -0.1408839131
     12  F        -1.8280719382    1.7215593793   -3.0949326302
     13  F        -3.5860840461    0.8985183462   -2.1528954646
     14  F        -2.2720719227    2.1960018923   -1.0365425809
   Point Group: c1    Number of degrees of freedom:    36


   Energy is  -1727.350976348

 Hessian Updated using BFGS Update

 31 Hessian modes will be used to form the next step
  Hessian Eigenvalues:
     0.001999    0.002039    0.016724    0.019595    0.043560    0.082866
     0.088183    0.101194    0.107385    0.112508    0.124084    0.147729
     0.172746    0.188077    0.204832    0.206451    0.217790    0.241784
     0.251415    0.296207    0.496082    0.513140    0.562457    0.573615
     0.584551    0.600280    0.619379    0.821410    0.899382    0.924771
     0.956624

 Minimum Search - Taking Simple RFO Step
 Searching for Lamda that Minimizes Along All modes
 Value Taken    Lamda =  -0.00005718
 Step Taken.  Stepsize is  0.033879

                             Maximum     Tolerance    Cnvgd?
         Gradient           0.001392      0.000300      NO
         Displacement       0.015161      0.001200      NO
         Energy change     -0.000112      0.000001      NO


 New Cartesian Coordinates Obtained by Inverse Iteration

 Displacement from previous Coordinates is:  0.068335
 ----------------------------------------------------------------
             Standard Nuclear Orientation (Angstroms)
    I     Atom           X                Y                Z
 ----------------------------------------------------------------
    1      S       1.1910680810     0.0375716854    -0.2270570256
    2      C       0.8944087405     1.2369240186     1.1240195324
    3      N       0.0663930683     0.4092104559    -1.2867621048
    4      O       1.0686101729    -1.2941446569     0.3500810184
    5      O       2.4823288955     0.4412172206    -0.7475706062
    6      F      -0.2958877291     1.1711227726     1.6869925671
    7      F       1.8413270575     1.2366571314     2.0499424977
    8      S      -1.3719402413    -0.2738385448    -1.3960309585
    9      C      -2.3103607599     1.2411271877    -1.9520938621
   10      O      -1.4719123294    -1.1972252737    -2.5122734495
   11      O      -1.9967585967    -0.6616513252    -0.1422532287
   12      F      -1.8273953862     1.7232585004    -3.0909794507
   13      F      -3.5859249743     0.9045243238    -2.1456223647
   14      F      -2.2627994561     2.1953247331    -1.0274593715
 ----------------------------------------------------------------
 Nuclear Repulsion Energy =  1400.4942752971 hartrees
 There are       65 alpha and       64 beta electrons
 Discretize the solute cavity surface with Lebedev spheres
	Using 194 Lebedev grid points for each H atom
	Using 194 Lebedev grid points for other atoms
	Atomic van der Waals radii will be scaled by 1.10
 Remove points where switching function is < 1.0e-08
 Keep 1276 surface tesserae and discard 1440 interior tesserae
 Molecular Surface Area = 225.655 Angst**2
 Applying Cartesian multipole field
    Component          Value
    ---------          -----
     (2,0,0)        1.00000E-11
     (0,2,0)        2.00000E-11
     (0,0,2)       -3.00000E-11
 Nucleus-field energy     =    -0.0000000094 hartrees
 Requested basis set is 6-311++G(d)
 There are 98 shells and 324 basis functions
 A cutoff of  1.0D-12 yielded   3756 shell pairs
 There are     43301 function pairs (     46802 Cartesian)
 Smallest overlap matrix eigenvalue = 5.31E-05
 Guess MOs from SCF MO coefficient file
 Reading MOs from coefficient file
 Reading MOs from coefficient file

 -----------------------------------------------------------------------
  General SCF calculation program by
  Eric Jon Sundstrom, Paul Horn, Yuezhi Mao, Dmitri Zuev, Alec White,
  David Stuck, Shaama M.S., Shane Yost, Joonho Lee, David Small,
  Daniel Levine, Susi Lehtola, Hugh Burton, Evgeny Epifanovsky
 -----------------------------------------------------------------------
 Exchange:     0.2220 Hartree-Fock + 1.0000 wB97X-D + LR-HF
 Correlation:  1.0000 wB97X-D
 Using SG-3 standard quadrature grid
 Dispersion:   Grimme D
 using 32 threads for integral computing
 -------------------------------------------------------
 OpenMP Integral computing Module                
 Release: version 1.0, May 2013, Q-Chem Inc. Pittsburgh 
 -------------------------------------------------------
 using 32 threads for integral computing
 -------------------------------------------------------
 OpenMP Integral computing Module                
 Release: version 1.0, May 2013, Q-Chem Inc. Pittsburgh 
 -------------------------------------------------------
 -------------------------------------------------------
 OpenMP BLAS3 based DFT computing Module                
 Release: version 1.0, May 2013, Q-Chem Inc. Pittsburgh 
 -------------------------------------------------------
 A unrestricted SCF calculation will be
 performed using Roothaan-Hall, GDM
 SCF converges when RMS gradient is below 1.0e-08
 ---------------------------------------
  Cycle       Energy         DIIS error
 ---------------------------------------
    1   -1715.6890334425      1.03e-04  Roothaan Step
 ---------------------------------------
  Cycle       Energy        RMS Gradient
 ---------------------------------------
    1   -1727.3501715605      6.29e-03   Normal BFGS step
    2   -1727.3506687417      3.04e-03   Normal BFGS step
    3   -1727.3509731888      8.15e-04   Normal BFGS step
    4   -1727.3509980142      6.76e-04   Normal BFGS step
    5   -1727.3510115067      1.55e-04   Normal BFGS step
    6   -1727.3510123950      7.37e-05   Normal BFGS step
    7   -1727.3510127853      5.87e-05   Normal BFGS step
    8   -1727.3510128129      3.00e-05   Normal BFGS step
    9   -1727.3510128232      1.39e-05   Normal BFGS step
   10   -1727.3510128253      3.75e-06   Normal BFGS step
   11   -1727.3510128260      2.32e-06   Normal BFGS step
   12   -1727.3510128260      1.06e-06   Normal BFGS step
   13   -1727.3510128261      5.00e-07   Normal BFGS step
   14   -1727.3510128261      2.33e-07   Normal BFGS step
   15   -1727.3510128261      3.58e-08   Normal BFGS step
   16   -1727.3510128261      2.23e-08   Normal BFGS step
   17   -1727.3510128261      8.50e-09  Convergence criterion met
 ---------------------------------------
 SCF time:   CPU 1383.65s  wall 77.00s 
<S^2> =          0.753264682

************** Final PCM Free Energy Summary **************
 G_electrostatic  =      -0.05099288 hartree =     -31.99851807 kcal/mol
 G_cavitation     =       0.00000000 hartree =       0.00000000 kcal/mol
 G_dispersion     =       0.00000000 hartree =       0.00000000 kcal/mol
 G_repulsion      =       0.00000000 hartree =       0.00000000 kcal/mol
 --------------------------------------------------
 Non-electrostatic Free Energy =       0.00000000 hartree =       0.00000000 kcal/mol
 Total                         =      -0.05099288 hartree =     -31.99851807 kcal/mol
 --------------------------------------------------
 SCF Energy (H0 + V/2)                       =   -1727.35101283 
 Solute Internal Energy (H0)                 =   -1727.30001994 
 Total Free Energy (H0 + V/2 + non-elec)     =   -1727.35101283 hartree
                                             = -1083929.12028980 kcal/mol
***********************************************************

 SCF   energy in the final basis set =    -1727.3510128261
 Total energy in the final basis set =    -1727.3510128261
 
 --------------------------------------------------------------
 
                    Orbital Energies (a.u.)
 --------------------------------------------------------------
 
 Alpha MOs
 -- Occupied --
-89.209 -89.208 -24.833 -24.833 -24.831 -24.831 -24.831 -19.216
-19.215 -19.214 -19.211 -14.404 -10.531 -10.449  -8.230  -8.230
 -6.179  -6.178  -6.178  -6.178  -6.178  -6.177  -1.422  -1.389
 -1.330  -1.329  -1.327  -1.213  -1.196  -1.088  -1.085  -0.992
 -0.840  -0.809  -0.760  -0.706  -0.683  -0.683  -0.666  -0.656
 -0.616  -0.599  -0.571  -0.557  -0.553  -0.542  -0.539  -0.534
 -0.526  -0.519  -0.514  -0.512  -0.506  -0.493  -0.460  -0.412
 -0.410  -0.406  -0.387  -0.381  -0.376  -0.364  -0.339  -0.325
 -0.295
 -- Virtual --
  0.102   0.111   0.121   0.128   0.139   0.139   0.145   0.148
  0.154   0.158   0.162   0.173   0.178   0.184   0.185   0.189
  0.197   0.201   0.214   0.218   0.235   0.240   0.252   0.265
  0.290   0.302   0.307   0.312   0.322   0.328   0.332   0.339
  0.345   0.347   0.352   0.358   0.360   0.367   0.370   0.378
  0.390   0.395   0.398   0.407   0.413   0.415   0.417   0.423
  0.425   0.430   0.434   0.447   0.455   0.458   0.464   0.470
  0.473   0.479   0.488   0.499   0.501   0.506   0.512   0.539
  0.542   0.550   0.562   0.572   0.585   0.588   0.602   0.609
  0.639   0.651   0.660   0.686   0.712   0.723   0.746   0.786
  0.810   0.868   0.920   0.928   0.936   0.962   0.967   1.005
  1.036   1.054   1.090   1.111   1.138   1.155   1.169   1.188
  1.195   1.219   1.236   1.248   1.254   1.258   1.270   1.281
  1.293   1.301   1.307   1.314   1.319   1.329   1.358   1.366
  1.371   1.414   1.421   1.459   1.486   1.499   1.510   1.518
  1.529   1.539   1.556   1.582   1.591   1.594   1.601   1.608
  1.623   1.642   1.677   1.727   1.754   1.780   1.818   1.839
  1.856   1.916   1.928   1.939   1.990   2.010   2.019   2.029
  2.045   2.058   2.076   2.093   2.129   2.168   2.236   2.309
  2.333   2.367   2.703   2.746   2.812   2.899   2.926   2.937
  2.942   2.951   2.959   2.968   2.981   2.985   3.019   3.043
  3.065   3.067   3.076   3.128   3.145   3.164   3.201   3.237
  3.285   3.296   3.596   3.608   3.731   3.741   3.810   3.848
  3.850   3.852   3.855   3.860   3.872   3.878   3.881   3.888
  3.912   3.915   3.974   3.986   4.077   4.107   4.110   4.160
  4.233   4.303   4.305   4.309   4.387   4.493   4.619   5.018
  5.038   5.042   5.153   5.162   5.167   5.189   5.202   5.217
  5.229   5.272   5.296   5.309   5.451   5.464   6.412   6.416
  6.419   6.449   6.465   6.480   6.492   6.505   6.523   6.528
  6.563   6.569   6.889   6.894   6.919   8.282   8.326  17.501
 17.535  17.564  17.616  17.655  17.672  23.630  23.657  35.606
 50.036  50.044  50.083  50.085  66.907  66.915  66.923  66.931
 66.971 189.511 189.556
 
 Beta MOs
 -- Occupied --
-89.209 -89.208 -24.831 -24.831 -24.831 -24.830 -24.830 -19.215
-19.214 -19.214 -19.211 -14.404 -10.531 -10.437  -8.230  -8.229
 -6.179  -6.178  -6.178  -6.178  -6.177  -6.177  -1.422  -1.379
 -1.330  -1.329  -1.319  -1.212  -1.194  -1.087  -1.084  -0.991
 -0.836  -0.797  -0.755  -0.702  -0.683  -0.682  -0.661  -0.648
 -0.598  -0.583  -0.568  -0.557  -0.553  -0.539  -0.535  -0.525
 -0.521  -0.516  -0.513  -0.510  -0.503  -0.493  -0.459  -0.410
 -0.408  -0.393  -0.381  -0.379  -0.374  -0.361  -0.338  -0.323
 -- Virtual --
  0.004   0.104   0.112   0.122   0.129   0.141   0.141   0.145
  0.150   0.156   0.160   0.163   0.175   0.180   0.184   0.187
  0.190   0.198   0.209   0.219   0.222   0.240   0.244   0.255
  0.270   0.292   0.303   0.311   0.320   0.322   0.329   0.332
  0.340   0.346   0.348   0.353   0.360   0.366   0.368   0.372
  0.380   0.391   0.396   0.398   0.407   0.414   0.416   0.417
  0.425   0.426   0.431   0.435   0.448   0.457   0.459   0.465
  0.471   0.473   0.481   0.488   0.500   0.501   0.507   0.512
  0.540   0.543   0.551   0.562   0.572   0.585   0.590   0.603
  0.609   0.641   0.654   0.661   0.687   0.714   0.733   0.752
  0.795   0.811   0.878   0.921   0.930   0.938   0.964   0.971
  1.007   1.042   1.056   1.091   1.113   1.139   1.156   1.170
  1.188   1.195   1.219   1.238   1.251   1.255   1.260   1.270
  1.281   1.294   1.304   1.310   1.317   1.320   1.333   1.358
  1.371   1.380   1.419   1.425   1.465   1.488   1.499   1.511
  1.519   1.531   1.541   1.561   1.582   1.592   1.601   1.608
  1.616   1.625   1.647   1.704   1.739   1.758   1.781   1.819
  1.854   1.863   1.925   1.934   1.940   1.991   2.012   2.022
  2.033   2.046   2.061   2.082   2.094   2.133   2.173   2.237
  2.309   2.334   2.368   2.703   2.751   2.861   2.899   2.931
  2.938   2.943   2.953   2.963   2.971   2.982   2.986   3.022
  3.046   3.067   3.069   3.081   3.136   3.146   3.175   3.201
  3.242   3.285   3.301   3.596   3.610   3.732   3.742   3.810
  3.848   3.852   3.857   3.858   3.867   3.876   3.880   3.883
  3.895   3.913   3.919   3.974   3.986   4.085   4.113   4.119
  4.161   4.233   4.305   4.308   4.309   4.387   4.493   4.627
  5.024   5.038   5.043   5.155   5.163   5.168   5.190   5.203
  5.217   5.231   5.272   5.298   5.309   5.452   5.465   6.416
  6.421   6.429   6.450   6.468   6.482   6.494   6.505   6.524
  6.529   6.564   6.572   6.889   6.894   6.924   8.283   8.327
 17.502  17.535  17.564  17.616  17.655  17.672  23.631  23.680
 35.606  50.036  50.044  50.084  50.085  66.909  66.916  66.923
 66.933  66.971 189.511 189.556
 --------------------------------------------------------------
 
          Ground-State Mulliken Net Atomic Charges

     Atom                 Charge (a.u.)    Spin (a.u.)
  --------------------------------------------------------
      1 S                     0.603051       0.011206
      2 C                    -0.227209       0.817835
      3 N                    -0.692817       0.007805
      4 O                    -0.163006       0.063765
      5 O                    -0.240553       0.006341
      6 F                    -0.012552       0.048753
      7 F                    -0.057372       0.044322
      8 S                     0.281220      -0.002778
      9 C                     0.042789       0.003118
     10 O                    -0.123250      -0.000451
     11 O                    -0.201889      -0.000145
     12 F                    -0.052455       0.000161
     13 F                    -0.083660      -0.000068
     14 F                    -0.072297       0.000135
  --------------------------------------------------------
  Sum of atomic charges =    -1.000000
  Sum of spin   charges =     1.000000

 -----------------------------------------------------------------
                    Cartesian Multipole Moments
 -----------------------------------------------------------------
    Charge (ESU x 10^10)
                -4.8032
    Dipole Moment (Debye)
         X      -0.1914      Y       2.7080      Z       4.3158
       Tot       5.0986
    Quadrupole Moments (Debye-Ang)
        XX    -114.0145     XY      -3.8407     YY    -100.0164
        XZ      -2.6363     YZ      -1.3846     ZZ    -107.3696
    Octopole Moments (Debye-Ang^2)
       XXX     113.9886    XXY     -32.9447    XYY      44.1130
       YYY     -95.6213    XXZ      80.7005    XYZ       8.2895
       YYZ      72.4930    XZZ      51.9778    YZZ     -28.0434
       ZZZ     227.6762
    Hexadecapole Moments (Debye-Ang^3)
      XXXX   -1919.9977   XXXY      83.8181   XXYY    -428.3469
      XYYY     109.7720   YYYY    -690.8604   XXXZ    -495.0065
      XXYZ      12.2572   XYYZ    -176.4869   YYYZ      47.6578
      XXZZ    -569.3883   XYZZ      14.7332   YYZZ    -371.9108
      XZZZ    -538.8065   YZZZ      22.1394   ZZZZ   -1497.5972
 -----------------------------------------------------------------
 Calculating analytic gradient of the SCF energy
 Gradient of SCF Energy
            1           2           3           4           5           6
    1  -0.0019680  -0.0017774  -0.0021262   0.0052561  -0.0220350   0.0114198
    2   0.0057615  -0.0117005  -0.0280706   0.0214695  -0.0126024   0.0042304
    3   0.0050552   0.0107446   0.0081463  -0.0188805   0.0122659  -0.0060763
            7           8           9          10          11          12
    1  -0.0088866   0.0083933  -0.0094305  -0.0016771   0.0141268  -0.0055802
    2   0.0029783  -0.0015478   0.0059966   0.0151532   0.0086342  -0.0044637
    3  -0.0090519  -0.0059907  -0.0023226   0.0220058  -0.0195436   0.0129807
           13          14
    1   0.0129636   0.0013212
    2   0.0044707  -0.0103093
    3   0.0019705  -0.0113033
 Max gradient component =       2.807E-02
 RMS gradient           =       1.137E-02
 Computing fast CPCM-SWIG gradient
 Updating gradient with PCM contributions...
 -- total gradient after adding PCM contribution --
---------------------------------------------------
  Atom         X              Y              Z     
---------------------------------------------------
   1       0.000640      -0.000874       0.000121
   2      -0.000281      -0.000049       0.000249
   3      -0.000239       0.001070       0.000008
   4       0.000103       0.000517      -0.000088
   5      -0.000264      -0.000122       0.000293
   6       0.000580       0.000069      -0.000223
   7      -0.000153      -0.000021      -0.000166
   8      -0.000583      -0.000359      -0.000468
   9       0.000078       0.000170      -0.000181
  10      -0.000027      -0.000161       0.000462
  11       0.000079       0.000054      -0.000313
  12      -0.000334      -0.000347       0.000374
  13       0.000352       0.000018      -0.000153
  14       0.000049       0.000036       0.000086
---------------------------------------------------
 Number of fixed atoms: 0
 Gradient time:  CPU 145.39 s  wall 12.18 s
 Geometry Optimization Parameters
   NAtoms,    NIC,     NZ,  NCons,   NDum,   NFix, NCnnct, MaxDiis
       14      84       0       0       0       0       0       0

 Cartesian Hessian Update
 Hessian Updated using BFGS Update


** GEOMETRY OPTIMIZATION IN DELOCALIZED INTERNAL COORDINATES **
   Searching for a Minimum

   Optimization Cycle:   4

                       Coordinates (Angstroms)
     ATOM                X               Y               Z
      1  S         1.1910680810    0.0375716854   -0.2270570256
      2  C         0.8944087405    1.2369240186    1.1240195324
      3  N         0.0663930683    0.4092104559   -1.2867621048
      4  O         1.0686101729   -1.2941446569    0.3500810184
      5  O         2.4823288955    0.4412172206   -0.7475706062
[...]
  0.801   0.826   0.872   0.920   0.933   0.937   0.957   0.971
  1.010   1.041   1.057   1.086   1.122   1.136   1.157   1.167
  1.186   1.197   1.214   1.244   1.249   1.254   1.261   1.271
  1.279   1.297   1.301   1.311   1.316   1.320   1.333   1.353
  1.371   1.380   1.413   1.423   1.465   1.489   1.504   1.510
  1.520   1.537   1.544   1.560   1.584   1.587   1.599   1.608
  1.616   1.627   1.666   1.704   1.740   1.762   1.777   1.821
  1.856   1.863   1.922   1.932   1.940   1.993   2.013   2.033
  2.036   2.051   2.076   2.081   2.108   2.143   2.172   2.242
  2.297   2.339   2.364   2.697   2.752   2.863   2.895   2.931
  2.937   2.944   2.956   2.966   2.970   2.982   2.985   3.020
  3.046   3.063   3.070   3.080   3.139   3.149   3.184   3.203
  3.245   3.282   3.302   3.598   3.609   3.731   3.741   3.811
  3.848   3.852   3.857   3.860   3.867   3.878   3.880   3.883
  3.896   3.913   3.919   3.971   3.985   4.086   4.106   4.118
  4.165   4.233   4.305   4.307   4.308   4.380   4.491   4.628
  5.025   5.042   5.045   5.156   5.162   5.170   5.195   5.211
  5.221   5.225   5.259   5.295   5.311   5.450   5.468   6.413
  6.420   6.430   6.455   6.469   6.484   6.492   6.507   6.524
  6.533   6.574   6.577   6.889   6.893   6.927   8.285   8.325
 17.501  17.532  17.561  17.613  17.659  17.681  23.631  23.681
 35.603  50.038  50.043  50.085  50.086  66.909  66.917  66.927
 66.932  66.971 189.513 189.554
 --------------------------------------------------------------
 
          Ground-State Mulliken Net Atomic Charges

     Atom                 Charge (a.u.)    Spin (a.u.)
  --------------------------------------------------------
      1 S                     0.607984       0.014248
      2 C                    -0.236885       0.814522
      3 N                    -0.713482       0.006633
      4 O                    -0.154071       0.063274
      5 O                    -0.231016       0.006684
      6 F                    -0.009200       0.048830
      7 F                    -0.056156       0.045112
      8 S                     0.309843      -0.003571
      9 C                     0.008827       0.005194
     10 O                    -0.123744      -0.000982
     11 O                    -0.194916       0.000057
     12 F                    -0.055102       0.000227
     13 F                    -0.084418      -0.000083
     14 F                    -0.067664      -0.000145
  --------------------------------------------------------
  Sum of atomic charges =    -1.000000
  Sum of spin   charges =     1.000000

 -----------------------------------------------------------------
                    Cartesian Multipole Moments
 -----------------------------------------------------------------
    Charge (ESU x 10^10)
                -4.8032
    Dipole Moment (Debye)
         X      -0.2459      Y       2.8851      Z       4.4477
       Tot       5.3072
    Quadrupole Moments (Debye-Ang)
        XX    -114.1941     XY      -4.0657     YY     -99.6407
        XZ      -3.4598     YZ      -1.5259     ZZ    -108.6873
    Octopole Moments (Debye-Ang^2)
       XXX     113.5185    XXY     -31.4720    XYY      44.3154
       YYY     -93.2261    XXZ      82.5706    XYZ       8.4459
       YYZ      71.3351    XZZ      54.1020    YZZ     -26.0214
       ZZZ     234.5079
    Hexadecapole Moments (Debye-Ang^3)
      XXXX   -1866.8586   XXXY      79.3805   XXYY    -424.8674
      XYYY     102.9220   YYYY    -713.8738   XXXZ    -477.5615
      XXYZ       6.1584   XYYZ    -171.9417   YYYZ      33.8200
      XXZZ    -557.3926   XYZZ      11.8068   YYZZ    -371.7412
      XZZZ    -524.4597   YZZZ       3.2646   ZZZZ   -1476.8492
 -----------------------------------------------------------------
 Calculating analytic gradient of the SCF energy
 Gradient of SCF Energy
            1           2           3           4           5           6
    1  -0.0030622  -0.0007853  -0.0027030   0.0067733  -0.0226791   0.0104869
    2   0.0071258  -0.0116439  -0.0270320   0.0195769  -0.0117244   0.0041895
    3   0.0051712   0.0111761   0.0121095  -0.0201322   0.0110993  -0.0059068
            7           8           9          10          11          12
    1  -0.0085901   0.0094646  -0.0096468  -0.0016138   0.0139037  -0.0047154
    2   0.0017619   0.0030543   0.0055162   0.0122505   0.0068932  -0.0046119
    3  -0.0091545  -0.0097845  -0.0016047   0.0242263  -0.0198398   0.0123662
           13          14
    1   0.0129581   0.0002090
    2   0.0038201  -0.0091762
    3   0.0016020  -0.0113283
 Max gradient component =       2.703E-02
 RMS gradient           =       1.140E-02
 Computing fast CPCM-SWIG gradient
 Updating gradient with PCM contributions...
 -- total gradient after adding PCM contribution --
---------------------------------------------------
  Atom         X              Y              Z     
---------------------------------------------------
   1       0.000089      -0.000070      -0.000010
   2      -0.000012       0.000003       0.000022
   3      -0.000048      -0.000007      -0.000022
   4       0.000003       0.000045      -0.000011
   5      -0.000030      -0.000014       0.000000
   6       0.000055       0.000014      -0.000014
   7       0.000020      -0.000005      -0.000046
   8      -0.000027       0.000074       0.000042
   9      -0.000014      -0.000049      -0.000056
  10      -0.000013      -0.000019       0.000008
  11       0.000005      -0.000019       0.000014
  12      -0.000025       0.000006       0.000033
  13      -0.000009       0.000022       0.000032
  14       0.000007       0.000020       0.000008
---------------------------------------------------
 Number of fixed atoms: 0
 Gradient time:  CPU 147.47 s  wall 12.17 s
 Geometry Optimization Parameters
   NAtoms,    NIC,     NZ,  NCons,   NDum,   NFix, NCnnct, MaxDiis
       14      84       0       0       0       0       0       0

 Cartesian Hessian Update
 Hessian Updated using BFGS Update


** GEOMETRY OPTIMIZATION IN DELOCALIZED INTERNAL COORDINATES **
   Searching for a Minimum

   Optimization Cycle:  12

                       Coordinates (Angstroms)
     ATOM                X               Y               Z
      1  S         1.1854559997    0.0012761046   -0.2164126437
      2  C         0.7977549593    1.2875388306    1.0307693839
      3  N         0.1235733902    0.2515479080   -1.3726490006
      4  O         1.0629899584   -1.2851093533    0.4545363844
      5  O         2.4913440325    0.3979010988   -0.7055700331
      6  F        -0.3882459608    1.1818754198    1.5985834284
      7  F         1.7370245173    1.4277686078    1.9537049564
      8  S        -1.3575628794   -0.3301987731   -1.4516231048
      9  C        -2.2577921251    1.2532028886   -1.8680135611
     10  O        -1.5420864934   -1.1582468505   -2.6291937790
     11  O        -1.9482343199   -0.7774447153   -0.2016128715
     12  F        -1.8078818254    1.7820760252   -3.0010063902
     13  F        -3.5566297731    0.9882827510   -2.0135171376
     14  F        -2.1185529377    2.1496082868   -0.8950624379
   Point Group: c1    Number of degrees of freedom:    36


   Energy is  -1727.351163283

 Hessian Updated using BFGS Update

 36 Hessian modes will be used to form the next step
  Hessian Eigenvalues:
     0.000533    0.002089    0.003051    0.016913    0.060303    0.083737
     0.093059    0.098269    0.109657    0.114390    0.128739    0.147402
     0.184278    0.191783    0.201066    0.208488    0.210572    0.225605
     0.243697    0.250045    0.252019    0.256262    0.260301    0.314910
     0.332129    0.463936    0.483881    0.555035    0.575060    0.585786
     0.599722    0.626533    0.788849    0.891529    0.926754    0.949650

 Minimum Search - Taking Simple RFO Step
 Searching for Lamda that Minimizes Along All modes
 Value Taken    Lamda =   0.00000000
 Step Taken.  Stepsize is  0.022503

                             Maximum     Tolerance    Cnvgd?
         Gradient           0.000067      0.000300     YES
         Displacement       0.015336      0.001200      NO
         Energy change     -0.000000      0.000001     YES


                       Distance Matrix (Angstroms)
             S (  1)   C (  2)   N (  3)   O (  4)   O (  5)   F (  6)
   C (  2)  1.833098
   N (  3)  1.589690  2.702632
   O (  4)  1.456008  2.649701  2.565624
   O (  5)  1.449803  2.583520  2.464295  2.493705
   F (  6)  2.676670  1.319157  3.155264  3.082360  3.770382
   F (  7)  2.654905  1.324274  3.879607  3.171992  2.949808  2.168721
   S (  8)  2.846501  3.663979  1.593245  3.225581  3.987582  3.539732
   C (  9)  4.018839  4.211946  2.630513  4.781722  4.963578  3.939237
   O ( 10)  3.821714  4.985184  2.518104  4.038800  4.731859  4.968060
   O ( 11)  3.229031  3.650121  2.592786  3.123416  4.620094  3.084349
   F ( 12)  4.459292  4.825881  2.953741  5.439697  5.066390  4.850962
   F ( 13)  5.166347  5.321457  3.807543  5.709684  6.215888  4.808680
   F ( 14)  3.999046  3.599562  2.976214  4.872465  4.935133  3.185709
             F (  7)   S (  8)   C (  9)   O ( 10)   O ( 11)   F ( 12)
   S (  8)  4.925767
   C (  9)  5.531235  1.868410
   O ( 10)  6.200242  1.451339  2.628064
   O ( 11)  4.805153  1.453082  2.645042  2.490605
   F ( 12)  6.102545  2.658022  1.328834  2.975633  3.795715
   F ( 13)  6.629840  2.624884  1.333542  3.007496  2.997954  2.159482
   F ( 14)  4.847887  2.652981  1.330250  3.779078  3.012892  2.160231
             F ( 13)
   F ( 14)  2.160482
 
 Final energy is   -1727.35116328289     


 ******************************
 **  OPTIMIZATION CONVERGED  **
 ******************************

                       Coordinates (Angstroms)
     ATOM                X               Y               Z
      1  S         1.1854559997    0.0012761046   -0.2164126437
      2  C         0.7977549593    1.2875388306    1.0307693839
      3  N         0.1235733902    0.2515479080   -1.3726490006
      4  O         1.0629899584   -1.2851093533    0.4545363844
      5  O         2.4913440325    0.3979010988   -0.7055700331
      6  F        -0.3882459608    1.1818754198    1.5985834284
      7  F         1.7370245173    1.4277686078    1.9537049564
      8  S        -1.3575628794   -0.3301987731   -1.4516231048
      9  C        -2.2577921251    1.2532028886   -1.8680135611
     10  O        -1.5420864934   -1.1582468505   -2.6291937790
     11  O        -1.9482343199   -0.7774447153   -0.2016128715
     12  F        -1.8078818254    1.7820760252   -3.0010063902
     13  F        -3.5566297731    0.9882827510   -2.0135171376
     14  F        -2.1185529377    2.1496082868   -0.8950624379

Z-matrix Print:
$molecule
-1 2
S 
O  1 1.451339
O  1 1.453082 2 118.078982
N  1 1.593245 2 111.514414 3 139.081932 0
S  4 1.589690 1 126.837425 2 -119.386807 0
O  5 1.449803 4 108.252456 1 164.588128 0
O  5 1.456008 4 114.713131 1 30.162242 0
C  5 1.833098 4 104.070020 1 -86.126921 0
F  8 1.319157 5 115.264822 4 64.428965 0
F  8 1.324274 5 113.482305 4 -167.080463 0
C  1 1.868410 2 103.971069 3 -115.628617 0
F  11 1.328834 1 111.356519 2 -55.677913 0
F  11 1.330250 1 110.955288 2 -176.852709 0
F  11 1.333542 1 108.979978 2 63.864364 0
$end

 
 --------------------------------------------------------------
 
                    Orbital Energies (a.u.)
 --------------------------------------------------------------
 
 Alpha MOs
 -- Occupied --
-89.209 -89.208 -24.833 -24.833 -24.831 -24.831 -24.830 -19.216
-19.216 -19.215 -19.211 -14.404 -10.531 -10.450  -8.231  -8.230
 -6.179  -6.179  -6.179  -6.178  -6.178  -6.177  -1.421  -1.389
 -1.329  -1.328  -1.327  -1.213  -1.196  -1.089  -1.086  -0.992
 -0.838  -0.809  -0.760  -0.707  -0.683  -0.682  -0.668  -0.657
 -0.617  -0.599  -0.571  -0.557  -0.553  -0.542  -0.539  -0.534
 -0.526  -0.519  -0.515  -0.512  -0.506  -0.493  -0.459  -0.414
 -0.409  -0.405  -0.387  -0.382  -0.374  -0.364  -0.338  -0.329
 -0.295
 -- Virtual --
  0.102   0.111   0.120   0.128   0.140   0.140   0.146   0.148
  0.154   0.157   0.161   0.172   0.179   0.183   0.185   0.189
  0.199   0.202   0.214   0.214   0.234   0.239   0.257   0.264
  0.290   0.297   0.309   0.311   0.323   0.329   0.332   0.339
  0.347   0.347   0.352   0.357   0.362   0.371   0.372   0.377
  0.389   0.393   0.400   0.410   0.414   0.415   0.416   0.423
  0.425   0.431   0.437   0.446   0.452   0.460   0.461   0.470
  0.474   0.480   0.485   0.499   0.501   0.507   0.516   0.535
  0.538   0.550   0.562   0.568   0.587   0.601   0.603   0.618
  0.634   0.659   0.666   0.686   0.711   0.724   0.750   0.793
  0.824   0.862   0.918   0.931   0.935   0.956   0.967   1.008
  1.034   1.056   1.086   1.120   1.135   1.156   1.166   1.186
  1.196   1.213   1.241   1.246   1.254   1.259   1.270   1.278
  1.295   1.299   1.307   1.313   1.320   1.330   1.351   1.367
  1.370   1.410   1.418   1.461   1.486   1.503   1.508   1.519
  1.537   1.541   1.557   1.584   1.586   1.591   1.599   1.609
  1.626   1.660   1.677   1.733   1.756   1.776   1.819   1.841
  1.855   1.918   1.922   1.936   1.992   2.010   2.028   2.034
  2.048   2.075   2.078   2.103   2.140   2.167   2.241   2.296
  2.338   2.362   2.697   2.747   2.814   2.894   2.926   2.937
  2.942   2.953   2.962   2.967   2.980   2.985   3.016   3.043
  3.061   3.068   3.075   3.131   3.146   3.174   3.203   3.241
  3.281   3.298   3.598   3.606   3.730   3.740   3.811   3.848
  3.850   3.852   3.857   3.861   3.873   3.879   3.881   3.888
  3.912   3.915   3.971   3.985   4.079   4.102   4.107   4.164
  4.233   4.302   4.305   4.308   4.380   4.491   4.621   5.020
  5.042   5.043   5.154   5.161   5.169   5.195   5.210   5.220
  5.223   5.258   5.293   5.311   5.449   5.468   6.412   6.413
  6.419   6.454   6.465   6.483   6.489   6.507   6.524   6.533
  6.571   6.576   6.889   6.893   6.921   8.285   8.324  17.500
 17.532  17.561  17.613  17.658  17.681  23.631  23.658  35.603
 50.037  50.043  50.085  50.086  66.907  66.915  66.927  66.931
 66.971 189.513 189.554
 
 Beta MOs
 -- Occupied --
-89.209 -89.208 -24.831 -24.831 -24.830 -24.830 -24.830 -19.216
-19.215 -19.214 -19.211 -14.404 -10.531 -10.437  -8.231  -8.229
 -6.179  -6.179  -6.179  -6.178  -6.177  -6.177  -1.421  -1.380
 -1.329  -1.328  -1.319  -1.212  -1.195  -1.088  -1.083  -0.991
 -0.834  -0.797  -0.755  -0.703  -0.682  -0.682  -0.663  -0.649
 -0.598  -0.583  -0.568  -0.557  -0.553  -0.539  -0.535  -0.525
 -0.522  -0.516  -0.513  -0.510  -0.503  -0.493  -0.458  -0.412
 -0.407  -0.391  -0.382  -0.381  -0.372  -0.361  -0.336  -0.327
 -- Virtual --
  0.004   0.105   0.112   0.121   0.129   0.142   0.142   0.147
  0.149   0.156   0.158   0.162   0.174   0.181   0.183   0.187
  0.189   0.199   0.209   0.216   0.222   0.239   0.242   0.260
  0.268   0.292   0.300   0.312   0.317   0.324   0.329   0.333
  0.341   0.348   0.348   0.353   0.359   0.366   0.372   0.375
  0.379   0.391   0.394   0.401   0.410   0.414   0.415   0.416
  0.424   0.425   0.432   0.438   0.447   0.452   0.461   0.463
  0.470   0.475   0.480   0.487   0.500   0.503   0.507   0.517
  0.536   0.539   0.550   0.563   0.568   0.588   0.602   0.604
  0.618   0.636   0.659   0.668   0.687   0.716   0.732   0.756
  0.801   0.826   0.872   0.920   0.933   0.937   0.957   0.971
  1.010   1.041   1.057   1.086   1.122   1.136   1.157   1.167
  1.186   1.197   1.214   1.244   1.249   1.254   1.261   1.271
  1.279   1.297   1.301   1.311   1.316   1.320   1.333   1.353
  1.371   1.380   1.413   1.423   1.465   1.489   1.504   1.510
  1.520   1.537   1.544   1.560   1.584   1.587   1.599   1.608
  1.616   1.627   1.666   1.704   1.740   1.762   1.777   1.821
  1.856   1.863   1.922   1.932   1.940   1.993   2.013   2.033
  2.036   2.051   2.076   2.081   2.108   2.143   2.172   2.242
  2.297   2.339   2.364   2.697   2.752   2.863   2.895   2.931
  2.937   2.944   2.956   2.966   2.970   2.982   2.985   3.020
  3.046   3.063   3.070   3.080   3.139   3.149   3.184   3.203
  3.245   3.282   3.302   3.598   3.609   3.731   3.741   3.811
  3.848   3.852   3.857   3.860   3.867   3.878   3.880   3.883
  3.896   3.913   3.919   3.971   3.985   4.086   4.106   4.118
  4.165   4.233   4.305   4.307   4.308   4.380   4.491   4.628
  5.025   5.042   5.045   5.156   5.162   5.170   5.195   5.211
  5.221   5.225   5.259   5.295   5.311   5.450   5.468   6.413
  6.420   6.430   6.455   6.469   6.484   6.492   6.507   6.524
  6.533   6.574   6.577   6.889   6.893   6.927   8.285   8.325
 17.501  17.532  17.561  17.613  17.659  17.681  23.631  23.681
 35.603  50.038  50.043  50.085  50.086  66.909  66.917  66.927
 66.932  66.971 189.513 189.554
 --------------------------------------------------------------
 
          Ground-State Mulliken Net Atomic Charges

     Atom                 Charge (a.u.)    Spin (a.u.)
  --------------------------------------------------------
      1 S                     0.607984       0.014248
      2 C                    -0.236885       0.814522
      3 N                    -0.713482       0.006633
      4 O                    -0.154071       0.063274
      5 O                    -0.231016       0.006684
      6 F                    -0.009200       0.048830
      7 F                    -0.056156       0.045112
      8 S                     0.309843      -0.003571
      9 C                     0.008827       0.005194
     10 O                    -0.123744      -0.000982
     11 O                    -0.194916       0.000057
     12 F                    -0.055102       0.000227
     13 F                    -0.084418      -0.000083
     14 F                    -0.067664      -0.000145
  --------------------------------------------------------
  Sum of atomic charges =    -1.000000
  Sum of spin   charges =     1.000000

 -----------------------------------------------------------------
                    Cartesian Multipole Moments
 -----------------------------------------------------------------
    Charge (ESU x 10^10)
                -4.8032
    Dipole Moment (Debye)
         X      -0.2459      Y       2.8851      Z       4.4477
       Tot       5.3072
    Quadrupole Moments (Debye-Ang)
        XX    -114.1941     XY      -4.0657     YY     -99.6407
        XZ      -3.4598     YZ      -1.5259     ZZ    -108.6873
    Octopole Moments (Debye-Ang^2)
       XXX     113.5185    XXY     -31.4720    XYY      44.3154
       YYY     -93.2261    XXZ      82.5706    XYZ       8.4459
       YYZ      71.3351    XZZ      54.1020    YZZ     -26.0214
       ZZZ     234.5079
    Hexadecapole Moments (Debye-Ang^3)
      XXXX   -1866.8586   XXXY      79.3805   XXYY    -424.8674
      XYYY     102.9220   YYYY    -713.8738   XXXZ    -477.5615
      XXYZ       6.1584   XYYZ    -171.9417   YYYZ      33.8200
      XXZZ    -557.3926   XYZZ      11.8068   YYZZ    -371.7412
      XZZZ    -524.4597   YZZZ       3.2646   ZZZZ   -1476.8492
 -----------------------------------------------------------------
Archival summary:
1\1\nid01231\OPT\ProcedureUnspecified\BasisUnspecified\25412(1-,2)\sblau\TueNov1321:50:182018TueNov1321:50:182018\0\\#,OPT,ProcedureUnspecified,BasisUnspecified,\\-1,2\S\O,1,1.45134\O,1,1.45308,2,118.079\N,1,1.59325,2,111.514,3,139.082,0\S,4,1.58969,1,126.837,2,-119.387,0\O,5,1.4498,4,108.252,1,164.588,0\O,5,1.45601,4,114.713,1,30.1622,0\C,5,1.8331,4,104.07,1,-86.1269,0\F,8,1.31916,5,115.265,4,64.429,0\F,8,1.32427,5,113.482,4,-167.08,0\C,1,1.86841,2,103.971,3,-115.629,0\F,11,1.32883,1,111.357,2,-55.6779,0\F,11,1.33025,1,110.955,2,-176.853,0\F,11,1.33354,1,108.98,2,63.8644,0\\\@

 Total job time:  1103.51s(wall), 19168.02s(cpu) 
 Tue Nov 13 21:50:18 2018

        *************************************************************
        *                                                           *
        *  Thank you very much for using Q-Chem.  Have a nice day.  *
        *                                                           *
        *************************************************************


