
Running Job 1 of 1 mol.qin
qchem mol.qin_48670.0 /tmp/qchem48670/ 1
/global/common/cori/software/qchem/5.1/exe/qcprog.exe mol.qin_48670.0 /tmp/qchem48670/
Check license passed

                  Welcome to Q-Chem
     A Quantum Leap Into The Future Of Chemistry


 Q-Chem 5.1, Q-Chem, Inc., Pleasanton, CA (2018)

 Yihan Shao,  Zhengting Gan,  E. Epifanovsky,  A. T. B. Gilbert,  M. Wormit,  
 J. Kussmann,  A. W. Lange,  A. Behn,  Jia Deng,  Xintian Feng,  D. Ghosh,  
 M. Goldey,  P. R. Horn,  L. D. Jacobson,  I. Kaliman,  T. Kus,  A. Landau,  
 Jie Liu,  E. I. Proynov,  R. M. Richard,  R. P. Steele,  E. J. Sundstrom,  
 H. L. Woodcock III,  P. M. Zimmerman,  D. Zuev,  B. Albrecht,  E. Alguire,  
 S. A. Baeppler,  D. Barton,  Z. Benda,  Y. A. Bernard,  E. J. Berquist,  
 K. B. Bravaya,  H. Burton,  D. Casanova,  Chun-Min Chang,  Yunqing Chen,  
 A. Chien,  K. D. Closser,  M. P. Coons,  S. Coriani,  S. Dasgupta,  
 A. L. Dempwolff,  M. Diedenhofen,  Hainam Do,  R. G. Edgar,  Po-Tung Fang,  
 S. Faraji,  S. Fatehi,  Qingguo Feng,  K. D. Fenk,  J. Fosso-Tande,  
 Qinghui Ge,  A. Ghysels,  G. Gidofalvi,  J. Gomes,  J. Gonthier,  A. Gunina,  
 D. Hait,  M. W. D. Hanson-Heine,  P. H. P. Harbach,  A. W. Hauser,  
 J. E. Herr,  E. G. Hohenstein,  Z. C. Holden,  Kerwin Hui,  B. C. Huynh,  
 T.-C. Jagau,  Hyunjun Ji,  B. Kaduk,  K. Khistyaev,  Jaehoon Kim,  
 P. Klunzinger,  K. Koh,  D. Kosenkov,  L. Koulias,  T. Kowalczyk,  
 C. M. Krauter,  A. Kunitsa,  Ka Un Lao,  A. Laurent,  K. V. Lawler,  
 Joonho Lee,  D. Lefrancois,  S. Lehtola,  D. S. Levine,  Yi-Pei Li,  
 You-Sheng Lin,  Fenglai Liu,  E. Livshits,  A. Luenser,  P. Manohar,  
 E. Mansoor,  S. F. Manzer,  Shan-Ping Mao,  Yuezhi Mao,  N. Mardirossian,  
 A. V. Marenich,  T. Markovich,  L. A. Martinez-Martinez,  S. A. Maurer,  
 N. J. Mayhall,  S. C. McKenzie,  J.-M. Mewes,  A. F. Morrison,  
 J. W. Mullinax,  K. Nanda,  T. S. Nguyen-Beck,  R. Olivares-Amaya,  
 J. A. Parkhill,  T. M. Perrine,  F. Plasser,  P. Pokhilko,  S. Prager,  
 A. Prociuk,  E. Ramos,  D. R. Rehn,  F. Rob,  M. Schneider,  N. Sergueev,  
 S. M. Sharada,  S. Sharma,  D. W. Small,  T. Stauch,  T. Stein,  
 Yu-Chuan Su,  A. J. W. Thom,  A. Tkatchenko,  T. Tsuchimochi,  N. M. Tubman,  
 L. Vogt,  M. L. Vidal,  O. Vydrov,  M. A. Watson,  J. Wenzel,  
 M. de Wergifosse,  T. A. Wesolowski,  A. White,  J. Witte,  A. Yamada,  
 Jun Yang,  K. Yao,  S. Yeganeh,  S. R. Yost,  Zhi-Qiang You,  A. Zech,  
 Igor Ying Zhang,  Xing Zhang,  Yan Zhao,  Ying Zhu,  B. R. Brooks,  
 G. K. L. Chan,  C. J. Cramer,  M. S. Gordon,  W. J. Hehre,  A. Klamt,  
 M. W. Schmidt,  C. D. Sherrill,  D. G. Truhlar,  A. Aspuru-Guzik,  R. Baer,  
 A. T. Bell,  N. A. Besley,  Jeng-Da Chai,  R. A. DiStasio Jr.,  A. Dreuw,  
 B. D. Dunietz,  T. R. Furlani,  Chao-Ping Hsu,  Yousung Jung,  Jing Kong,  
 D. S. Lambrecht,  WanZhen Liang,  C. Ochsenfeld,  V. A. Rassolov,  
 L. V. Slipchenko,  J. E. Subotnik,  T. Van Voorhis,  J. M. Herbert,  
 A. I. Krylov,  P. M. W. Gill,  M. Head-Gordon

 Contributors to earlier versions of Q-Chem not listed above: 
 R. D. Adamson,  B. Austin,  J. Baker,  G. J. O. Beran,  K. Brandhorst,  
 S. T. Brown,  E. F. C. Byrd,  A. K. Chakraborty,  C.-L. Cheng,  
 Siu Hung Chien,  D. M. Chipman,  D. L. Crittenden,  H. Dachsel,  
 R. J. Doerksen,  A. D. Dutoi,  L. Fusti-Molnar,  W. A. Goddard III,  
 A. Golubeva-Zadorozhnaya,  S. R. Gwaltney,  G. Hawkins,  A. Heyden,  
 S. Hirata,  G. Kedziora,  F. J. Keil,  C. Kelley,  Jihan Kim,  R. A. King,  
 R. Z. Khaliullin,  P. P. Korambath,  W. Kurlancheek,  A. M. Lee,  M. S. Lee,  
 S. V. Levchenko,  Ching Yeh Lin,  D. Liotard,  R. C. Lochan,  I. Lotan,  
 P. E. Maslen,  N. Nair,  D. P. O'Neill,  D. Neuhauser,  E. Neuscamman,  
 C. M. Oana,  R. Olson,  B. Peters,  R. Peverati,  P. A. Pieniazek,  
 Y. M. Rhee,  J. Ritchie,  M. A. Rohrdanz,  E. Rosta,  N. J. Russ,  
 H. F. Schaefer III,  N. E. Schultz,  N. Shenvi,  A. C. Simmonett,  A. Sodt,  
 D. Stuck,  K. S. Thanthiriwatte,  V. Vanovschi,  Tao Wang,  A. Warshel,  
 C. F. Williams,  Q. Wu,  X. Xu,  W. Zhang

 Please cite Q-Chem as follows:
 Y. Shao et al., Mol. Phys. 113, 184-215 (2015)
 DOI: 10.1080/00268976.2014.952696

 Q-Chem 5.1.0 for Intel X86 EM64T Linux

 Parts of Q-Chem use Armadillo 8.300.2 (Tropical Shenanigans).
 http://arma.sourceforge.net/

 Q-Chem begins on Tue Nov 13 19:04:03 2018  

Host: cori01
0

     Scratch files written to /tmp/qchem48670//
 Jun2518 |scratch|qcdevops|jenkins|workspace|build_RNUM -1
Processing $rem in /global/common/cori/software/qchem/5.1/config/preferences.
 MEM_TOTAL  96000 
Symmetry turned off for PCM/SM12/SMD calculation

Checking the input file for inconsistencies... 	...done.

--------------------------------------------------------------
User input:
--------------------------------------------------------------
$molecule
-1 2
S      1.1845744522      0.0027334277     -0.2163695842
C      0.7937268962      1.2945409914      1.0234773576
N      0.1253130191      0.2451477497     -1.3762614106
O      1.0620348672     -1.2803580051      0.4612230476
O      2.4911696161      0.3979416169     -0.7046997902
F     -0.3922244655      1.1880737023      1.5912245742
F      1.7325985671      1.4419085975      1.9456278051
S     -1.3583087823     -0.3310524428     -1.4523818779
C     -2.2560791001      1.2553869186     -1.8631263099
O     -1.5472877666     -1.1559991807     -2.6312873852
O     -1.9464194401     -0.7796143636     -0.2018106717
F     -1.8082344004      1.7849965540     -2.9966328844
F     -3.5560576686      0.9941215759     -2.0052455262
F     -2.1117826365      2.1499604169     -0.8893253537
$end

$rem
job_type = freq
basis = 6-311++g*
max_scf_cycles = 200
gen_scfman = true
scf_algorithm = gdm
method = wb97xd
geom_opt_max_cycles = 200
solvent_method = pcm
xc_grid = 3
$end

$pcm
heavypoints 194
hpoints 194
radii uff
theory cpcm
vdwscale 1.1
$end

$solvent
dielectric 3.0
$end
--------------------------------------------------------------
 ----------------------------------------------------------------
             Standard Nuclear Orientation (Angstroms)
    I     Atom           X                Y                Z
 ----------------------------------------------------------------
    1      S       1.1845744522     0.0027334277    -0.2163695842
    2      C       0.7937268962     1.2945409914     1.0234773576
    3      N       0.1253130191     0.2451477497    -1.3762614106
    4      O       1.0620348672    -1.2803580051     0.4612230476
    5      O       2.4911696161     0.3979416169    -0.7046997902
    6      F      -0.3922244655     1.1880737023     1.5912245742
    7      F       1.7325985671     1.4419085975     1.9456278051
    8      S      -1.3583087823    -0.3310524428    -1.4523818779
    9      C      -2.2560791001     1.2553869186    -1.8631263099
   10      O      -1.5472877666    -1.1559991807    -2.6312873852
   11      O      -1.9464194401    -0.7796143636    -0.2018106717
   12      F      -1.8082344004     1.7849965540    -2.9966328844
   13      F      -3.5560576686     0.9941215759    -2.0052455262
   14      F      -2.1117826365     2.1499604169    -0.8893253537
 ----------------------------------------------------------------
 Nuclear Repulsion Energy =  1406.4711945613 hartrees
 There are       65 alpha and       64 beta electrons
 Requested basis set is 6-311++G(d)
 There are 98 shells and 324 basis functions

 Total QAlloc Memory Limit  96000 MB
 Mega-Array Size       188 MB
 MEM_STATIC part       192 MB
 Discretize the solute cavity surface with Lebedev spheres
	Using 194 Lebedev grid points for each H atom
	Using 194 Lebedev grid points for other atoms
	Atomic van der Waals radii will be scaled by 1.10
 Remove points where switching function is < 1.0e-08
 Keep 1262 surface tesserae and discard 1454 interior tesserae
 Molecular Surface Area = 222.324 Angst**2

                       Distance Matrix (Angstroms)
             S (  1)   C (  2)   N (  3)   O (  4)   O (  5)   F (  6)
   C (  2)  1.832689
   N (  3)  1.589386  2.703100
   O (  4)  1.456184  2.649193  2.565339
   O (  5)  1.449775  2.582982  2.464065  2.493690
   F (  6)  2.675579  1.319149  3.156411  3.079761  3.769554
   F (  7)  2.654390  1.324220  3.879504  3.172357  2.947801  2.169080
   S (  8)  2.846997  3.661105  1.593403  3.228177  3.988602  3.536185
   C (  9)  4.014853  4.199444  2.632233  4.779381  4.961203  3.925688
   O ( 10)  3.825906  4.984255  2.517121  4.048166  4.736624  4.965728
   O ( 11)  3.227290  3.648541  2.592595  3.121082  4.618629  3.082579
   F ( 12)  4.456818  4.813734  2.955561  5.439817  5.065743  4.838371
   F ( 13)  5.162995  5.308864  3.809078  5.708196  6.214162  4.793960
   F ( 14)  3.991168  3.582254  2.978257  4.864585  4.928572  3.167844
             F (  7)   S (  8)   C (  9)   O ( 10)   O ( 11)   F ( 12)
   S (  8)  4.923776
   C (  9)  5.518238  1.868554
   O ( 10)  6.201204  1.451230  2.628163
   O ( 11)  4.804355  1.452932  2.645201  2.490648
   F ( 12)  6.089429  2.657971  1.328867  2.975067  3.795702
   F ( 13)  6.616630  2.625232  1.333567  3.008339  2.998241  2.159449
   F ( 14)  4.828826  2.653334  1.330177  3.779214  3.013707  2.160112
             F ( 13)
   F ( 14)  2.160364
 
 A cutoff of  1.0D-12 yielded   3776 shell pairs
 There are     43484 function pairs (     47010 Cartesian)
 
 -------------------------------------------------------
 OpenMP Integral Computing Module                       
 Release: version 1.0, May 2013, Q-Chem Inc. Pittsburgh 
 -------------------------------------------------------
 Integral Job Info:
 Integral job number is                      11
 Integral operator is                         1
 short-range coefficients              22203600
 long-range coefficients              100000000
 Omega coefficients                         200
 if combine SR and LR in K                    1
 Integral screening is                        0
 Integral computing path is                   2
 max size of driver memory is            800000
 size of driver memory is                593474
 size of scratch memory is              4293864
 max col of scratch BK array               1296
 max len of scratch array in speh3          155
 max len of scratch index in speh4           18
 max int batch size is                      520
 min int batch size is                       52
 fixed nKL is                                52
 max L of basis functions is                  2
 order of int derivative is                   0
 number of shells is                         98
 number of basis is                         338
 number of cartesian basis is               338
 number of contracted shell pairs          3776
 number of primitive shell pairs          10085
 maxK2 (contraction) of shell pair           36
 max number of K2 of shell pair               1
 max number of CS2 of shell pair            739
 max number of PS2 of shell pair           2538
 mem total for path MDJ                  603740
 -------------------------------------------------------
 Smallest overlap matrix eigenvalue = 4.92E-05
 Guess from superposition of atomic densities
 Warning:  Energy on first SCF cycle will be non-variational
 SAD guess density has 128.000000 electrons

 -----------------------------------------------------------------------
  General SCF calculation program by
  Eric Jon Sundstrom, Paul Horn, Yuezhi Mao, Dmitri Zuev, Alec White,
  David Stuck, Shaama M.S., Shane Yost, Joonho Lee, David Small,
  Daniel Levine, Susi Lehtola, Hugh Burton, Evgeny Epifanovsky
 -----------------------------------------------------------------------
 Exchange:     0.2220 Hartree-Fock + 1.0000 wB97X-D + LR-HF
 Correlation:  1.0000 wB97X-D
 Using SG-3 standard quadrature grid
 Dispersion:   Grimme D
 using 32 threads for integral computing
 -------------------------------------------------------
 OpenMP Integral computing Module                
 Release: version 1.0, May 2013, Q-Chem Inc. Pittsburgh 
 -------------------------------------------------------
 using 32 threads for integral computing
 -------------------------------------------------------
 OpenMP Integral computing Module                
 Release: version 1.0, May 2013, Q-Chem Inc. Pittsburgh 
 -------------------------------------------------------
 -------------------------------------------------------
 OpenMP BLAS3 based DFT computing Module                
 Release: version 1.0, May 2013, Q-Chem Inc. Pittsburgh 
 -------------------------------------------------------
 A unrestricted SCF calculation will be
 performed using Roothaan-Hall, GDM
 SCF converges when RMS gradient is below 1.0e-08
 ---------------------------------------
  Cycle       Energy         DIIS error
 ---------------------------------------
    1   -1730.7746126820      1.93e-02  Roothaan Step
 ---------------------------------------
  Cycle       Energy        RMS Gradient
 ---------------------------------------
    1   -1726.7087944739      1.95e-01   Descent step
    2   -1727.1530761307      6.23e-02   Descent step
    3   -1727.3299365327      2.08e-02   Normal BFGS step
    4   -1727.3480776829      9.91e-03   Normal BFGS step
    5   -1727.3495143374      8.84e-03   Normal BFGS step
    6   -1727.3510627156      3.51e-03   Normal BFGS step
    7   -1727.3511327641      1.86e-03   Normal BFGS step
    8   -1727.3511561000      3.72e-04   Normal BFGS step
    9   -1727.3511592518      3.00e-04   Normal BFGS step
   10   -1727.3511613779      1.48e-04   Normal BFGS step
   11   -1727.3511614725      7.23e-05   Normal BFGS step
   12   -1727.3511615518      1.62e-05   Normal BFGS step
   13   -1727.3511615560      6.40e-06   Normal BFGS step
   14   -1727.3511615577      1.67e-06   Normal BFGS step
   15   -1727.3511615578      1.50e-06   Normal BFGS step
   16   -1727.3511615579      3.69e-07   Normal BFGS step
   17   -1727.3511615579      2.17e-07   Normal BFGS step
   18   -1727.3511615579      9.45e-08   Normal BFGS step
   19   -1727.3511615579      4.63e-08   Normal BFGS step
   20   -1727.3511615579      1.14e-08   Normal BFGS step
   21   -1727.3511615579      6.37e-09  Convergence criterion met
 ---------------------------------------
 SCF time:   CPU 1656.36s  wall 92.00s 
<S^2> =          0.753262921

************** Final PCM Free Energy Summary **************
 G_electrostatic  =      -0.05104026 hartree =     -32.02824442 kcal/mol
 G_cavitation     =       0.00000000 hartree =       0.00000000 kcal/mol
 G_dispersion     =       0.00000000 hartree =       0.00000000 kcal/mol
 G_repulsion      =       0.00000000 hartree =       0.00000000 kcal/mol
 --------------------------------------------------
 Non-electrostatic Free Energy =       0.00000000 hartree =       0.00000000 kcal/mol
 Total                         =      -0.05104026 hartree =     -32.02824442 kcal/mol
 --------------------------------------------------
 SCF Energy (H0 + V/2)                       =   -1727.35116156 
 Solute Internal Energy (H0)                 =   -1727.30012130 
 Total Free Energy (H0 + V/2 + non-elec)     =   -1727.35116156 hartree
                                             = -1083929.21362043 kcal/mol
***********************************************************

 SCF   energy in the final basis set =    -1727.3511615579
 Total energy in the final basis set =    -1727.3511615579
 
 --------------------------------------------------------------
 
                    Orbital Energies (a.u.)
 --------------------------------------------------------------
 
 Alpha MOs
 -- Occupied --
-89.209 -89.208 -24.833 -24.833 -24.831 -24.831 -24.830 -19.216
-19.216 -19.215 -19.211 -14.404 -10.531 -10.450  -8.231  -8.229
 -6.179  -6.179  -6.179  -6.178  -6.178  -6.177  -1.421  -1.389
 -1.329  -1.328  -1.327  -1.213  -1.196  -1.089  -1.086  -0.992
 -0.838  -0.809  -0.760  -0.707  -0.683  -0.682  -0.668  -0.657
 -0.617  -0.599  -0.571  -0.557  -0.553  -0.542  -0.539  -0.534
 -0.526  -0.519  -0.515  -0.512  -0.506  -0.493  -0.459  -0.414
 -0.409  -0.405  -0.387  -0.382  -0.374  -0.364  -0.338  -0.329
 -0.295
 -- Virtual --
  0.102   0.111   0.120   0.128   0.140   0.140   0.146   0.148
  0.154   0.156   0.161   0.172   0.179   0.183   0.185   0.189
  0.199   0.202   0.214   0.215   0.234   0.239   0.257   0.264
  0.290   0.297   0.309   0.311   0.323   0.329   0.332   0.339
  0.347   0.347   0.352   0.357   0.362   0.371   0.372   0.377
  0.389   0.393   0.400   0.410   0.414   0.415   0.416   0.423
  0.425   0.432   0.437   0.446   0.451   0.460   0.461   0.470
  0.474   0.480   0.485   0.499   0.501   0.507   0.516   0.535
  0.538   0.550   0.563   0.568   0.587   0.602   0.603   0.618
  0.634   0.659   0.666   0.685   0.711   0.725   0.751   0.793
  0.825   0.862   0.919   0.932   0.935   0.956   0.967   1.008
  1.034   1.056   1.086   1.121   1.134   1.156   1.166   1.185
  1.196   1.213   1.242   1.246   1.253   1.260   1.270   1.278
  1.295   1.299   1.308   1.313   1.320   1.330   1.350   1.367
  1.370   1.409   1.418   1.461   1.487   1.503   1.508   1.519
  1.537   1.542   1.557   1.584   1.586   1.591   1.599   1.609
  1.626   1.661   1.677   1.733   1.756   1.776   1.819   1.842
  1.855   1.918   1.922   1.936   1.992   2.010   2.028   2.035
  2.048   2.075   2.078   2.103   2.141   2.167   2.241   2.296
  2.338   2.362   2.696   2.747   2.815   2.894   2.926   2.937
  2.942   2.953   2.963   2.967   2.980   2.985   3.016   3.043
  3.061   3.068   3.075   3.132   3.147   3.175   3.203   3.241
  3.281   3.298   3.599   3.607   3.730   3.740   3.811   3.848
  3.850   3.852   3.857   3.861   3.873   3.879   3.881   3.888
  3.912   3.915   3.971   3.985   4.079   4.102   4.107   4.164
  4.233   4.302   4.305   4.308   4.380   4.491   4.621   5.020
  5.042   5.044   5.154   5.161   5.169   5.195   5.210   5.220
  5.223   5.258   5.293   5.311   5.449   5.468   6.412   6.413
  6.420   6.454   6.465   6.483   6.489   6.507   6.524   6.533
  6.571   6.576   6.889   6.893   6.922   8.285   8.324  17.500
 17.531  17.561  17.613  17.659  17.681  23.631  23.658  35.603
 50.037  50.043  50.085  50.086  66.907  66.916  66.927  66.931
 66.971 189.513 189.554
 
 Beta MOs
 -- Occupied --
-89.209 -89.208 -24.831 -24.831 -24.830 -24.830 -24.830 -19.216
-19.215 -19.214 -19.211 -14.404 -10.531 -10.437  -8.231  -8.229
 -6.179  -6.179  -6.179  -6.178  -6.177  -6.177  -1.421  -1.380
 -1.329  -1.328  -1.319  -1.212  -1.195  -1.088  -1.083  -0.991
 -0.834  -0.797  -0.755  -0.703  -0.682  -0.682  -0.663  -0.649
 -0.598  -0.583  -0.568  -0.557  -0.553  -0.539  -0.535  -0.525
 -0.522  -0.516  -0.513  -0.510  -0.503  -0.493  -0.458  -0.412
 -0.406  -0.391  -0.382  -0.381  -0.372  -0.362  -0.336  -0.327
 -- Virtual --
  0.003   0.105   0.112   0.121   0.129   0.142   0.142   0.147
  0.149   0.156   0.158   0.162   0.174   0.181   0.183   0.187
  0.189   0.199   0.209   0.216   0.222   0.239   0.242   0.260
  0.268   0.292   0.300   0.312   0.317   0.324   0.329   0.333
  0.341   0.348   0.349   0.353   0.359   0.366   0.372   0.375
  0.379   0.391   0.394   0.401   0.410   0.414   0.415   0.417
  0.424   0.425   0.432   0.438   0.447   0.452   0.461   0.463
  0.470   0.475   0.480   0.487   0.500   0.503   0.507   0.517
  0.535   0.539   0.550   0.563   0.568   0.588   0.602   0.604
  0.618   0.636   0.659   0.669   0.687   0.716   0.732   0.756
  0.802   0.827   0.872   0.920   0.934   0.937   0.957   0.971
  1.011   1.041   1.057   1.086   1.123   1.135   1.157   1.167
  1.186   1.197   1.213   1.244   1.249   1.254   1.261   1.271
  1.279   1.297   1.301   1.312   1.316   1.320   1.333   1.353
  1.371   1.380   1.413   1.423   1.466   1.489   1.504   1.510
  1.520   1.538   1.545   1.560   1.584   1.587   1.599   1.608
  1.616   1.627   1.666   1.704   1.740   1.762   1.777   1.821
  1.856   1.863   1.922   1.932   1.940   1.992   2.013   2.034
  2.037   2.051   2.077   2.081   2.108   2.144   2.172   2.243
  2.296   2.339   2.363   2.696   2.752   2.863   2.895   2.931
  2.937   2.944   2.956   2.966   2.970   2.982   2.985   3.020
  3.046   3.063   3.070   3.080   3.139   3.149   3.184   3.203
  3.245   3.282   3.303   3.599   3.609   3.731   3.741   3.811
  3.848   3.852   3.858   3.860   3.867   3.878   3.880   3.883
  3.896   3.913   3.919   3.971   3.985   4.086   4.105   4.118
  4.165   4.233   4.305   4.307   4.308   4.380   4.491   4.629
  5.025   5.042   5.045   5.157   5.162   5.170   5.195   5.212
  5.221   5.225   5.258   5.295   5.311   5.450   5.468   6.413
  6.420   6.430   6.455   6.469   6.484   6.492   6.507   6.524
  6.533   6.574   6.578   6.889   6.893   6.928   8.286   8.324
 17.501  17.532  17.561  17.613  17.659  17.681  23.631  23.681
 35.603  50.038  50.043  50.085  50.087  66.909  66.917  66.927
 66.932  66.971 189.513 189.554
 --------------------------------------------------------------
 
          Ground-State Mulliken Net Atomic Charges

     Atom                 Charge (a.u.)    Spin (a.u.)
  --------------------------------------------------------
      1 S                     0.608762       0.014384
      2 C                    -0.237567       0.814255
      3 N                    -0.714708       0.006573
      4 O                    -0.154217       0.063297
      5 O                    -0.230337       0.006721
      6 F                    -0.008977       0.048853
      7 F                    -0.056060       0.045199
      8 S                     0.311051      -0.003614
      9 C                     0.006781       0.005280
     10 O                    -0.123309      -0.001001
     11 O                    -0.194640       0.000061
     12 F                    -0.055211       0.000231
     13 F                    -0.084435      -0.000084
     14 F                    -0.067131      -0.000155
  --------------------------------------------------------
  Sum of atomic charges =    -1.000000
  Sum of spin   charges =     1.000000

 -----------------------------------------------------------------
                    Cartesian Multipole Moments
 -----------------------------------------------------------------
    Charge (ESU x 10^10)
                -4.8032
    Dipole Moment (Debye)
         X      -0.2515      Y       2.8869      Z       4.4426
       Tot       5.3041
    Quadrupole Moments (Debye-Ang)
        XX    -114.2013     XY      -4.0762     YY     -99.6028
        XZ      -3.4831     YZ      -1.5224     ZZ    -108.7211
    Octopole Moments (Debye-Ang^2)
       XXX     113.6892    XXY     -31.6795    XYY      44.3778
       YYY     -93.8920    XXZ      82.6305    XYZ       8.4519
       YYZ      71.2398    XZZ      54.2222    YZZ     -26.1958
       ZZZ     234.6513
    Hexadecapole Moments (Debye-Ang^3)
      XXXX   -1865.2459   XXXY      79.1447   XXYY    -425.0749
      XYYY     102.5560   YYYY    -716.2460   XXXZ    -476.4869
      XXYZ       5.9965   XYYZ    -171.6394   YYYZ      33.4410
      XXZZ    -556.6275   XYZZ      11.7155   YYZZ    -371.5656
      XZZZ    -523.4385   YZZZ       2.8568   ZZZZ   -1473.2696
 -----------------------------------------------------------------
 Calculating MO derivatives via CPSCF
 Computing fast CPCM-SWIG hessian.
 D1JvT checksum  = 2033136 97918.6106365946
 D1KAT checksum  = 4983552 5726.7506131623
 D1JvT checksum  = 2033136 67353.2890117963
 D1KAT checksum  = 4983552 2675.8421739718
   1         3          42      0.150626    0.021053
   2         3          42      0.037170    0.005368
   3         3          42      0.006719    0.001284
   4         3          42      0.001371    0.000352
   5         4          41      0.000274    0.000074
   6        40           5      0.000032    0.000014
   7        42           3      0.000005    0.000003
   8        45           0      0.000000    0.000000    Roots Converged
 Time for AOints: 433.0 s (CPU) 39.3 s (wall)
 ------------------------------------------------------------------------------
                     AOints        : Timing summary (seconds)
 ------------------------------------------------------------------------------
     job step          cpu (% of tot)      sys (% of tot)     wall (% of tot)
 ------------------------------------------------------------------------------
  cpscf_lag         0.3803E+04 (38.9)   0.2024E-01 (57.5)   0.1062E+04 (44.7)
  iterzp            0.5551E+04 (56.7)   0.1329E-01 (37.7)   0.1274E+04 (53.6)
  make_fx           0.0000E+00 ( 0.0)   0.0000E+00 ( 0.0)   0.0000E+00 ( 0.0)
  AOints            0.4330E+03 ( 4.4)   0.1676E-02 ( 4.8)   0.3933E+02 ( 1.7)
 ------------------------------------------------------------------------------
   Grand Totals     0.9787E+04          0.3522E-01          0.2376E+04
 ------------------------------------------------------------------------------
 Calculating analytic Hessian of the SCF energy
 Polarizability Matrix (a.u.)
            1           2           3
    1-113.5568192  -3.0032681  -9.4176132
    2  -3.0032681 -96.8446468  -3.9278310
    3  -9.4176132  -3.9278310-102.6292179
atom: 0 element: 16
atom: 1 element: 6
atom: 2 element: 7
atom: 3 element: 8
atom: 4 element: 8
atom: 5 element: 9
atom: 6 element: 9
atom: 7 element: 16
atom: 8 element: 6
atom: 9 element: 8
atom: 10 element: 8
atom: 11 element: 9
atom: 12 element: 9
atom: 13 element: 9
 
 Direct stationary perturbation theory relativistic correction:
 
 rels  =       1.606013265927
 relv  =      -6.662344786862
 rel2e =       0.000000000000
 E_rel =      -5.056331520935
 
 Computing fast CPCM-SWIG hessian
 Hessian of the SCF Energy
            1           2           3           4           5           6
    1   0.7540442   0.1527090  -0.0896398  -0.0277718   0.0151505   0.0294632
    2   0.1527090   0.6557648  -0.2244324   0.0241163  -0.0928329  -0.0979985
    3  -0.0896398  -0.2244324   0.4937086   0.0207328  -0.0344020  -0.1169954
    4  -0.0277718   0.0241163   0.0207328   0.4409663   0.0278937  -0.0128126
    5   0.0151505  -0.0928329  -0.0344020   0.0278937   0.1155273   0.0655258
    6   0.0294632  -0.0979985  -0.1169954  -0.0128126   0.0655258   0.4311308
    7  -0.1544072   0.0218482  -0.1304499  -0.0130934   0.0111438   0.0080341
    8   0.0160708  -0.0391385   0.0263354  -0.0073793   0.0107897   0.0009703
    9  -0.1151146   0.0292825  -0.1642356  -0.0160324   0.0117108   0.0104883
   10  -0.0117060  -0.0376591   0.0186222  -0.0038043   0.0029622  -0.0017961
   11  -0.0492622  -0.4526790   0.2235982  -0.0050756  -0.0229571   0.0333557
   12   0.0272204   0.2188600  -0.1235712   0.0013270  -0.0117242  -0.0007300
   13  -0.4764867  -0.1441589   0.1901581  -0.0136548  -0.0138376  -0.0116480
   14  -0.1365989  -0.0662024   0.0471664   0.0083463   0.0050769  -0.0030442
   15   0.1814405   0.0459695  -0.0928338   0.0125070   0.0077509   0.0066166
   16  -0.0183139  -0.0137775  -0.0103134  -0.2497409  -0.0215370   0.1423878
   17   0.0165830   0.0037848  -0.0130566  -0.0348948  -0.0094508   0.0195832
   18   0.0176455   0.0221421   0.0121269   0.1369044  -0.0027160  -0.1185405
   19  -0.0118280   0.0032618   0.0066772  -0.1443444  -0.0181632  -0.1488157
   20  -0.0133358   0.0002342  -0.0191707  -0.0141051  -0.0057891  -0.0145912
   21  -0.0259393   0.0166673   0.0047601  -0.1383136  -0.0367274  -0.2086987
   22  -0.0889200   0.0071592  -0.0431262   0.0175382  -0.0074237  -0.0101679
   23  -0.0148969   0.0014486  -0.0224189   0.0019008  -0.0022139  -0.0059694
   24  -0.0341874  -0.0136201  -0.0105579  -0.0115767  -0.0003248  -0.0025962
   25  -0.0078401   0.0037806  -0.0002395  -0.0003094  -0.0008329  -0.0014942
   26   0.0094004   0.0035611   0.0162361  -0.0030456   0.0013949   0.0022163
   27  -0.0020817   0.0024558   0.0017961  -0.0040188  -0.0002792  -0.0006362
   28   0.0140025  -0.0115908   0.0099635  -0.0042077   0.0017845   0.0008404
   29   0.0073964  -0.0085170   0.0039923  -0.0015415   0.0013419   0.0005850
   30   0.0127482  -0.0054940   0.0093222   0.0001959   0.0007734   0.0010127
   31   0.0177414  -0.0032381   0.0155229  -0.0013056   0.0016534   0.0034692
   32   0.0072447  -0.0047325   0.0096096   0.0011428   0.0004915   0.0009587
   33  -0.0063165   0.0079254  -0.0154793   0.0068579  -0.0000278  -0.0018515
   34   0.0020717  -0.0003211   0.0011497  -0.0004029   0.0000526   0.0005209
   35  -0.0040392   0.0000629  -0.0041147  -0.0000930  -0.0005444  -0.0006488
   36   0.0036973  -0.0005959   0.0027290   0.0013974   0.0002981   0.0006148
   37   0.0061671  -0.0001033   0.0096272   0.0000313   0.0007277   0.0017883
   38  -0.0025504  -0.0006370  -0.0049591   0.0007208  -0.0003819  -0.0005653
   39   0.0010827  -0.0000047   0.0018605   0.0003945   0.0001672   0.0003061
   40   0.0032466  -0.0020264   0.0013152   0.0000994   0.0004258   0.0002307
   41  -0.0038714  -0.0001171  -0.0043835   0.0020141  -0.0004522  -0.0003775
   42  -0.0000184  -0.0011571  -0.0026302   0.0024373  -0.0000246  -0.0001209
            7           8           9          10          11          12
    1  -0.1544072   0.0160708  -0.1151146  -0.0117060  -0.0492622   0.0272204
    2   0.0218482  -0.0391385   0.0292825  -0.0376591  -0.4526790   0.2188600
    3  -0.1304499   0.0263354  -0.1642356   0.0186222   0.2235982  -0.1235712
    4  -0.0130934  -0.0073793  -0.0160324  -0.0038043  -0.0050756   0.0013270
    5   0.0111438   0.0107897   0.0117108   0.0029622  -0.0229571  -0.0117242
    6   0.0080341   0.0009703   0.0104883  -0.0017961   0.0333557  -0.0007300
    7   0.5155916   0.0721431   0.2052549  -0.0073412   0.0054632  -0.0150365
    8   0.0721431   0.1048327  -0.0340725   0.0146709  -0.0021973   0.0178666
    9   0.2052549  -0.0340725   0.2390044  -0.0130236   0.0072192  -0.0171838
   10  -0.0073412   0.0146709  -0.0130236   0.0200817   0.0495748  -0.0233426
   11   0.0054632  -0.0021973   0.0072192   0.0495748   0.4808121  -0.2503625
   12  -0.0150365   0.0178666  -0.0171838  -0.0233426  -0.2503625   0.1420501
   13  -0.0358982  -0.0099951  -0.0030086  -0.0070285   0.0058032  -0.0021493
   14  -0.0016803   0.0013813   0.0020244  -0.0298205  -0.0079929   0.0167835
   15  -0.0231653  -0.0034304   0.0020262   0.0153070   0.0078500  -0.0013149
   16   0.0113582   0.0014862   0.0055156   0.0030803   0.0101552  -0.0000355
   17  -0.0009933  -0.0010476  -0.0004516  -0.0019064   0.0058088   0.0010485
   18  -0.0077875  -0.0019871  -0.0043147  -0.0016465  -0.0088552  -0.0001800
   19  -0.0023650  -0.0019333  -0.0042755   0.0021292  -0.0073145   0.0003017
   20  -0.0051455  -0.0026835  -0.0055469   0.0018546   0.0028736   0.0026273
   21  -0.0109424  -0.0068500  -0.0123469   0.0033469  -0.0115054   0.0001972
   22  -0.2533561  -0.0721523  -0.0346799   0.0078831  -0.0163963   0.0211521
   23  -0.0653739  -0.0715889   0.0032266  -0.0004026  -0.0116112   0.0106175
   24  -0.0205727   0.0068356  -0.0506530   0.0081492   0.0006542  -0.0015875
   25   0.0040932   0.0020558  -0.0034195   0.0011945  -0.0008467   0.0006756
   26  -0.0373561   0.0036996  -0.0161650  -0.0014661   0.0017884  -0.0045469
   27   0.0054697  -0.0014111   0.0056117  -0.0000206  -0.0008764   0.0003923
   28  -0.0200853  -0.0153852  -0.0242122  -0.0007487   0.0024566  -0.0023909
   29  -0.0159084   0.0001627  -0.0129278  -0.0009154   0.0032476  -0.0021023
   30  -0.0054852  -0.0023595  -0.0102430  -0.0019776   0.0019900  -0.0019426
   31  -0.0259674  -0.0084903   0.0133560  -0.0019958   0.0026320  -0.0038440
   32  -0.0118271  -0.0045457   0.0033636   0.0012519   0.0039539  -0.0023687
   33   0.0021570  -0.0051929   0.0001527  -0.0029728  -0.0040394   0.0043379
   34   0.0005209   0.0018273  -0.0012662  -0.0002952   0.0002890  -0.0004873
   35   0.0089830  -0.0005983   0.0016853   0.0007289  -0.0002650   0.0007809
   36  -0.0067909   0.0008805  -0.0000597  -0.0006593   0.0004330  -0.0004797
   37  -0.0181483   0.0036947  -0.0092324  -0.0011274   0.0020189  -0.0030274
   38   0.0090188  -0.0001908   0.0048518   0.0003772  -0.0004045   0.0012714
   39  -0.0041719   0.0006989  -0.0016459  -0.0002350   0.0003680  -0.0006013
   40  -0.0009019   0.0033866   0.0001385  -0.0003216   0.0005023  -0.0003633
   41   0.0096846   0.0011247   0.0057995   0.0007495  -0.0003774   0.0012491
   42   0.0034866   0.0017162   0.0033994   0.0002488   0.0001705   0.0006135
           13          14          15          16          17          18
    1  -0.4764867  -0.1365989   0.1814405  -0.0183139   0.0165830   0.0176455
    2  -0.1441589  -0.0662024   0.0459695  -0.0137775   0.0037848   0.0221421
    3   0.1901581   0.0471664  -0.0928338  -0.0103134  -0.0130566   0.0121269
    4  -0.0136548   0.0083463   0.0125070  -0.2497409  -0.0348948   0.1369044
    5  -0.0138376   0.0050769   0.0077509  -0.0215370  -0.0094508  -0.0027160
    6  -0.0116480  -0.0030442   0.0066166   0.1423878   0.0195832  -0.1185405
    7  -0.0358982  -0.0016803  -0.0231653   0.0113582  -0.0009933  -0.0077875
    8  -0.0099951   0.0013813  -0.0034304   0.0014862  -0.0010476  -0.0019871
    9  -0.0030086   0.0020244   0.0020262   0.0055156  -0.0004516  -0.0043147
   10  -0.0070285  -0.0298205   0.0153070   0.0030803  -0.0019064  -0.0016465
   11   0.0058032  -0.0079929   0.0078500   0.0101552   0.0058088  -0.0088552
   12  -0.0021493   0.0167835  -0.0013149  -0.0000355   0.0010485  -0.0001800
   13   0.5307385   0.1525264  -0.1906643  -0.0063945   0.0046496   0.0089170
   14   0.1525264   0.0669569  -0.0566514   0.0043487  -0.0018819  -0.0059108
   15  -0.1906643  -0.0566514   0.0953456   0.0088160  -0.0043071  -0.0088212
   16  -0.0063945   0.0043487   0.0088160   0.3414442   0.0279146  -0.1335208
   17   0.0046496  -0.0018819  -0.0043071   0.0279146  -0.0012647   0.0017959
   18   0.0089170  -0.0059108  -0.0088212  -0.1335208   0.0017959   0.0908594
   19   0.0081872   0.0011712  -0.0019738  -0.0772901  -0.0108216  -0.0224459
   20   0.0017078  -0.0012389  -0.0000863  -0.0077987   0.0043872  -0.0046629
   21   0.0074499  -0.0011922  -0.0033864  -0.0132811  -0.0040440   0.0288455
   22   0.0128943   0.0031647   0.0010064  -0.0090223  -0.0010260   0.0057812
   23   0.0103227   0.0044190   0.0050436  -0.0019716  -0.0007864   0.0010875
   24   0.0037309   0.0017452  -0.0000084   0.0055877   0.0009539  -0.0012276
   25   0.0014095  -0.0006772  -0.0005656  -0.0000257   0.0002501   0.0005320
   26  -0.0060447  -0.0021456  -0.0023784   0.0024001  -0.0006051  -0.0013665
   27   0.0015745  -0.0001268  -0.0009281   0.0026278   0.0001218  -0.0002278
   28  -0.0031420   0.0006089   0.0003811   0.0021684   0.0000931  -0.0012672
   29  -0.0032474   0.0000469   0.0001782   0.0007138  -0.0000538  -0.0006883
   30  -0.0046039   0.0000964  -0.0000337  -0.0002743  -0.0005238  -0.0007157
   31  -0.0062591  -0.0007702  -0.0017843   0.0021124   0.0001547  -0.0019509
   32  -0.0028809  -0.0000005  -0.0017401  -0.0001808   0.0003744  -0.0003971
   33   0.0026728  -0.0006107   0.0030036  -0.0044637  -0.0014118   0.0013109
   34  -0.0001767   0.0001161  -0.0001720   0.0003043  -0.0000016  -0.0001469
   35   0.0019275   0.0004948   0.0005076  -0.0000149   0.0001860   0.0003066
   36  -0.0020023  -0.0003261  -0.0001352  -0.0008029  -0.0001177  -0.0000350
   37  -0.0033404  -0.0008451  -0.0011949   0.0003315  -0.0000815  -0.0007968
   38   0.0013526   0.0005452   0.0006562  -0.0005482   0.0001017   0.0003681
   39  -0.0007845  -0.0002004  -0.0001701  -0.0001543   0.0000249  -0.0000252
   40  -0.0008486   0.0001100   0.0000623  -0.0000120   0.0000800  -0.0002177
   41   0.0018748   0.0005411   0.0006378  -0.0011899   0.0004476   0.0008836
   42   0.0003576   0.0002468   0.0006398  -0.0020890   0.0003843   0.0009450
           19          20          21          22          23          24
    1  -0.0118280  -0.0133358  -0.0259393  -0.0889200  -0.0148969  -0.0341874
    2   0.0032618   0.0002342   0.0166673   0.0071592   0.0014486  -0.0136201
    3   0.0066772  -0.0191707   0.0047601  -0.0431262  -0.0224189  -0.0105579
    4  -0.1443444  -0.0141051  -0.1383136   0.0175382   0.0019008  -0.0115767
    5  -0.0181632  -0.0057891  -0.0367274  -0.0074237  -0.0022139  -0.0003248
    6  -0.1488157  -0.0145912  -0.2086987  -0.0101679  -0.0059694  -0.0025962
    7  -0.0023650  -0.0051455  -0.0109424  -0.2533561  -0.0653739  -0.0205727
    8  -0.0019333  -0.0026835  -0.0068500  -0.0721523  -0.0715889   0.0068356
    9  -0.0042755  -0.0055469  -0.0123469  -0.0346799   0.0032266  -0.0506530
   10   0.0021292   0.0018546   0.0033469   0.0078831  -0.0004026   0.0081492
   11  -0.0073145   0.0028736  -0.0115054  -0.0163963  -0.0116112   0.0006542
   12   0.0003017   0.0026273   0.0001972   0.0211521   0.0106175  -0.0015875
   13   0.0081872   0.0017078   0.0074499   0.0128943   0.0103227   0.0037309
   14   0.0011712  -0.0012389  -0.0011922   0.0031647   0.0044190   0.0017452
   15  -0.0019738  -0.0000863  -0.0033864   0.0010064   0.0050436  -0.0000084
   16  -0.0772901  -0.0077987  -0.0132811  -0.0090223  -0.0019716   0.0055877
   17  -0.0108216   0.0043872  -0.0040440  -0.0010260  -0.0007864   0.0009539
   18  -0.0224459  -0.0046629   0.0288455   0.0057812   0.0010875  -0.0012276
   19   0.2238491   0.0337179   0.1707811   0.0041312   0.0018996   0.0020885
   20   0.0337179   0.0017222   0.0424751   0.0056505   0.0019845  -0.0010545
   21   0.1707811   0.0424751   0.1915187   0.0140519   0.0049225   0.0005450
   22   0.0041312   0.0056505   0.0140519   0.5152164   0.1111631  -0.0768387
   23   0.0018996   0.0019845   0.0049225   0.1111631   0.5142129   0.0862131
   24   0.0020885  -0.0010545   0.0005450  -0.0768387   0.0862131   0.9643139
   25   0.0008904   0.0004308   0.0016596  -0.0608726   0.0797956  -0.0184415
   26  -0.0004775  -0.0009087  -0.0021771   0.0840128  -0.1567611   0.0369466
   27   0.0013453   0.0000302   0.0010852  -0.0209768   0.0375569  -0.0272723
   28  -0.0009665  -0.0015431  -0.0034238  -0.0263779  -0.0308889  -0.0627861
   29  -0.0009352  -0.0008951  -0.0021401  -0.0201637  -0.2150738  -0.2662232
   30  -0.0013610  -0.0006225  -0.0022683  -0.0496080  -0.2649519  -0.4029585
   31  -0.0011420  -0.0008247  -0.0029630  -0.1051771  -0.0659669   0.1976753
   32  -0.0009581  -0.0005387  -0.0014298  -0.0640502  -0.0750972   0.1610002
   33  -0.0008137   0.0006892   0.0009752   0.1858034   0.1571509  -0.4371504
   34  -0.0000345  -0.0000745  -0.0002168   0.0019408   0.0008719  -0.0032597
   35   0.0003947   0.0002565   0.0007809  -0.0206544   0.0060084   0.0204680
   36  -0.0006436  -0.0001744  -0.0007540   0.0185208  -0.0079022  -0.0177844
   37  -0.0008121  -0.0004150  -0.0016113  -0.0186540  -0.0283798   0.0030120
   38   0.0001269   0.0002042   0.0005430   0.0086501   0.0074670  -0.0004420
   39  -0.0002618  -0.0000569  -0.0003610  -0.0034364  -0.0056697  -0.0011156
   40  -0.0004045  -0.0001194  -0.0005980   0.0027759   0.0019269   0.0074193
   41   0.0000312   0.0003918   0.0006773  -0.0179338  -0.0024077  -0.0331522
   42  -0.0006028   0.0001445  -0.0001116  -0.0074818   0.0010936  -0.0119471
           25          26          27          28          29          30
    1  -0.0078401   0.0094004  -0.0020817   0.0140025   0.0073964   0.0127482
    2   0.0037806   0.0035611   0.0024558  -0.0115908  -0.0085170  -0.0054940
    3  -0.0002395   0.0162361   0.0017961   0.0099635   0.0039923   0.0093222
    4  -0.0003094  -0.0030456  -0.0040188  -0.0042077  -0.0015415   0.0001959
    5  -0.0008329   0.0013949  -0.0002792   0.0017845   0.0013419   0.0007734
    6  -0.0014942   0.0022163  -0.0006362   0.0008404   0.0005850   0.0010127
    7   0.0040932  -0.0373561   0.0054697  -0.0200853  -0.0159084  -0.0054852
    8   0.0020558   0.0036996  -0.0014111  -0.0153852   0.0001627  -0.0023595
    9  -0.0034195  -0.0161650   0.0056117  -0.0242122  -0.0129278  -0.0102430
   10   0.0011945  -0.0014661  -0.0000206  -0.0007487  -0.0009154  -0.0019776
   11  -0.0008467   0.0017884  -0.0008764   0.0024566   0.0032476   0.0019900
   12   0.0006756  -0.0045469   0.0003923  -0.0023909  -0.0021023  -0.0019426
   13   0.0014095  -0.0060447   0.0015745  -0.0031420  -0.0032474  -0.0046039
   14  -0.0006772  -0.0021456  -0.0001268   0.0006089   0.0000469   0.0000964
   15  -0.0005656  -0.0023784  -0.0009281   0.0003811   0.0001782  -0.0000337
   16  -0.0000257   0.0024001   0.0026278   0.0021684   0.0007138  -0.0002743
   17   0.0002501  -0.0006051   0.0001218   0.0000931  -0.0000538  -0.0005238
   18   0.0005320  -0.0013665  -0.0002278  -0.0012672  -0.0006883  -0.0007157
   19   0.0008904  -0.0004775   0.0013453  -0.0009665  -0.0009352  -0.0013610
   20   0.0004308  -0.0009087   0.0000302  -0.0015431  -0.0008951  -0.0006225
   21   0.0016596  -0.0021771   0.0010852  -0.0034238  -0.0021401  -0.0022683
   22  -0.0608726   0.0840128  -0.0209768  -0.0263779  -0.0201637  -0.0496080
   23   0.0797956  -0.1567611   0.0375569  -0.0308889  -0.2150738  -0.2649519
   24  -0.0184415   0.0369466  -0.0272723  -0.0627861  -0.2662232  -0.4029585
   25   0.4139667  -0.0035642  -0.0000164   0.0029757  -0.0181696  -0.0118612
   26  -0.0035642   0.4350628  -0.0035648  -0.0020454   0.0124526   0.0126499
   27  -0.0000164  -0.0035648   0.4271025   0.0047768  -0.0252868  -0.0127047
   28   0.0029757  -0.0020454   0.0047768   0.0307693   0.0454155   0.0620780
   29  -0.0181696   0.0124526  -0.0252868   0.0454155   0.2216373   0.2884877
   30  -0.0118612   0.0126499  -0.0127047   0.0620780   0.2884877   0.4336096
   31  -0.0064715   0.0019057  -0.0012751   0.0034646  -0.0076983  -0.0062081
   32  -0.0197282   0.0094877   0.0092336   0.0026194   0.0071029  -0.0212089
   33   0.0205857  -0.0196382  -0.0134982   0.0160024   0.0120644  -0.0242506
   34  -0.0537134  -0.0255798   0.0519520  -0.0001959   0.0011738  -0.0001672
   35  -0.0252561  -0.0957907   0.0960193   0.0026687  -0.0027165  -0.0037630
   36   0.0517377   0.0962644  -0.2014604  -0.0024166   0.0053597   0.0081805
   37  -0.2577269  -0.0137324  -0.0307277   0.0027645   0.0092966   0.0046379
   38  -0.0137950  -0.0420011  -0.0005556   0.0007190  -0.0017736   0.0003574
   39  -0.0303172  -0.0004663  -0.0375687   0.0005145   0.0040226   0.0029854
   40  -0.0375704  -0.0044071  -0.0086291  -0.0004209   0.0045836   0.0018865
   41  -0.0034431  -0.1692349  -0.1133169   0.0050877  -0.0169621  -0.0054311
   42  -0.0088353  -0.1140099  -0.1416913   0.0019399  -0.0053214   0.0000067
           31          32          33          34          35          36
    1   0.0177414   0.0072447  -0.0063165   0.0020717  -0.0040392   0.0036973
    2  -0.0032381  -0.0047325   0.0079254  -0.0003211   0.0000629  -0.0005959
    3   0.0155229   0.0096096  -0.0154793   0.0011497  -0.0041147   0.0027290
    4  -0.0013056   0.0011428   0.0068579  -0.0004029  -0.0000930   0.0013974
    5   0.0016534   0.0004915  -0.0000278   0.0000526  -0.0005444   0.0002981
    6   0.0034692   0.0009587  -0.0018515   0.0005209  -0.0006488   0.0006148
    7  -0.0259674  -0.0118271   0.0021570   0.0005209   0.0089830  -0.0067909
    8  -0.0084903  -0.0045457  -0.0051929   0.0018273  -0.0005983   0.0008805
    9   0.0133560   0.0033636   0.0001527  -0.0012662   0.0016853  -0.0000597
   10  -0.0019958   0.0012519  -0.0029728  -0.0002952   0.0007289  -0.0006593
   11   0.0026320   0.0039539  -0.0040394   0.0002890  -0.0002650   0.0004330
   12  -0.0038440  -0.0023687   0.0043379  -0.0004873   0.0007809  -0.0004797
   13  -0.0062591  -0.0028809   0.0026728  -0.0001767   0.0019275  -0.0020023
   14  -0.0007702  -0.0000005  -0.0006107   0.0001161   0.0004948  -0.0003261
   15  -0.0017843  -0.0017401   0.0030036  -0.0001720   0.0005076  -0.0001352
   16   0.0021124  -0.0001808  -0.0044637   0.0003043  -0.0000149  -0.0008029
   17   0.0001547   0.0003744  -0.0014118  -0.0000016   0.0001860  -0.0001177
   18  -0.0019509  -0.0003971   0.0013109  -0.0001469   0.0003066  -0.0000350
   19  -0.0011420  -0.0009581  -0.0008137  -0.0000345   0.0003947  -0.0006436
   20  -0.0008247  -0.0005387   0.0006892  -0.0000745   0.0002565  -0.0001744
   21  -0.0029630  -0.0014298   0.0009752  -0.0002168   0.0007809  -0.0007540
   22  -0.1051771  -0.0640502   0.1858034   0.0019408  -0.0206544   0.0185208
   23  -0.0659669  -0.0750972   0.1571509   0.0008719   0.0060084  -0.0079022
   24   0.1976753   0.1610002  -0.4371504  -0.0032597   0.0204680  -0.0177844
   25  -0.0064715  -0.0197282   0.0205857  -0.0537134  -0.0252561   0.0517377
   26   0.0019057   0.0094877  -0.0196382  -0.0255798  -0.0957907   0.0962644
   27  -0.0012751   0.0092336  -0.0134982   0.0519520   0.0960193  -0.2014604
   28   0.0034646   0.0026194   0.0160024  -0.0001959   0.0026687  -0.0024166
   29  -0.0076983   0.0071029   0.0120644   0.0011738  -0.0027165   0.0053597
   30  -0.0062081  -0.0212089  -0.0242506  -0.0001672  -0.0037630   0.0081805
   31   0.1186877   0.0766916  -0.2087424   0.0007127   0.0017976  -0.0020842
   32   0.0766916   0.0776218  -0.1650309   0.0017599  -0.0106902   0.0096117
   33  -0.2087424  -0.1650309   0.4801636  -0.0018152   0.0096068  -0.0064180
   34   0.0007127   0.0017599  -0.0018152   0.0880037   0.0511965  -0.1048701
   35   0.0017976  -0.0106902   0.0096068   0.0511965   0.0880209  -0.1090405
   36  -0.0020842   0.0096117  -0.0064180  -0.1048701  -0.1090405   0.2966274
   37   0.0051368   0.0068094  -0.0062889  -0.0470924  -0.0239933   0.0322711
   38   0.0008687  -0.0016133   0.0008321  -0.0348225  -0.0016872   0.0128338
   39  -0.0004694  -0.0003356   0.0019637   0.0467998   0.0132161  -0.0029740
   40   0.0004629   0.0021055  -0.0026661   0.0083567   0.0063541   0.0126456
   41   0.0012846  -0.0018141   0.0076827   0.0035123   0.0172628  -0.0075243
   42  -0.0007020  -0.0012662   0.0067403   0.0119792  -0.0258044  -0.0780511
           37          38          39          40          41          42
    1   0.0061671  -0.0025504   0.0010827   0.0032466  -0.0038714  -0.0000184
    2  -0.0001033  -0.0006370  -0.0000047  -0.0020264  -0.0001171  -0.0011571
    3   0.0096272  -0.0049591   0.0018605   0.0013152  -0.0043835  -0.0026302
    4   0.0000313   0.0007208   0.0003945   0.0000994   0.0020141   0.0024373
    5   0.0007277  -0.0003819   0.0001672   0.0004258  -0.0004522  -0.0000246
    6   0.0017883  -0.0005653   0.0003061   0.0002307  -0.0003775  -0.0001209
    7  -0.0181483   0.0090188  -0.0041719  -0.0009019   0.0096846   0.0034866
    8   0.0036947  -0.0001908   0.0006989   0.0033866   0.0011247   0.0017162
    9  -0.0092324   0.0048518  -0.0016459   0.0001385   0.0057995   0.0033994
   10  -0.0011274   0.0003772  -0.0002350  -0.0003216   0.0007495   0.0002488
   11   0.0020189  -0.0004045   0.0003680   0.0005023  -0.0003774   0.0001705
   12  -0.0030274   0.0012714  -0.0006013  -0.0003633   0.0012491   0.0006135
   13  -0.0033404   0.0013526  -0.0007845  -0.0008486   0.0018748   0.0003576
   14  -0.0008451   0.0005452  -0.0002004   0.0001100   0.0005411   0.0002468
   15  -0.0011949   0.0006562  -0.0001701   0.0000623   0.0006378   0.0006398
   16   0.0003315  -0.0005482  -0.0001543  -0.0000120  -0.0011899  -0.0020890
   17  -0.0000815   0.0001017   0.0000249   0.0000800   0.0004476   0.0003843
   18  -0.0007968   0.0003681  -0.0000252  -0.0002177   0.0008836   0.0009450
   19  -0.0008121   0.0001269  -0.0002618  -0.0004045   0.0000312  -0.0006028
   20  -0.0004150   0.0002042  -0.0000569  -0.0001194   0.0003918   0.0001445
   21  -0.0016113   0.0005430  -0.0003610  -0.0005980   0.0006773  -0.0001116
   22  -0.0186540   0.0086501  -0.0034364   0.0027759  -0.0179338  -0.0074818
   23  -0.0283798   0.0074670  -0.0056697   0.0019269  -0.0024077   0.0010936
   24   0.0030120  -0.0004420  -0.0011156   0.0074193  -0.0331522  -0.0119471
   25  -0.2577269  -0.0137950  -0.0303172  -0.0375704  -0.0034431  -0.0088353
   26  -0.0137324  -0.0420011  -0.0004663  -0.0044071  -0.1692349  -0.1140099
   27  -0.0307277  -0.0005556  -0.0375687  -0.0086291  -0.1133169  -0.1416913
   28   0.0027645   0.0007190   0.0005145  -0.0004209   0.0050877   0.0019399
   29   0.0092966  -0.0017736   0.0040226   0.0045836  -0.0169621  -0.0053214
   30   0.0046379   0.0003574   0.0029854   0.0018865  -0.0054311   0.0000067
   31   0.0051368   0.0008687  -0.0004694   0.0004629   0.0012846  -0.0007020
   32   0.0068094  -0.0016133  -0.0003356   0.0021055  -0.0018141  -0.0012662
   33  -0.0062889   0.0008321   0.0019637  -0.0026661   0.0076827   0.0067403
   34  -0.0470924  -0.0348225   0.0467998   0.0083567   0.0035123   0.0119792
   35  -0.0239933  -0.0016872   0.0132161   0.0063541   0.0172628  -0.0258044
   36   0.0322711   0.0128338  -0.0029740   0.0126456  -0.0075243  -0.0780511
   37   0.3576930   0.0748318   0.0321319  -0.0252225  -0.0298287  -0.0305890
   38   0.0748318   0.0539302   0.0094723  -0.0449499  -0.0135590  -0.0246640
   39   0.0321319   0.0094723   0.0497190  -0.0410929  -0.0212365  -0.0123728
   40  -0.0252225  -0.0449499  -0.0410929   0.0507608   0.0320280   0.0298689
   41  -0.0298287  -0.0135590  -0.0212365   0.0320280   0.1851565   0.1684920
   42  -0.0305890  -0.0246640  -0.0123728   0.0298689   0.1684920   0.2345803
 Gradient time:  CPU 12205.85 s  wall 3795.70 s
 **********************************************************************
 **                                                                  **
 **                       VIBRATIONAL ANALYSIS                       **
 **                       --------------------                       **
 **                                                                  **
 **        VIBRATIONAL FREQUENCIES (CM**-1) AND NORMAL MODES         **
 **     FORCE CONSTANTS (mDYN/ANGSTROM) AND REDUCED MASSES (AMU)     **
 **                  INFRARED INTENSITIES (KM/MOL)                   **
 **                                                                  **
 **********************************************************************
 

 Mode:                 1                      2                      3
 Frequency:       -22.68                  32.27                  43.03
 Force Cnst:      0.0053                 0.0109                 0.0206
 Red. Mass:      17.4629                17.8410                18.9140
 IR Active:          YES                    YES                    YES
 IR Intens:        0.341                  0.437                  0.149
 Raman Active:       YES                    YES                    YES
               X      Y      Z        X      Y      Z        X      Y      Z
 S         -0.016 -0.052  0.011   -0.011 -0.038  0.037   -0.050 -0.031  0.024
 C         -0.165  0.104 -0.197    0.219  0.114 -0.061   -0.090 -0.006 -0.008
 N          0.090 -0.266 -0.135   -0.027  0.082  0.080   -0.037 -0.092  0.000
 O         -0.027  0.041  0.181   -0.194  0.027  0.127   -0.031 -0.017  0.052
 O          0.009 -0.076  0.060    0.043 -0.283 -0.019   -0.063 -0.004  0.014
 F         -0.190  0.106 -0.250    0.138  0.440 -0.164    0.143 -0.384  0.410
 F         -0.226  0.289 -0.165    0.173 -0.073  0.015    0.166  0.479 -0.348
 S          0.027 -0.103 -0.093    0.012 -0.002 -0.035   -0.056 -0.027 -0.013
 C          0.109  0.013  0.176   -0.084 -0.034  0.047    0.028  0.016 -0.026
 O         -0.101  0.079 -0.198    0.127  0.082 -0.114   -0.077 -0.017 -0.017
 O          0.073 -0.227 -0.118   -0.027 -0.147 -0.106   -0.092  0.000 -0.020
 F          0.043  0.101  0.190    0.077  0.206  0.224    0.253  0.136  0.120
 F          0.071  0.148  0.279   -0.024 -0.170 -0.256    0.053  0.049 -0.305
 F          0.292 -0.106  0.261   -0.388 -0.177  0.223   -0.148 -0.090  0.101
 TransDip  -0.003  0.015  0.011    0.012  0.017  0.004    0.012 -0.000 -0.001

 Mode:                 4                      5                      6
 Frequency:        57.08                 112.69                 156.57
 Force Cnst:      0.0347                 0.1338                 0.2544
 Red. Mass:      18.0892                17.8772                17.6111
 IR Active:          YES                    YES                    YES
 IR Intens:        0.173                  0.200                  3.883
 Raman Active:       YES                    YES                    YES
               X      Y      Z        X      Y      Z        X      Y      Z
 S          0.060  0.027 -0.110    0.067 -0.127 -0.012    0.191 -0.121  0.093
 C         -0.074 -0.038 -0.086   -0.089 -0.087 -0.119    0.109 -0.060 -0.041
 N         -0.012 -0.131 -0.070    0.216  0.064 -0.152   -0.070 -0.084  0.342
 O          0.282  0.005 -0.110   -0.196 -0.144 -0.097    0.437 -0.107  0.171
 O         -0.018  0.214 -0.171    0.194 -0.292  0.198    0.085 -0.108 -0.183
 F         -0.167  0.002 -0.279   -0.107 -0.210 -0.186    0.007 -0.177 -0.271
 F         -0.208 -0.161  0.070   -0.168  0.188 -0.091   -0.087  0.235  0.100
 S         -0.060 -0.033  0.142    0.153  0.161  0.047   -0.077  0.047  0.072
 C          0.072  0.014  0.044   -0.047  0.048  0.017   -0.075  0.080  0.006
 O         -0.239 -0.149  0.253   -0.015  0.055  0.150    0.072  0.241 -0.092
 O          0.027  0.148  0.247    0.303  0.323  0.175   -0.331 -0.130 -0.109
 F          0.377  0.088  0.200   -0.176  0.128  0.005   -0.072 -0.024 -0.044
 F          0.098  0.077 -0.301    0.006 -0.240  0.036   -0.066  0.013 -0.009
 F         -0.133 -0.069  0.152   -0.240  0.103 -0.005   -0.167  0.213 -0.105
 TransDip  -0.009 -0.007 -0.007    0.010  0.010 -0.004    0.042  0.015  0.044

 Mode:                 7                      8                      9
 Frequency:       176.46                 198.57                 203.08
 Force Cnst:      0.2965                 0.4002                 0.4205
 Red. Mass:      16.1608                17.2263                17.3036
 IR Active:          YES                    YES                    YES
 IR Intens:        0.525                  4.975                  1.216
 Raman Active:       YES                    YES                    YES
               X      Y      Z        X      Y      Z        X      Y      Z
 S         -0.041  0.012 -0.063   -0.023 -0.158  0.056    0.034 -0.097  0.054
 C          0.025 -0.031 -0.042   -0.057 -0.120  0.028   -0.008 -0.062  0.013
 N         -0.199  0.469  0.228    0.006 -0.033  0.036    0.021 -0.129  0.054
 O         -0.240 -0.140 -0.389    0.185 -0.438 -0.440    0.237 -0.199 -0.095
 O         -0.013 -0.118 -0.086   -0.041  0.212  0.294   -0.008  0.119  0.108
 F         -0.036 -0.060 -0.173   -0.047  0.412  0.135   -0.011  0.180  0.037
 F         -0.086  0.232  0.018    0.032  0.130 -0.113    0.017  0.056 -0.032
 S         -0.001 -0.016  0.098   -0.005  0.002  0.030   -0.006 -0.012 -0.095
 C          0.036 -0.037  0.054   -0.008  0.009  0.045    0.014  0.008 -0.120
 O          0.387 -0.167  0.141   -0.146  0.190 -0.081    0.176 -0.326  0.097
 O         -0.127 -0.102  0.010    0.126 -0.177  0.030   -0.357  0.414 -0.098
 F          0.136 -0.095  0.069    0.086 -0.143  0.008   -0.262  0.377 -0.053
 F          0.005  0.150  0.045    0.000 -0.006 -0.013    0.007 -0.051  0.026
 F          0.155 -0.081  0.078   -0.091  0.142 -0.068    0.142 -0.258  0.108
 TransDip   0.018 -0.002  0.014   -0.020 -0.021  0.065    0.005 -0.008 -0.034

 Mode:                10                     11                     12
 Frequency:       273.60                 286.17                 307.94
 Force Cnst:      0.7824                 0.8380                 0.9573
 Red. Mass:      17.7403                17.3679                17.1347
 IR Active:          YES                    YES                    YES
 IR Intens:        3.582                  3.524                  1.696
 Raman Active:       YES                    YES                    YES
               X      Y      Z        X      Y      Z        X      Y      Z
 S          0.066 -0.038  0.030    0.029 -0.016 -0.060    0.108  0.119  0.018
 C          0.072  0.017  0.077    0.161  0.101  0.242    0.199  0.044 -0.038
 N          0.048 -0.005 -0.054   -0.018 -0.001 -0.059    0.065 -0.042 -0.065
 O          0.111 -0.040  0.037   -0.067 -0.066 -0.176   -0.159  0.062 -0.140
 O          0.100 -0.101  0.056   -0.011 -0.163 -0.286    0.290  0.164  0.511
 F          0.048  0.007  0.018    0.105  0.060  0.126    0.140 -0.159 -0.258
 F         -0.025  0.112  0.175   -0.116  0.328  0.526    0.124  0.016  0.057
 S          0.026 -0.088 -0.039   -0.050  0.016 -0.067   -0.086  0.013 -0.020
 C         -0.243  0.040 -0.121    0.085 -0.073 -0.053   -0.076 -0.112  0.017
 O         -0.008 -0.211  0.051   -0.398  0.106 -0.081   -0.243  0.114 -0.072
 O          0.391 -0.178  0.098    0.050  0.077 -0.000   -0.293  0.136 -0.071
 F         -0.205  0.076 -0.101   -0.003  0.019 -0.048    0.036 -0.269  0.002
 F         -0.352  0.562 -0.218    0.113 -0.206 -0.026   -0.120  0.089 -0.026
 F         -0.049 -0.131  0.004    0.153 -0.178  0.018   -0.001 -0.226  0.096
 TransDip  -0.058 -0.001 -0.016    0.055 -0.006  0.023    0.039  0.014 -0.005

 Mode:                13                     14                     15
 Frequency:       328.33                 340.15                 393.70
 Force Cnst:      1.1226                 1.1769                 1.5741
 Red. Mass:      17.6759                17.2640                17.2363
 IR Active:          YES                    YES                    YES
 IR Intens:        3.828                  0.772                  7.800
 Raman Active:       YES                    YES                    YES
               X      Y      Z        X      Y      Z        X      Y      Z
 S          0.016  0.067  0.006    0.055 -0.001 -0.135    0.177  0.103 -0.136
 C          0.140  0.035 -0.002    0.012  0.090  0.083   -0.274  0.139 -0.041
 N         -0.053 -0.013  0.029    0.182 -0.312 -0.317   -0.029  0.225  0.024
 O         -0.177  0.030 -0.105   -0.095  0.023 -0.121    0.213  0.137 -0.085
 O          0.078  0.135  0.218    0.103 -0.053 -0.058    0.437 -0.415  0.110
 F          0.096 -0.094 -0.153    0.042  0.077  0.172   -0.148  0.128  0.336
 F          0.074  0.040  0.078   -0.087  0.086  0.209   -0.167 -0.134 -0.149
 S         -0.043 -0.176  0.039    0.035 -0.095 -0.085   -0.046  0.010  0.052
 C          0.103  0.149 -0.042   -0.053  0.062  0.147    0.008 -0.001 -0.015
 O         -0.231 -0.306  0.151    0.242 -0.268  0.000   -0.171 -0.016  0.087
 O         -0.040 -0.429 -0.048   -0.237  0.103 -0.146   -0.195 -0.172 -0.074
 F         -0.101  0.434 -0.014    0.162 -0.140  0.155   -0.034  0.020 -0.022
 F          0.164 -0.142  0.004   -0.077  0.122  0.211    0.021 -0.026 -0.045
 F          0.009  0.319 -0.165   -0.311  0.314 -0.015    0.058 -0.037  0.006
 TransDip   0.062  0.011  0.002    0.002  0.007 -0.027    0.025  0.065 -0.057

 Mode:                16                     17                     18
 Frequency:       426.61                 502.44                 538.78
 Force Cnst:      1.9114                 2.7558                 3.1623
 Red. Mass:      17.8248                18.5280                18.4896
 IR Active:          YES                    YES                    YES
 IR Intens:       14.424                179.052                 86.931
 Raman Active:       YES                    YES                    YES
               X      Y      Z        X      Y      Z        X      Y      Z
 S          0.067  0.012 -0.090    0.206 -0.071  0.118    0.182  0.112  0.138
 C         -0.034  0.041 -0.013   -0.071 -0.167  0.043   -0.107  0.082  0.040
 N          0.163 -0.453 -0.132    0.200  0.101  0.079   -0.096 -0.143  0.401
 O         -0.282  0.021 -0.150   -0.312 -0.049  0.063   -0.233 -0.006 -0.185
 O          0.037  0.100 -0.104   -0.041  0.233 -0.304    0.113 -0.003 -0.181
 F         -0.004  0.036  0.083   -0.106  0.063  0.041   -0.125  0.004  0.027
 F         -0.054 -0.014  0.011    0.007 -0.016 -0.090    0.027 -0.067 -0.107
 S          0.012 -0.027  0.314    0.251  0.105  0.007    0.085 -0.265 -0.000
 C         -0.004 -0.011 -0.016    0.112  0.037 -0.001    0.018 -0.146 -0.145
 O          0.307  0.369  0.020   -0.300 -0.097  0.234   -0.090  0.102 -0.273
 O         -0.179 -0.165  0.193   -0.160 -0.151 -0.282    0.063  0.232  0.186
 F         -0.244  0.083 -0.068   -0.100 -0.135 -0.212    0.170  0.214  0.005
 F          0.010  0.015 -0.267    0.135  0.168  0.016   -0.126  0.085  0.245
 F          0.162 -0.054  0.014   -0.193 -0.079  0.193   -0.145 -0.107 -0.249
 TransDip   0.047  0.003  0.112    0.400  0.013  0.155    0.248 -0.113  0.123

 Mode:                19                     20                     21
 Frequency:       551.89                 560.33                 569.80
 Force Cnst:      3.2806                 3.4409                 3.4742
 Red. Mass:      18.2806                18.6010                18.1620
 IR Active:          YES                    YES                    YES
 IR Intens:       45.971                 90.873                 63.827
 Raman Active:       YES                    YES                    YES
               X      Y      Z        X      Y      Z        X      Y      Z
 S         -0.196  0.215  0.130    0.006  0.156  0.213   -0.090  0.059  0.046
 C         -0.021  0.303  0.114   -0.065 -0.009  0.266    0.006 -0.014  0.142
 N         -0.021 -0.209  0.010    0.146 -0.050 -0.066    0.171 -0.115 -0.266
 O          0.220 -0.018 -0.283    0.035 -0.032 -0.164    0.111 -0.008 -0.060
 O         -0.107 -0.322  0.028   -0.053 -0.168 -0.159   -0.078 -0.113 -0.005
 F         -0.090 -0.098 -0.110   -0.283 -0.029 -0.108   -0.121 -0.023 -0.074
 F          0.167 -0.028 -0.002    0.283  0.017 -0.051    0.162  0.036  0.018
 S          0.037 -0.068  0.016    0.135  0.014 -0.052   -0.009  0.238  0.111
 C          0.222  0.093  0.013   -0.175 -0.088  0.187   -0.088 -0.039 -0.275
 O          0.028  0.010 -0.030   -0.112 -0.078  0.042    0.035  0.075  0.268
 O          0.017  0.014  0.036   -0.069  0.046 -0.138   -0.074 -0.271 -0.105
 F         -0.150 -0.096 -0.300   -0.100 -0.076  0.368    0.322  0.205 -0.097
 F          0.332  0.141  0.026   -0.218 -0.105 -0.285   -0.197 -0.031  0.318
 F         -0.237  0.004  0.262    0.293  0.202 -0.080   -0.068 -0.304 -0.232
 TransDip  -0.054  0.154  0.143    0.121  0.128  0.249   -0.087  0.221  0.094

 Mode:                22                     23                     24
 Frequency:       593.72                 639.55                 691.08
 Force Cnst:      3.2701                 4.4755                 4.3284
 Red. Mass:      15.7451                18.5716                15.3821
 IR Active:          YES                    YES                    YES
 IR Intens:       62.122                147.296                 15.868
 Raman Active:       YES                    YES                    YES
               X      Y      Z        X      Y      Z        X      Y      Z
 S         -0.037  0.002  0.161   -0.144 -0.025  0.010    0.085 -0.247 -0.088
 C         -0.009  0.622 -0.333    0.050 -0.058 -0.060   -0.115  0.747  0.094
 N          0.025 -0.118  0.123    0.190  0.455 -0.367    0.007  0.218 -0.132
 O          0.012 -0.154 -0.140    0.180 -0.020  0.090   -0.041 -0.198  0.131
 O         -0.128  0.001 -0.029   -0.176 -0.055  0.041    0.035  0.163 -0.009
 F          0.363 -0.094  0.054    0.136 -0.001 -0.017   -0.277 -0.106 -0.021
 F         -0.317 -0.165 -0.040   -0.082  0.010  0.019    0.287 -0.040  0.071
 S          0.128  0.115 -0.016    0.277 -0.284  0.165   -0.063 -0.033  0.015
 C         -0.074 -0.041  0.007    0.098 -0.218  0.019    0.010  0.010 -0.002
 O         -0.064 -0.028  0.129   -0.144  0.182 -0.100    0.032  0.008 -0.053
 O          0.007 -0.037 -0.142   -0.310  0.071  0.070   -0.030 -0.002  0.071
 F          0.029 -0.006  0.092   -0.076  0.090  0.080    0.001  0.006 -0.014
 F         -0.117 -0.026 -0.027    0.018  0.140  0.009    0.019 -0.002  0.006
 F          0.069 -0.003 -0.054   -0.074 -0.029 -0.172   -0.003 -0.002  0.004
 TransDip   0.144  0.165  0.126    0.183 -0.305  0.155   -0.013 -0.126 -0.017

 Mode:                25                     26                     27
 Frequency:       741.78                 776.87                1071.67
 Force Cnst:      6.3733                 7.0415                 9.9830
 Red. Mass:      19.6592                19.8024                14.7532
 IR Active:          YES                    YES                    YES
 IR Intens:      108.115                 33.612                361.247
 Raman Active:       YES                    YES                    YES
               X      Y      Z        X      Y      Z        X      Y      Z
 S          0.149  0.096  0.360    0.091  0.042  0.164   -0.018 -0.069 -0.070
 C         -0.008 -0.056 -0.032   -0.004 -0.017 -0.002    0.043  0.014 -0.180
 N          0.247  0.266 -0.417    0.053  0.032 -0.172    0.567  0.054  0.320
 O         -0.042 -0.158 -0.019   -0.037 -0.078 -0.007    0.025  0.228 -0.129
 O          0.026  0.005 -0.190    0.053  0.016 -0.084   -0.230 -0.055  0.060
 F          0.112  0.010 -0.000    0.034  0.004  0.001   -0.070 -0.011  0.041
 F         -0.133 -0.051 -0.100   -0.048 -0.021 -0.044    0.041  0.002  0.049
 S         -0.279 -0.082 -0.016   -0.276  0.146 -0.067   -0.006  0.069 -0.020
 C         -0.089  0.231 -0.060    0.170 -0.262  0.070   -0.169  0.359 -0.066
 O          0.087 -0.079 -0.186    0.091 -0.050  0.004   -0.068 -0.181 -0.243
 O         -0.047 -0.052  0.234    0.066 -0.052  0.037   -0.117 -0.090  0.253
 F          0.134  0.014 -0.219   -0.260 -0.054  0.382   -0.023 -0.071  0.097
 F         -0.102 -0.154  0.013    0.443  0.234  0.022    0.081 -0.008  0.012
 F          0.067  0.088  0.228   -0.145 -0.187 -0.398    0.002 -0.106 -0.079
 TransDip  -0.146  0.105  0.280   -0.121  0.089  0.110   -0.389  0.186 -0.429

 Mode:                28                     29                     30
 Frequency:      1134.50                1139.57                1185.93
 Force Cnst:     12.9050                12.6637                11.3213
 Red. Mass:      17.0177                16.5513                13.6625
 IR Active:          YES                    YES                    YES
 IR Intens:      520.362                398.838                743.063
 Raman Active:       YES                    YES                    YES
               X      Y      Z        X      Y      Z        X      Y      Z
 S         -0.208  0.121 -0.096    0.192 -0.139  0.082    0.018 -0.010  0.004
 C          0.186  0.035  0.044   -0.016 -0.022 -0.330   -0.060  0.007  0.145
 N          0.511  0.066  0.262    0.097  0.054 -0.011   -0.175 -0.028 -0.077
 O         -0.017 -0.273  0.128    0.027  0.378 -0.211    0.001  0.007  0.006
 O          0.223  0.067 -0.112   -0.365 -0.095  0.118    0.006 -0.002  0.010
 F         -0.054 -0.010  0.023   -0.086 -0.007  0.064    0.060  0.006 -0.039
 F         -0.061 -0.010 -0.063    0.092  0.007  0.110   -0.023 -0.002 -0.034
 S         -0.188 -0.186 -0.003   -0.177 -0.100 -0.014    0.075  0.096  0.002
 C          0.292  0.167  0.052    0.393 -0.235  0.108    0.750  0.383 -0.067
 O          0.014  0.160  0.235    0.055  0.137  0.205   -0.011 -0.102 -0.133
 O          0.130  0.101 -0.267    0.123  0.079 -0.214   -0.066 -0.070  0.151
 F         -0.032 -0.023  0.029   -0.007  0.048 -0.063   -0.089 -0.092  0.132
 F         -0.137 -0.022 -0.018   -0.177 -0.005 -0.025   -0.301 -0.051 -0.028
 F         -0.023 -0.048 -0.044   -0.021  0.062  0.035   -0.051 -0.091 -0.062
 TransDip  -0.660 -0.030 -0.312    0.286 -0.570 -0.047    0.754  0.416  0.145

 Mode:                31                     32                     33
 Frequency:      1191.83                1210.18                1236.60
 Force Cnst:     11.0877                11.7908                12.9539
 Red. Mass:      13.2484                13.6644                14.3778
 IR Active:          YES                    YES                    YES
 IR Intens:      400.937                401.546                 82.128
 Raman Active:       YES                    YES                    YES
               X      Y      Z        X      Y      Z        X      Y      Z
 S          0.015 -0.014  0.012    0.024 -0.073 -0.003    0.067 -0.014  0.086
 C          0.146  0.024  0.069    0.755  0.131  0.339    0.257 -0.005 -0.198
 N         -0.066 -0.011 -0.033   -0.006 -0.004 -0.013   -0.287 -0.005 -0.173
 O          0.001  0.026 -0.012    0.012  0.124 -0.053    0.001  0.044 -0.035
 O         -0.013 -0.002  0.009   -0.076 -0.003  0.043   -0.039 -0.011  0.014
 F         -0.037 -0.005  0.014   -0.202 -0.025  0.073   -0.146 -0.015  0.085
 F         -0.050 -0.007 -0.052   -0.254 -0.035 -0.261   -0.004 -0.001  0.018
 S          0.027  0.009 -0.049   -0.003  0.050  0.023    0.045 -0.167  0.056
 C         -0.057  0.189  0.870    0.044 -0.205 -0.132   -0.226  0.652 -0.196
 O          0.009 -0.013  0.009   -0.009 -0.054 -0.072    0.021  0.139  0.148
 O         -0.029 -0.005  0.048   -0.003 -0.011  0.023    0.077  0.097 -0.203
 F          0.069  0.089 -0.240   -0.003  0.014  0.006   -0.032 -0.124  0.159
 F         -0.020 -0.014 -0.054   -0.016  0.012  0.006    0.127 -0.035  0.027
 F         -0.013 -0.186 -0.219    0.003  0.077  0.070    0.008 -0.153 -0.089
 TransDip   0.180  0.135  0.600    0.605 -0.035  0.212    0.244  0.157 -0.003

 Mode:                34                     35                     36
 Frequency:      1248.08                1310.81                1326.08
 Force Cnst:     13.3578                20.6710                21.1611
 Red. Mass:      14.5545                20.4189                20.4245
 IR Active:          YES                    YES                    YES
 IR Intens:      112.547                257.091                637.652
 Raman Active:       YES                    YES                    YES
               X      Y      Z        X      Y      Z        X      Y      Z
 S          0.107 -0.098 -0.060   -0.273 -0.294  0.205   -0.171 -0.178  0.123
 C         -0.329  0.084  0.694   -0.029  0.012  0.029   -0.102 -0.000  0.019
 N          0.084  0.034  0.047    0.001  0.015 -0.001    0.015  0.011 -0.028
 O          0.004  0.167 -0.063    0.047  0.424 -0.218    0.035  0.251 -0.131
 O         -0.194 -0.047  0.073    0.483  0.150 -0.187    0.291  0.089 -0.115
 F          0.291  0.029 -0.190    0.021 -0.004 -0.016    0.046  0.003 -0.025
 F         -0.112 -0.022 -0.181    0.002 -0.000 -0.001    0.017  0.001  0.012
 S         -0.062 -0.108 -0.001    0.045 -0.056 -0.264   -0.067  0.067  0.442
 C         -0.142  0.172 -0.043   -0.002  0.003 -0.056   -0.008  0.009  0.088
 O          0.023  0.099  0.124    0.039  0.190  0.271   -0.056 -0.283 -0.414
 O          0.059  0.054 -0.121   -0.117 -0.085  0.250    0.192  0.153 -0.437
 F         -0.001 -0.029  0.034   -0.004 -0.012  0.021    0.007  0.018 -0.033
 F          0.067 -0.008  0.010    0.004 -0.000  0.004   -0.001 -0.000 -0.006
 F          0.007 -0.041 -0.025   -0.000  0.014  0.013    0.001 -0.025 -0.024
 TransDip  -0.252 -0.009  0.227   -0.305 -0.405 -0.084   -0.332 -0.109  0.729

 STANDARD THERMODYNAMIC QUANTITIES AT   298.15 K  AND     1.00 ATM

   This Molecule has  1 Imaginary Frequencies
   Zero point vibrational energy:       30.818 kcal/mol

   Atom    1 Element S  Has Mass   31.97207
   Atom    2 Element C  Has Mass   12.00000
   Atom    3 Element N  Has Mass   14.00307
   Atom    4 Element O  Has Mass   15.99491
   Atom    5 Element O  Has Mass   15.99491
   Atom    6 Element F  Has Mass   18.99840
   Atom    7 Element F  Has Mass   18.99840
   Atom    8 Element S  Has Mass   31.97207
   Atom    9 Element C  Has Mass   12.00000
   Atom   10 Element O  Has Mass   15.99491
   Atom   11 Element O  Has Mass   15.99491
   Atom   12 Element F  Has Mass   18.99840
   Atom   13 Element F  Has Mass   18.99840
   Atom   14 Element F  Has Mass   18.99840
   Molecular Mass:   260.918850 amu
   Principal axes and moments of inertia in amu*Bohr^2:
                             1           2           3
    Eigenvalues --     1834.00425  4464.30354  4975.45845
          X               0.80055    -0.32429    -0.50394
          Y              -0.04906     0.80264    -0.59445
          Z               0.59725     0.50061     0.62664
   Rotational Symmetry Number is   1
   The Molecule is an Asymmetric Top
   Translational Enthalpy:        0.889 kcal/mol
   Rotational Enthalpy:           0.889 kcal/mol
   Vibrational Enthalpy:         37.096 kcal/mol
   gas constant (RT):             0.592 kcal/mol
   Translational Entropy:        42.577  cal/mol.K
   Rotational Entropy:           32.077  cal/mol.K
   Vibrational Entropy:          41.425  cal/mol.K

   Total Enthalpy:               39.466 kcal/mol
   Total Entropy:               116.079  cal/mol.K
Archival summary:
1\1\nid01231\FREQ\ProcedureUnspecified\BasisUnspecified\25412(1-,2)\sblau\TueNov1320:08:522018TueNov1320:08:522018\0\\#,FREQ,ProcedureUnspecified,BasisUnspecified,\\-1,2\S\O,1,1.45123\O,1,1.45293,2,118.099\N,1,1.5934,2,111.445,3,138.995,0\S,4,1.58939,1,126.888,2,-120.11,0\O,5,1.44977,4,108.255,1,164.979,0\O,5,1.45618,4,114.701,1,30.5763,0\C,5,1.83269,4,104.127,1,-85.7218,0\F,8,1.31915,5,115.214,4,64.5702,0\F,8,1.32422,5,113.475,4,-166.948,0\C,1,1.86855,2,103.974,3,-115.652,0\F,11,1.32887,1,111.343,2,-55.6207,0\F,11,1.33018,1,110.974,2,-176.791,0\F,11,1.33357,1,108.993,2,63.9142,0\\\@

 Total job time:  3888.51s(wall), 13881.54s(cpu) 
 Tue Nov 13 20:08:52 2018

        *************************************************************
        *                                                           *
        *  Thank you very much for using Q-Chem.  Have a nice day.  *
        *                                                           *
        *************************************************************


