
Running Job 1 of 1 mol.qin
qchem mol.qin_53966.0 /tmp/qchem53966/ 1
/global/common/cori/software/qchem/5.1/exe/qcprog.exe mol.qin_53966.0 /tmp/qchem53966/
Check license passed

                  Welcome to Q-Chem
     A Quantum Leap Into The Future Of Chemistry


 Q-Chem 5.1, Q-Chem, Inc., Pleasanton, CA (2018)

 Yihan Shao,  Zhengting Gan,  E. Epifanovsky,  A. T. B. Gilbert,  M. Wormit,  
 J. Kussmann,  A. W. Lange,  A. Behn,  Jia Deng,  Xintian Feng,  D. Ghosh,  
 M. Goldey,  P. R. Horn,  L. D. Jacobson,  I. Kaliman,  T. Kus,  A. Landau,  
 Jie Liu,  E. I. Proynov,  R. M. Richard,  R. P. Steele,  E. J. Sundstrom,  
 H. L. Woodcock III,  P. M. Zimmerman,  D. Zuev,  B. Albrecht,  E. Alguire,  
 S. A. Baeppler,  D. Barton,  Z. Benda,  Y. A. Bernard,  E. J. Berquist,  
 K. B. Bravaya,  H. Burton,  D. Casanova,  Chun-Min Chang,  Yunqing Chen,  
 A. Chien,  K. D. Closser,  M. P. Coons,  S. Coriani,  S. Dasgupta,  
 A. L. Dempwolff,  M. Diedenhofen,  Hainam Do,  R. G. Edgar,  Po-Tung Fang,  
 S. Faraji,  S. Fatehi,  Qingguo Feng,  K. D. Fenk,  J. Fosso-Tande,  
 Qinghui Ge,  A. Ghysels,  G. Gidofalvi,  J. Gomes,  J. Gonthier,  A. Gunina,  
 D. Hait,  M. W. D. Hanson-Heine,  P. H. P. Harbach,  A. W. Hauser,  
 J. E. Herr,  E. G. Hohenstein,  Z. C. Holden,  Kerwin Hui,  B. C. Huynh,  
 T.-C. Jagau,  Hyunjun Ji,  B. Kaduk,  K. Khistyaev,  Jaehoon Kim,  
 P. Klunzinger,  K. Koh,  D. Kosenkov,  L. Koulias,  T. Kowalczyk,  
 C. M. Krauter,  A. Kunitsa,  Ka Un Lao,  A. Laurent,  K. V. Lawler,  
 Joonho Lee,  D. Lefrancois,  S. Lehtola,  D. S. Levine,  Yi-Pei Li,  
 You-Sheng Lin,  Fenglai Liu,  E. Livshits,  A. Luenser,  P. Manohar,  
 E. Mansoor,  S. F. Manzer,  Shan-Ping Mao,  Yuezhi Mao,  N. Mardirossian,  
 A. V. Marenich,  T. Markovich,  L. A. Martinez-Martinez,  S. A. Maurer,  
 N. J. Mayhall,  S. C. McKenzie,  J.-M. Mewes,  A. F. Morrison,  
 J. W. Mullinax,  K. Nanda,  T. S. Nguyen-Beck,  R. Olivares-Amaya,  
 J. A. Parkhill,  T. M. Perrine,  F. Plasser,  P. Pokhilko,  S. Prager,  
 A. Prociuk,  E. Ramos,  D. R. Rehn,  F. Rob,  M. Schneider,  N. Sergueev,  
 S. M. Sharada,  S. Sharma,  D. W. Small,  T. Stauch,  T. Stein,  
 Yu-Chuan Su,  A. J. W. Thom,  A. Tkatchenko,  T. Tsuchimochi,  N. M. Tubman,  
 L. Vogt,  M. L. Vidal,  O. Vydrov,  M. A. Watson,  J. Wenzel,  
 M. de Wergifosse,  T. A. Wesolowski,  A. White,  J. Witte,  A. Yamada,  
 Jun Yang,  K. Yao,  S. Yeganeh,  S. R. Yost,  Zhi-Qiang You,  A. Zech,  
 Igor Ying Zhang,  Xing Zhang,  Yan Zhao,  Ying Zhu,  B. R. Brooks,  
 G. K. L. Chan,  C. J. Cramer,  M. S. Gordon,  W. J. Hehre,  A. Klamt,  
 M. W. Schmidt,  C. D. Sherrill,  D. G. Truhlar,  A. Aspuru-Guzik,  R. Baer,  
 A. T. Bell,  N. A. Besley,  Jeng-Da Chai,  R. A. DiStasio Jr.,  A. Dreuw,  
 B. D. Dunietz,  T. R. Furlani,  Chao-Ping Hsu,  Yousung Jung,  Jing Kong,  
 D. S. Lambrecht,  WanZhen Liang,  C. Ochsenfeld,  V. A. Rassolov,  
 L. V. Slipchenko,  J. E. Subotnik,  T. Van Voorhis,  J. M. Herbert,  
 A. I. Krylov,  P. M. W. Gill,  M. Head-Gordon

 Contributors to earlier versions of Q-Chem not listed above: 
 R. D. Adamson,  B. Austin,  J. Baker,  G. J. O. Beran,  K. Brandhorst,  
 S. T. Brown,  E. F. C. Byrd,  A. K. Chakraborty,  C.-L. Cheng,  
 Siu Hung Chien,  D. M. Chipman,  D. L. Crittenden,  H. Dachsel,  
 R. J. Doerksen,  A. D. Dutoi,  L. Fusti-Molnar,  W. A. Goddard III,  
 A. Golubeva-Zadorozhnaya,  S. R. Gwaltney,  G. Hawkins,  A. Heyden,  
 S. Hirata,  G. Kedziora,  F. J. Keil,  C. Kelley,  Jihan Kim,  R. A. King,  
 R. Z. Khaliullin,  P. P. Korambath,  W. Kurlancheek,  A. M. Lee,  M. S. Lee,  
 S. V. Levchenko,  Ching Yeh Lin,  D. Liotard,  R. C. Lochan,  I. Lotan,  
 P. E. Maslen,  N. Nair,  D. P. O'Neill,  D. Neuhauser,  E. Neuscamman,  
 C. M. Oana,  R. Olson,  B. Peters,  R. Peverati,  P. A. Pieniazek,  
 Y. M. Rhee,  J. Ritchie,  M. A. Rohrdanz,  E. Rosta,  N. J. Russ,  
 H. F. Schaefer III,  N. E. Schultz,  N. Shenvi,  A. C. Simmonett,  A. Sodt,  
 D. Stuck,  K. S. Thanthiriwatte,  V. Vanovschi,  Tao Wang,  A. Warshel,  
 C. F. Williams,  Q. Wu,  X. Xu,  W. Zhang

 Please cite Q-Chem as follows:
 Y. Shao et al., Mol. Phys. 113, 184-215 (2015)
 DOI: 10.1080/00268976.2014.952696

 Q-Chem 5.1.0 for Intel X86 EM64T Linux

 Parts of Q-Chem use Armadillo 8.300.2 (Tropical Shenanigans).
 http://arma.sourceforge.net/

 Q-Chem begins on Tue Nov 13 21:50:19 2018  

Host: cori01
0

     Scratch files written to /tmp/qchem53966//
 Jun2518 |scratch|qcdevops|jenkins|workspace|build_RNUM -1
Processing $rem in /global/common/cori/software/qchem/5.1/config/preferences.
 MEM_TOTAL  96000 
Symmetry turned off for PCM/SM12/SMD calculation

Checking the input file for inconsistencies... 	...done.

--------------------------------------------------------------
User input:
--------------------------------------------------------------
$molecule
-1 2
S      1.1854559997      0.0012761046     -0.2164126437
C      0.7977549593      1.2875388306      1.0307693839
N      0.1235733902      0.2515479080     -1.3726490006
O      1.0629899584     -1.2851093533      0.4545363844
O      2.4913440325      0.3979010988     -0.7055700331
F     -0.3882459608      1.1818754198      1.5985834284
F      1.7370245173      1.4277686078      1.9537049564
S     -1.3575628794     -0.3301987731     -1.4516231048
C     -2.2577921251      1.2532028886     -1.8680135611
O     -1.5420864934     -1.1582468505     -2.6291937790
O     -1.9482343199     -0.7774447153     -0.2016128715
F     -1.8078818254      1.7820760252     -3.0010063902
F     -3.5566297731      0.9882827510     -2.0135171376
F     -2.1185529377      2.1496082868     -0.8950624379
$end

$rem
job_type = freq
basis = 6-311++g*
max_scf_cycles = 200
gen_scfman = true
scf_algorithm = gdm
method = wb97xd
geom_opt_max_cycles = 200
solvent_method = pcm
xc_grid = 3
$end

$pcm
heavypoints 194
hpoints 194
radii uff
theory cpcm
vdwscale 1.1
$end

$solvent
dielectric 3.0
$end
--------------------------------------------------------------
 ----------------------------------------------------------------
             Standard Nuclear Orientation (Angstroms)
    I     Atom           X                Y                Z
 ----------------------------------------------------------------
    1      S       1.1854559997     0.0012761046    -0.2164126437
    2      C       0.7977549593     1.2875388306     1.0307693839
    3      N       0.1235733902     0.2515479080    -1.3726490006
    4      O       1.0629899584    -1.2851093533     0.4545363844
    5      O       2.4913440325     0.3979010988    -0.7055700331
    6      F      -0.3882459608     1.1818754198     1.5985834284
    7      F       1.7370245173     1.4277686078     1.9537049564
    8      S      -1.3575628794    -0.3301987731    -1.4516231048
    9      C      -2.2577921251     1.2532028886    -1.8680135611
   10      O      -1.5420864934    -1.1582468505    -2.6291937790
   11      O      -1.9482343199    -0.7774447153    -0.2016128715
   12      F      -1.8078818254     1.7820760252    -3.0010063902
   13      F      -3.5566297731     0.9882827510    -2.0135171376
   14      F      -2.1185529377     2.1496082868    -0.8950624379
 ----------------------------------------------------------------
 Nuclear Repulsion Energy =  1406.0464069661 hartrees
 There are       65 alpha and       64 beta electrons
 Requested basis set is 6-311++G(d)
 There are 98 shells and 324 basis functions

 Total QAlloc Memory Limit  96000 MB
 Mega-Array Size       188 MB
 MEM_STATIC part       192 MB
 Discretize the solute cavity surface with Lebedev spheres
	Using 194 Lebedev grid points for each H atom
	Using 194 Lebedev grid points for other atoms
	Atomic van der Waals radii will be scaled by 1.10
 Remove points where switching function is < 1.0e-08
 Keep 1266 surface tesserae and discard 1450 interior tesserae
 Molecular Surface Area = 222.514 Angst**2

                       Distance Matrix (Angstroms)
             S (  1)   C (  2)   N (  3)   O (  4)   O (  5)   F (  6)
   C (  2)  1.833098
   N (  3)  1.589690  2.702632
   O (  4)  1.456008  2.649701  2.565624
   O (  5)  1.449803  2.583520  2.464295  2.493705
   F (  6)  2.676670  1.319157  3.155264  3.082360  3.770382
   F (  7)  2.654905  1.324274  3.879607  3.171992  2.949808  2.168721
   S (  8)  2.846501  3.663979  1.593245  3.225581  3.987582  3.539732
   C (  9)  4.018839  4.211946  2.630513  4.781722  4.963578  3.939237
   O ( 10)  3.821714  4.985184  2.518104  4.038800  4.731859  4.968060
   O ( 11)  3.229031  3.650121  2.592786  3.123416  4.620094  3.084349
   F ( 12)  4.459292  4.825881  2.953741  5.439697  5.066390  4.850962
   F ( 13)  5.166347  5.321457  3.807543  5.709684  6.215888  4.808680
   F ( 14)  3.999046  3.599562  2.976214  4.872465  4.935133  3.185709
             F (  7)   S (  8)   C (  9)   O ( 10)   O ( 11)   F ( 12)
   S (  8)  4.925767
   C (  9)  5.531235  1.868410
   O ( 10)  6.200242  1.451339  2.628064
   O ( 11)  4.805153  1.453082  2.645042  2.490605
   F ( 12)  6.102545  2.658022  1.328834  2.975633  3.795715
   F ( 13)  6.629840  2.624884  1.333542  3.007496  2.997954  2.159482
   F ( 14)  4.847887  2.652981  1.330250  3.779078  3.012892  2.160231
             F ( 13)
   F ( 14)  2.160482
 
 A cutoff of  1.0D-12 yielded   3777 shell pairs
 There are     43500 function pairs (     47026 Cartesian)
 
 -------------------------------------------------------
 OpenMP Integral Computing Module                       
 Release: version 1.0, May 2013, Q-Chem Inc. Pittsburgh 
 -------------------------------------------------------
 Integral Job Info:
 Integral job number is                      11
 Integral operator is                         1
 short-range coefficients              22203600
 long-range coefficients              100000000
 Omega coefficients                         200
 if combine SR and LR in K                    1
 Integral screening is                        0
 Integral computing path is                   2
 max size of driver memory is            800000
 size of driver memory is                593474
 size of scratch memory is              4293864
 max col of scratch BK array               1296
 max len of scratch array in speh3          155
 max len of scratch index in speh4           18
 max int batch size is                      520
 min int batch size is                       52
 fixed nKL is                                52
 max L of basis functions is                  2
 order of int derivative is                   0
 number of shells is                         98
 number of basis is                         338
 number of cartesian basis is               338
 number of contracted shell pairs          3777
 number of primitive shell pairs          10079
 maxK2 (contraction) of shell pair           36
 max number of K2 of shell pair               1
 max number of CS2 of shell pair            740
 max number of PS2 of shell pair           2514
 mem total for path MDJ                  603740
 -------------------------------------------------------
 Smallest overlap matrix eigenvalue = 4.93E-05
 Guess from superposition of atomic densities
 Warning:  Energy on first SCF cycle will be non-variational
 SAD guess density has 128.000000 electrons

 -----------------------------------------------------------------------
  General SCF calculation program by
  Eric Jon Sundstrom, Paul Horn, Yuezhi Mao, Dmitri Zuev, Alec White,
  David Stuck, Shaama M.S., Shane Yost, Joonho Lee, David Small,
  Daniel Levine, Susi Lehtola, Hugh Burton, Evgeny Epifanovsky
 -----------------------------------------------------------------------
 Exchange:     0.2220 Hartree-Fock + 1.0000 wB97X-D + LR-HF
 Correlation:  1.0000 wB97X-D
 Using SG-3 standard quadrature grid
 Dispersion:   Grimme D
 using 32 threads for integral computing
 -------------------------------------------------------
 OpenMP Integral computing Module                
 Release: version 1.0, May 2013, Q-Chem Inc. Pittsburgh 
 -------------------------------------------------------
 using 32 threads for integral computing
 -------------------------------------------------------
 OpenMP Integral computing Module                
 Release: version 1.0, May 2013, Q-Chem Inc. Pittsburgh 
 -------------------------------------------------------
 -------------------------------------------------------
 OpenMP BLAS3 based DFT computing Module                
 Release: version 1.0, May 2013, Q-Chem Inc. Pittsburgh 
 -------------------------------------------------------
 A unrestricted SCF calculation will be
 performed using Roothaan-Hall, GDM
 SCF converges when RMS gradient is below 1.0e-08
 ---------------------------------------
  Cycle       Energy         DIIS error
 ---------------------------------------
    1   -1730.7737571545      1.93e-02  Roothaan Step
 ---------------------------------------
  Cycle       Energy        RMS Gradient
 ---------------------------------------
    1   -1726.7089073678      1.97e-01   Descent step
    2   -1727.1531136381      6.26e-02   Descent step
    3   -1727.3299433984      2.08e-02   Normal BFGS step
    4   -1727.3480750207      9.94e-03   Normal BFGS step
    5   -1727.3495162528      8.83e-03   Normal BFGS step
    6   -1727.3510644056      3.47e-03   Normal BFGS step
    7   -1727.3511344878      1.85e-03   Normal BFGS step
    8   -1727.3511578378      3.70e-04   Normal BFGS step
    9   -1727.3511609772      3.01e-04   Normal BFGS step
   10   -1727.3511631029      1.48e-04   Normal BFGS step
   11   -1727.3511631971      7.27e-05   Normal BFGS step
   12   -1727.3511632768      1.62e-05   Normal BFGS step
   13   -1727.3511632811      6.43e-06   Normal BFGS step
   14   -1727.3511632828      1.65e-06   Normal BFGS step
   15   -1727.3511632829      1.51e-06   Normal BFGS step
   16   -1727.3511632830      3.63e-07   Normal BFGS step
   17   -1727.3511632830      2.19e-07   Normal BFGS step
   18   -1727.3511632830      9.47e-08   Normal BFGS step
   19   -1727.3511632830      4.61e-08   Normal BFGS step
   20   -1727.3511632830      1.14e-08   Normal BFGS step
   21   -1727.3511632830      6.43e-09  Convergence criterion met
 ---------------------------------------
 SCF time:   CPU 1652.88s  wall 91.00s 
<S^2> =          0.753262581

************** Final PCM Free Energy Summary **************
 G_electrostatic  =      -0.05102882 hartree =     -32.02106688 kcal/mol
 G_cavitation     =       0.00000000 hartree =       0.00000000 kcal/mol
 G_dispersion     =       0.00000000 hartree =       0.00000000 kcal/mol
 G_repulsion      =       0.00000000 hartree =       0.00000000 kcal/mol
 --------------------------------------------------
 Non-electrostatic Free Energy =       0.00000000 hartree =       0.00000000 kcal/mol
 Total                         =      -0.05102882 hartree =     -32.02106688 kcal/mol
 --------------------------------------------------
 SCF Energy (H0 + V/2)                       =   -1727.35116328 
 Solute Internal Energy (H0)                 =   -1727.30013446 
 Total Free Energy (H0 + V/2 + non-elec)     =   -1727.35116328 hartree
                                             = -1083929.21470293 kcal/mol
***********************************************************

 SCF   energy in the final basis set =    -1727.3511632830
 Total energy in the final basis set =    -1727.3511632830
 
 --------------------------------------------------------------
 
                    Orbital Energies (a.u.)
 --------------------------------------------------------------
 
 Alpha MOs
 -- Occupied --
-89.209 -89.208 -24.833 -24.833 -24.831 -24.831 -24.830 -19.216
-19.216 -19.215 -19.211 -14.404 -10.531 -10.450  -8.231  -8.230
 -6.179  -6.179  -6.179  -6.178  -6.178  -6.177  -1.421  -1.389
 -1.329  -1.328  -1.327  -1.213  -1.196  -1.089  -1.086  -0.992
 -0.838  -0.809  -0.760  -0.707  -0.683  -0.682  -0.668  -0.657
 -0.617  -0.599  -0.571  -0.557  -0.553  -0.542  -0.539  -0.534
 -0.526  -0.519  -0.515  -0.512  -0.506  -0.493  -0.459  -0.414
 -0.409  -0.405  -0.387  -0.382  -0.374  -0.364  -0.338  -0.329
 -0.295
 -- Virtual --
  0.102   0.111   0.120   0.128   0.140   0.140   0.146   0.148
  0.154   0.157   0.161   0.172   0.179   0.183   0.185   0.189
  0.199   0.202   0.214   0.214   0.234   0.239   0.257   0.264
  0.290   0.297   0.309   0.311   0.323   0.329   0.332   0.339
  0.347   0.347   0.352   0.357   0.362   0.371   0.372   0.377
  0.389   0.393   0.400   0.410   0.414   0.415   0.416   0.423
  0.425   0.431   0.437   0.446   0.452   0.460   0.461   0.470
  0.474   0.480   0.485   0.499   0.501   0.507   0.516   0.535
  0.538   0.550   0.562   0.568   0.587   0.601   0.603   0.618
  0.634   0.659   0.666   0.686   0.711   0.724   0.750   0.793
  0.824   0.862   0.918   0.931   0.935   0.956   0.967   1.008
  1.034   1.056   1.086   1.120   1.135   1.156   1.166   1.186
  1.196   1.213   1.241   1.246   1.254   1.259   1.270   1.278
  1.295   1.299   1.307   1.313   1.320   1.330   1.351   1.367
  1.370   1.410   1.418   1.461   1.486   1.503   1.508   1.519
  1.537   1.541   1.557   1.584   1.586   1.591   1.599   1.609
  1.626   1.660   1.677   1.733   1.756   1.776   1.819   1.841
  1.855   1.918   1.922   1.936   1.992   2.010   2.028   2.034
  2.048   2.075   2.078   2.103   2.140   2.167   2.241   2.296
  2.338   2.362   2.697   2.747   2.814   2.894   2.926   2.937
  2.942   2.953   2.962   2.967   2.980   2.985   3.016   3.043
  3.061   3.068   3.075   3.131   3.146   3.174   3.203   3.241
  3.281   3.298   3.598   3.606   3.730   3.740   3.811   3.848
  3.850   3.852   3.857   3.861   3.873   3.879   3.881   3.888
  3.912   3.915   3.971   3.985   4.079   4.102   4.107   4.164
  4.233   4.302   4.305   4.308   4.380   4.491   4.621   5.020
  5.042   5.043   5.154   5.161   5.169   5.195   5.210   5.220
  5.223   5.258   5.293   5.311   5.449   5.468   6.412   6.413
  6.419   6.454   6.465   6.483   6.489   6.507   6.524   6.533
  6.571   6.576   6.889   6.893   6.921   8.285   8.324  17.500
 17.532  17.561  17.613  17.658  17.681  23.631  23.658  35.603
 50.037  50.043  50.085  50.086  66.907  66.915  66.927  66.931
 66.971 189.513 189.554
 
 Beta MOs
 -- Occupied --
-89.209 -89.208 -24.831 -24.831 -24.830 -24.830 -24.830 -19.216
-19.215 -19.214 -19.211 -14.404 -10.531 -10.437  -8.231  -8.229
 -6.179  -6.179  -6.179  -6.178  -6.177  -6.177  -1.421  -1.380
 -1.329  -1.328  -1.319  -1.212  -1.195  -1.088  -1.083  -0.991
 -0.834  -0.797  -0.755  -0.703  -0.682  -0.682  -0.663  -0.649
 -0.598  -0.583  -0.568  -0.557  -0.553  -0.539  -0.535  -0.525
 -0.522  -0.516  -0.513  -0.510  -0.503  -0.493  -0.458  -0.412
 -0.407  -0.391  -0.382  -0.381  -0.372  -0.361  -0.336  -0.327
 -- Virtual --
  0.004   0.105   0.112   0.121   0.129   0.142   0.142   0.147
  0.149   0.156   0.158   0.162   0.174   0.181   0.183   0.187
  0.189   0.199   0.209   0.216   0.222   0.239   0.242   0.260
  0.268   0.292   0.300   0.312   0.317   0.324   0.329   0.333
  0.341   0.348   0.348   0.353   0.359   0.366   0.372   0.375
  0.379   0.391   0.394   0.401   0.410   0.414   0.415   0.416
  0.424   0.425   0.432   0.438   0.447   0.452   0.461   0.463
  0.470   0.475   0.480   0.487   0.500   0.503   0.507   0.517
  0.536   0.539   0.550   0.563   0.568   0.588   0.602   0.604
  0.618   0.636   0.659   0.668   0.687   0.716   0.732   0.756
  0.801   0.826   0.872   0.920   0.933   0.937   0.957   0.971
  1.010   1.041   1.057   1.086   1.122   1.136   1.157   1.167
  1.186   1.197   1.214   1.244   1.249   1.254   1.261   1.271
  1.279   1.297   1.301   1.311   1.316   1.320   1.333   1.353
  1.371   1.380   1.413   1.423   1.465   1.489   1.504   1.510
  1.520   1.537   1.544   1.560   1.584   1.587   1.599   1.608
  1.616   1.627   1.666   1.704   1.740   1.762   1.777   1.821
  1.856   1.863   1.922   1.932   1.940   1.993   2.013   2.033
  2.036   2.051   2.076   2.081   2.108   2.143   2.172   2.242
  2.297   2.339   2.364   2.697   2.752   2.863   2.895   2.931
  2.937   2.944   2.956   2.966   2.970   2.982   2.985   3.020
  3.046   3.063   3.070   3.080   3.139   3.149   3.184   3.203
  3.245   3.282   3.302   3.598   3.609   3.731   3.741   3.811
  3.848   3.852   3.857   3.860   3.867   3.878   3.880   3.883
  3.896   3.913   3.919   3.971   3.985   4.086   4.106   4.118
  4.165   4.233   4.305   4.307   4.308   4.380   4.491   4.628
  5.025   5.042   5.045   5.156   5.162   5.170   5.195   5.211
  5.221   5.225   5.259   5.295   5.311   5.450   5.468   6.413
  6.420   6.430   6.455   6.469   6.484   6.492   6.507   6.524
  6.533   6.574   6.577   6.889   6.893   6.927   8.285   8.325
 17.501  17.532  17.561  17.613  17.659  17.681  23.631  23.681
 35.603  50.038  50.043  50.085  50.086  66.909  66.917  66.927
 66.932  66.971 189.513 189.554
 --------------------------------------------------------------
 
          Ground-State Mulliken Net Atomic Charges

     Atom                 Charge (a.u.)    Spin (a.u.)
  --------------------------------------------------------
      1 S                     0.607984       0.014248
      2 C                    -0.236885       0.814522
      3 N                    -0.713482       0.006633
      4 O                    -0.154071       0.063274
      5 O                    -0.231016       0.006684
      6 F                    -0.009200       0.048830
      7 F                    -0.056156       0.045112
      8 S                     0.309843      -0.003571
      9 C                     0.008827       0.005194
     10 O                    -0.123744      -0.000982
     11 O                    -0.194916       0.000057
     12 F                    -0.055102       0.000227
     13 F                    -0.084418      -0.000083
     14 F                    -0.067664      -0.000145
  --------------------------------------------------------
  Sum of atomic charges =    -1.000000
  Sum of spin   charges =     1.000000

 -----------------------------------------------------------------
                    Cartesian Multipole Moments
 -----------------------------------------------------------------
    Charge (ESU x 10^10)
                -4.8032
    Dipole Moment (Debye)
         X      -0.2459      Y       2.8851      Z       4.4477
       Tot       5.3072
    Quadrupole Moments (Debye-Ang)
        XX    -114.1941     XY      -4.0657     YY     -99.6407
        XZ      -3.4598     YZ      -1.5259     ZZ    -108.6873
    Octopole Moments (Debye-Ang^2)
       XXX     113.5185    XXY     -31.4720    XYY      44.3154
       YYY     -93.2261    XXZ      82.5706    XYZ       8.4459
       YYZ      71.3351    XZZ      54.1020    YZZ     -26.0214
       ZZZ     234.5079
    Hexadecapole Moments (Debye-Ang^3)
      XXXX   -1866.8586   XXXY      79.3805   XXYY    -424.8674
      XYYY     102.9220   YYYY    -713.8738   XXXZ    -477.5615
      XXYZ       6.1584   XYYZ    -171.9417   YYYZ      33.8200
      XXZZ    -557.3926   XYZZ      11.8068   YYZZ    -371.7412
      XZZZ    -524.4597   YZZZ       3.2646   ZZZZ   -1476.8492
 -----------------------------------------------------------------
 Calculating MO derivatives via CPSCF
 Computing fast CPCM-SWIG hessian.
 D1JvT checksum  = 2033808 97859.2063688234
 D1KAT checksum  = 4983552 5722.8541230950
 D1JvT checksum  = 2033808 67310.7471304699
 D1KAT checksum  = 4983552 2673.5574919133
   1         3          42      0.150589    0.021043
   2         3          42      0.037156    0.005364
   3         3          42      0.006713    0.001281
   4         3          42      0.001369    0.000351
   5         4          41      0.000273    0.000073
   6        40           5      0.000032    0.000014
   7        42           3      0.000005    0.000003
   8        45           0      0.000000    0.000000    Roots Converged
 Time for AOints: 430.7 s (CPU) 37.6 s (wall)
 ------------------------------------------------------------------------------
                     AOints        : Timing summary (seconds)
 ------------------------------------------------------------------------------
     job step          cpu (% of tot)      sys (% of tot)     wall (% of tot)
 ------------------------------------------------------------------------------
  cpscf_lag         0.3761E+04 (38.7)   0.1970E-01 (56.6)   0.1054E+04 (44.6)
  iterzp            0.5538E+04 (56.9)   0.1332E-01 (38.3)   0.1273E+04 (53.8)
  make_fx           0.0000E+00 ( 0.0)   0.0000E+00 ( 0.0)   0.0000E+00 ( 0.0)
  AOints            0.4307E+03 ( 4.4)   0.1746E-02 ( 5.0)   0.3760E+02 ( 1.6)
 ------------------------------------------------------------------------------
   Grand Totals     0.9731E+04          0.3478E-01          0.2365E+04
 ------------------------------------------------------------------------------
 Calculating analytic Hessian of the SCF energy
 Polarizability Matrix (a.u.)
            1           2           3
    1-113.5449873  -2.9915592  -9.3994064
    2  -2.9915592 -96.8215407  -3.9372283
    3  -9.3994064  -3.9372283-102.6673432
atom: 0 element: 16
atom: 1 element: 6
atom: 2 element: 7
atom: 3 element: 8
atom: 4 element: 8
atom: 5 element: 9
atom: 6 element: 9
atom: 7 element: 16
atom: 8 element: 6
atom: 9 element: 8
atom: 10 element: 8
atom: 11 element: 9
atom: 12 element: 9
atom: 13 element: 9
 
 Direct stationary perturbation theory relativistic correction:
 
 rels  =       1.606013231308
 relv  =      -6.662083851162
 rel2e =       0.000000000000
 E_rel =      -5.056070619855
 
 Computing fast CPCM-SWIG hessian
 Hessian of the SCF Energy
            1           2           3           4           5           6
    1   0.7532597   0.1529372  -0.0897229  -0.0275901   0.0147085   0.0292831
    2   0.1529372   0.6579187  -0.2241480   0.0237490  -0.0920473  -0.0977376
    3  -0.0897229  -0.2241480   0.4912277   0.0208347  -0.0342160  -0.1175549
    4  -0.0275901   0.0237490   0.0208347   0.4408687   0.0270342  -0.0127001
    5   0.0147085  -0.0920473  -0.0342160   0.0270342   0.1145022   0.0637911
    6   0.0292831  -0.0977376  -0.1175549  -0.0127001   0.0637911   0.4316037
    7  -0.1545002   0.0225700  -0.1300358  -0.0132485   0.0112121   0.0081341
    8   0.0166482  -0.0395845   0.0269223  -0.0072071   0.0106806   0.0010200
    9  -0.1148202   0.0299381  -0.1631987  -0.0159875   0.0117543   0.0105130
   10  -0.0116903  -0.0377186   0.0183597  -0.0037712   0.0029593  -0.0017641
   11  -0.0494136  -0.4551343   0.2221478  -0.0050939  -0.0230120   0.0332669
   12   0.0269048   0.2173912  -0.1214660   0.0012496  -0.0118566  -0.0005869
   13  -0.4758592  -0.1446977   0.1902187  -0.0136008  -0.0137405  -0.0116749
   14  -0.1370667  -0.0664078   0.0474228   0.0083008   0.0050687  -0.0030610
   15   0.1815625   0.0462661  -0.0931619   0.0125687   0.0077955   0.0066823
   16  -0.0183073  -0.0136707  -0.0105334  -0.2497020  -0.0215511   0.1423594
   17   0.0165566   0.0037909  -0.0130293  -0.0349158  -0.0093863   0.0197249
   18   0.0176748   0.0220606   0.0121155   0.1368157  -0.0025418  -0.1184807
   19  -0.0117959   0.0032448   0.0066598  -0.1443792  -0.0169965  -0.1488436
   20  -0.0131786   0.0002930  -0.0191595  -0.0129980  -0.0054616  -0.0131566
   21  -0.0259402   0.0167133   0.0048254  -0.1384262  -0.0353134  -0.2088952
   22  -0.0889695   0.0072662  -0.0430154   0.0174749  -0.0073818  -0.0102384
   23  -0.0149241   0.0017883  -0.0223928   0.0019766  -0.0022034  -0.0059850
   24  -0.0341959  -0.0135934  -0.0105982  -0.0115771  -0.0002668  -0.0026277
   25  -0.0079194   0.0037389  -0.0003629  -0.0002350  -0.0008274  -0.0014720
   26   0.0093096   0.0034701   0.0160824  -0.0029542   0.0013657   0.0022041
   27  -0.0021567   0.0024364   0.0017372  -0.0038599  -0.0002733  -0.0006458
   28   0.0140939  -0.0115877   0.0099620  -0.0042051   0.0017849   0.0008549
   29   0.0075484  -0.0086891   0.0040316  -0.0015878   0.0013693   0.0005983
   30   0.0128300  -0.0055581   0.0092947   0.0001757   0.0007657   0.0010189
   31   0.0177487  -0.0033448   0.0155242  -0.0013038   0.0016271   0.0034699
   32   0.0072912  -0.0048105   0.0096536   0.0010825   0.0004818   0.0009744
   33  -0.0062811   0.0079687  -0.0153777   0.0068325  -0.0000491  -0.0018482
   34   0.0020898  -0.0003288   0.0011505  -0.0004002   0.0000523   0.0005185
   35  -0.0040237   0.0000864  -0.0040957  -0.0000976  -0.0005373  -0.0006487
   36   0.0037072  -0.0006082   0.0027371   0.0013647   0.0002928   0.0006227
   37   0.0061337  -0.0001458   0.0095753   0.0000217   0.0007137   0.0017943
   38  -0.0025117  -0.0006064  -0.0048886   0.0006990  -0.0003745  -0.0005599
   39   0.0010981  -0.0000116   0.0018865   0.0003836   0.0001670   0.0003154
   40   0.0033061  -0.0020120   0.0013854   0.0000709   0.0004052   0.0002789
   41  -0.0038811  -0.0000677  -0.0043308   0.0020122  -0.0004460  -0.0004308
   42   0.0000566  -0.0011175  -0.0024668   0.0023256  -0.0000494  -0.0001164
            7           8           9          10          11          12
    1  -0.1545002   0.0166482  -0.1148202  -0.0116903  -0.0494136   0.0269048
    2   0.0225700  -0.0395845   0.0299381  -0.0377186  -0.4551343   0.2173912
    3  -0.1300358   0.0269223  -0.1631987   0.0183597   0.2221478  -0.1214660
    4  -0.0132485  -0.0072071  -0.0159875  -0.0037712  -0.0050939   0.0012496
    5   0.0112121   0.0106806   0.0117543   0.0029593  -0.0230120  -0.0118566
    6   0.0081341   0.0010200   0.0105130  -0.0017641   0.0332669  -0.0005869
    7   0.5153906   0.0721580   0.2053030  -0.0073328   0.0055345  -0.0149253
    8   0.0721580   0.1062319  -0.0346356   0.0147583  -0.0022661   0.0178747
    9   0.2053030  -0.0346356   0.2377567  -0.0129446   0.0073063  -0.0169543
   10  -0.0073328   0.0147583  -0.0129446   0.0200351   0.0496239  -0.0230572
   11   0.0055345  -0.0022661   0.0073063   0.0496239   0.4835474  -0.2488848
   12  -0.0149253   0.0178747  -0.0169543  -0.0230572  -0.2488848   0.1395468
   13  -0.0359182  -0.0100581  -0.0030015  -0.0070012   0.0058395  -0.0020921
   14  -0.0015443   0.0013746   0.0020443  -0.0298775  -0.0081050   0.0168098
   15  -0.0230777  -0.0034139   0.0020777   0.0151835   0.0077892  -0.0011933
   16   0.0114689   0.0012982   0.0053941   0.0030742   0.0101851   0.0000455
   17  -0.0010081  -0.0010301  -0.0004564  -0.0019200   0.0057933   0.0011008
   18  -0.0076987  -0.0021417  -0.0044477  -0.0016618  -0.0088365  -0.0002116
   19  -0.0023972  -0.0019234  -0.0043099   0.0021229  -0.0073197   0.0002796
   20  -0.0051143  -0.0026147  -0.0054851   0.0018357   0.0029387   0.0026470
   21  -0.0110279  -0.0067897  -0.0123979   0.0033473  -0.0114920   0.0001450
   22  -0.2529612  -0.0728945  -0.0350575   0.0078795  -0.0164563   0.0209837
   23  -0.0661358  -0.0723388   0.0029961  -0.0003769  -0.0117527   0.0106275
   24  -0.0211100   0.0066314  -0.0507004   0.0081204   0.0006149  -0.0015382
   25   0.0041944   0.0020769  -0.0033781   0.0012043  -0.0008514   0.0006906
   26  -0.0372312   0.0036112  -0.0161805  -0.0014683   0.0018348  -0.0045194
   27   0.0055579  -0.0013935   0.0056327  -0.0000103  -0.0008701   0.0004075
   28  -0.0200937  -0.0154344  -0.0241182  -0.0007571   0.0024466  -0.0023749
   29  -0.0160478   0.0001090  -0.0130191  -0.0009178   0.0032763  -0.0020958
   30  -0.0054871  -0.0023379  -0.0102649  -0.0019834   0.0020131  -0.0019344
   31  -0.0259340  -0.0084097   0.0132926  -0.0020091   0.0026722  -0.0038206
   32  -0.0119736  -0.0045691   0.0033823   0.0012497   0.0039479  -0.0023641
   33   0.0021254  -0.0052529   0.0002095  -0.0029366  -0.0040256   0.0042980
   34   0.0005080   0.0018432  -0.0012804  -0.0002976   0.0002940  -0.0004862
   35   0.0089725  -0.0005879   0.0017135   0.0007258  -0.0002691   0.0007754
   36  -0.0068234   0.0008957  -0.0000799  -0.0006601   0.0004341  -0.0004829
   37  -0.0181473   0.0036642  -0.0092671  -0.0011300   0.0020382  -0.0030184
   38   0.0089446  -0.0001611   0.0048289   0.0003753  -0.0004116   0.0012562
   39  -0.0042388   0.0007040  -0.0016846  -0.0002398   0.0003774  -0.0006110
   40  -0.0010289   0.0034803   0.0001755  -0.0003267   0.0005011  -0.0003792
   41   0.0096634   0.0011449   0.0058128   0.0007512  -0.0003877   0.0012382
   42   0.0033043   0.0019171   0.0035386   0.0002470   0.0001592   0.0005814
           13          14          15          16          17          18
    1  -0.4758592  -0.1370667   0.1815625  -0.0183073   0.0165566   0.0176748
    2  -0.1446977  -0.0664078   0.0462661  -0.0136707   0.0037909   0.0220606
    3   0.1902187   0.0474228  -0.0931619  -0.0105334  -0.0130293   0.0121155
    4  -0.0136008   0.0083008   0.0125687  -0.2497020  -0.0349158   0.1368157
    5  -0.0137405   0.0050687   0.0077955  -0.0215511  -0.0093863  -0.0025418
    6  -0.0116749  -0.0030610   0.0066823   0.1423594   0.0197249  -0.1184807
    7  -0.0359182  -0.0015443  -0.0230777   0.0114689  -0.0010081  -0.0076987
    8  -0.0100581   0.0013746  -0.0034139   0.0012982  -0.0010301  -0.0021417
    9  -0.0030015   0.0020443   0.0020777   0.0053941  -0.0004564  -0.0044477
   10  -0.0070012  -0.0298775   0.0151835   0.0030742  -0.0019200  -0.0016618
   11   0.0058395  -0.0081050   0.0077892   0.0101851   0.0057933  -0.0088365
   12  -0.0020921   0.0168098  -0.0011933   0.0000455   0.0011008  -0.0002116
   13   0.5300527   0.1529826  -0.1908286  -0.0063417   0.0046070   0.0089207
   14   0.1529826   0.0672675  -0.0569777   0.0043015  -0.0018496  -0.0058765
   15  -0.1908286  -0.0569777   0.0955082   0.0088380  -0.0043115  -0.0088797
   16  -0.0063417   0.0043015   0.0088380   0.3415347   0.0274462  -0.1331688
   17   0.0046070  -0.0018496  -0.0043115   0.0274462  -0.0012384   0.0014395
   18   0.0089207  -0.0058765  -0.0088797  -0.1331688   0.0014395   0.0914660
   19   0.0081740   0.0011535  -0.0019969  -0.0774712  -0.0104711  -0.0225190
   20   0.0016662  -0.0012411  -0.0000867  -0.0075181   0.0045083  -0.0047345
   21   0.0074688  -0.0011942  -0.0034138  -0.0133103  -0.0041182   0.0288064
   22   0.0128568   0.0031880   0.0010167  -0.0089215  -0.0010489   0.0058732
   23   0.0104763   0.0043883   0.0050849  -0.0019616  -0.0007952   0.0012284
   24   0.0037956   0.0017575   0.0000322   0.0055169   0.0009522  -0.0012767
   25   0.0013899  -0.0006598  -0.0005599  -0.0000519   0.0002375   0.0005380
   26  -0.0060658  -0.0021185  -0.0023605   0.0023450  -0.0006599  -0.0014108
   27   0.0015664  -0.0001171  -0.0009163   0.0025665   0.0000522  -0.0002326
   28  -0.0031069   0.0006040   0.0003876   0.0021515   0.0000968  -0.0012752
   29  -0.0032621   0.0000571   0.0001842   0.0007278  -0.0000523  -0.0007003
   30  -0.0045922   0.0001025  -0.0000229  -0.0002542  -0.0005200  -0.0006959
   31  -0.0062654  -0.0007624  -0.0017829   0.0021247   0.0001649  -0.0019118
   32  -0.0029044   0.0000057  -0.0017506  -0.0000628   0.0003634  -0.0002513
   33   0.0026731  -0.0006159   0.0029850  -0.0043609  -0.0014183   0.0014691
   34  -0.0001737   0.0001150  -0.0001701   0.0003021  -0.0000057  -0.0001501
   35   0.0019286   0.0004901   0.0005057  -0.0000125   0.0001894   0.0003098
   36  -0.0020060  -0.0003259  -0.0001379  -0.0007792  -0.0001045  -0.0000280
   37  -0.0033502  -0.0008376  -0.0011935   0.0003392  -0.0000718  -0.0007996
   38   0.0013501   0.0005362   0.0006474  -0.0005372   0.0001114   0.0003709
   39  -0.0007976  -0.0002022  -0.0001747  -0.0001490   0.0000304  -0.0000303
   40  -0.0008561   0.0001029   0.0000526  -0.0001996   0.0003323  -0.0006375
   41   0.0018783   0.0005337   0.0006280  -0.0009900   0.0002550   0.0010840
   42   0.0003495   0.0002334   0.0006152  -0.0021647   0.0006581   0.0004261
           19          20          21          22          23          24
    1  -0.0117959  -0.0131786  -0.0259402  -0.0889695  -0.0149241  -0.0341959
    2   0.0032448   0.0002930   0.0167133   0.0072662   0.0017883  -0.0135934
    3   0.0066598  -0.0191595   0.0048254  -0.0430154  -0.0223928  -0.0105982
    4  -0.1443792  -0.0129980  -0.1384262   0.0174749   0.0019766  -0.0115771
    5  -0.0169965  -0.0054616  -0.0353134  -0.0073818  -0.0022034  -0.0002668
    6  -0.1488436  -0.0131566  -0.2088952  -0.0102384  -0.0059850  -0.0026277
    7  -0.0023972  -0.0051143  -0.0110279  -0.2529612  -0.0661358  -0.0211100
    8  -0.0019234  -0.0026147  -0.0067897  -0.0728945  -0.0723388   0.0066314
    9  -0.0043099  -0.0054851  -0.0123979  -0.0350575   0.0029961  -0.0507004
   10   0.0021229   0.0018357   0.0033473   0.0078795  -0.0003769   0.0081204
   11  -0.0073197   0.0029387  -0.0114920  -0.0164563  -0.0117527   0.0006149
   12   0.0002796   0.0026470   0.0001450   0.0209837   0.0106275  -0.0015382
   13   0.0081740   0.0016662   0.0074688   0.0128568   0.0104763   0.0037956
   14   0.0011535  -0.0012411  -0.0011942   0.0031880   0.0043883   0.0017575
   15  -0.0019969  -0.0000867  -0.0034138   0.0010167   0.0050849   0.0000322
   16  -0.0774712  -0.0075181  -0.0133103  -0.0089215  -0.0019616   0.0055169
   17  -0.0104711   0.0045083  -0.0041182  -0.0010489  -0.0007952   0.0009522
   18  -0.0225190  -0.0047345   0.0288064   0.0058732   0.0012284  -0.0012767
   19   0.2240591   0.0322403   0.1709745   0.0041526   0.0019157   0.0020797
   20   0.0322403   0.0010801   0.0410100   0.0055637   0.0019812  -0.0010646
   21   0.1709745   0.0410100   0.1918335   0.0140693   0.0049714   0.0005341
   22   0.0041526   0.0055637   0.0140693   0.5154605   0.1107464  -0.0780483
   23   0.0019157   0.0019812   0.0049714   0.1107464   0.5151660   0.0870529
   24   0.0020797  -0.0010646   0.0005341  -0.0780483   0.0870529   0.9620802
   25   0.0008814   0.0004286   0.0016666  -0.0611351   0.0798990  -0.0187643
   26  -0.0005006  -0.0008877  -0.0021800   0.0840985  -0.1562987   0.0374422
   27   0.0013145   0.0000303   0.0010799  -0.0213107   0.0379942  -0.0275153
   28  -0.0009682  -0.0015201  -0.0034275  -0.0259109  -0.0299933  -0.0612882
   29  -0.0009426  -0.0008977  -0.0021721  -0.0191888  -0.2160783  -0.2665388
   30  -0.0013602  -0.0006100  -0.0022742  -0.0481097  -0.2653219  -0.4014920
   31  -0.0011482  -0.0008115  -0.0029724  -0.1059436  -0.0659627   0.1981514
   32  -0.0009528  -0.0005335  -0.0014378  -0.0640116  -0.0746876   0.1602906
   33  -0.0008117   0.0006838   0.0009758   0.1862229   0.1564634  -0.4362078
   34  -0.0000366  -0.0000738  -0.0002197   0.0019215   0.0008796  -0.0032487
   35   0.0003948   0.0002497   0.0007788  -0.0206811   0.0059849   0.0203435
   36  -0.0006355  -0.0001690  -0.0007513   0.0186280  -0.0079033  -0.0177473
   37  -0.0008064  -0.0004032  -0.0016049  -0.0186504  -0.0284390   0.0030123
   38   0.0001293   0.0001975   0.0005385   0.0085883   0.0073893  -0.0004314
   39  -0.0002605  -0.0000562  -0.0003638  -0.0034994  -0.0057797  -0.0011152
   40  -0.0003870  -0.0001171  -0.0005975   0.0027465   0.0018998   0.0075560
   41   0.0000283   0.0003877   0.0006853  -0.0177883  -0.0025436  -0.0331902
   42  -0.0005708   0.0001513  -0.0001040  -0.0075145   0.0009640  -0.0118279
           25          26          27          28          29          30
    1  -0.0079194   0.0093096  -0.0021567   0.0140939   0.0075484   0.0128300
    2   0.0037389   0.0034701   0.0024364  -0.0115877  -0.0086891  -0.0055581
    3  -0.0003629   0.0160824   0.0017372   0.0099620   0.0040316   0.0092947
    4  -0.0002350  -0.0029542  -0.0038599  -0.0042051  -0.0015878   0.0001757
    5  -0.0008274   0.0013657  -0.0002733   0.0017849   0.0013693   0.0007657
    6  -0.0014720   0.0022041  -0.0006458   0.0008549   0.0005983   0.0010189
    7   0.0041944  -0.0372312   0.0055579  -0.0200937  -0.0160478  -0.0054871
    8   0.0020769   0.0036112  -0.0013935  -0.0154344   0.0001090  -0.0023379
    9  -0.0033781  -0.0161805   0.0056327  -0.0241182  -0.0130191  -0.0102649
   10   0.0012043  -0.0014683  -0.0000103  -0.0007571  -0.0009178  -0.0019834
   11  -0.0008514   0.0018348  -0.0008701   0.0024466   0.0032763   0.0020131
   12   0.0006906  -0.0045194   0.0004075  -0.0023749  -0.0020958  -0.0019344
   13   0.0013899  -0.0060658   0.0015664  -0.0031069  -0.0032621  -0.0045922
   14  -0.0006598  -0.0021185  -0.0001171   0.0006040   0.0000571   0.0001025
   15  -0.0005599  -0.0023605  -0.0009163   0.0003876   0.0001842  -0.0000229
   16  -0.0000519   0.0023450   0.0025665   0.0021515   0.0007278  -0.0002542
   17   0.0002375  -0.0006599   0.0000522   0.0000968  -0.0000523  -0.0005200
   18   0.0005380  -0.0014108  -0.0002326  -0.0012752  -0.0007003  -0.0006959
   19   0.0008814  -0.0005006   0.0013145  -0.0009682  -0.0009426  -0.0013602
   20   0.0004286  -0.0008877   0.0000303  -0.0015201  -0.0008977  -0.0006100
   21   0.0016666  -0.0021800   0.0010799  -0.0034275  -0.0021721  -0.0022742
   22  -0.0611351   0.0840985  -0.0213107  -0.0259109  -0.0191888  -0.0481097
   23   0.0798990  -0.1562987   0.0379942  -0.0299933  -0.2160783  -0.2653219
   24  -0.0187643   0.0374422  -0.0275153  -0.0612882  -0.2665388  -0.4014920
   25   0.4139974  -0.0035751  -0.0000805   0.0030344  -0.0181513  -0.0118119
   26  -0.0035751   0.4349952  -0.0037015  -0.0021024   0.0123748   0.0125632
   27  -0.0000805  -0.0037015   0.4271106   0.0048617  -0.0253803  -0.0127037
   28   0.0030344  -0.0021024   0.0048617   0.0301242   0.0444570   0.0603235
   29  -0.0181513   0.0123748  -0.0253803   0.0444570   0.2227898   0.2889367
   30  -0.0118119   0.0125632  -0.0127037   0.0603235   0.2889367   0.4321266
   31  -0.0064907   0.0019262  -0.0012697   0.0035440  -0.0077489  -0.0060493
   32  -0.0197319   0.0093930   0.0091180   0.0026984   0.0071606  -0.0212866
   33   0.0206879  -0.0196563  -0.0134322   0.0160804   0.0119813  -0.0242249
   34  -0.0538975  -0.0256926   0.0522307  -0.0001943   0.0011575  -0.0001823
   35  -0.0253706  -0.0956030   0.0959303   0.0026754  -0.0027134  -0.0037428
   36   0.0520153   0.0961802  -0.2015272  -0.0024530   0.0053884   0.0081659
   37  -0.2575115  -0.0143269  -0.0313573   0.0027342   0.0093144   0.0046209
   38  -0.0144315  -0.0420719  -0.0006810   0.0007382  -0.0017432   0.0003840
   39  -0.0309498  -0.0005857  -0.0377379   0.0005086   0.0040629   0.0029936
   40  -0.0374606  -0.0037622  -0.0080527  -0.0004459   0.0046422   0.0018804
   41  -0.0027819  -0.1694051  -0.1131447   0.0051367  -0.0169630  -0.0053879
   42  -0.0082189  -0.1138774  -0.1412569   0.0019583  -0.0052770   0.0000131
           31          32          33          34          35          36
    1   0.0177487   0.0072912  -0.0062811   0.0020898  -0.0040237   0.0037072
    2  -0.0033448  -0.0048105   0.0079687  -0.0003288   0.0000864  -0.0006082
    3   0.0155242   0.0096536  -0.0153777   0.0011505  -0.0040957   0.0027371
    4  -0.0013038   0.0010825   0.0068325  -0.0004002  -0.0000976   0.0013647
    5   0.0016271   0.0004818  -0.0000491   0.0000523  -0.0005373   0.0002928
    6   0.0034699   0.0009744  -0.0018482   0.0005185  -0.0006487   0.0006227
    7  -0.0259340  -0.0119736   0.0021254   0.0005080   0.0089725  -0.0068234
    8  -0.0084097  -0.0045691  -0.0052529   0.0018432  -0.0005879   0.0008957
    9   0.0132926   0.0033823   0.0002095  -0.0012804   0.0017135  -0.0000799
   10  -0.0020091   0.0012497  -0.0029366  -0.0002976   0.0007258  -0.0006601
   11   0.0026722   0.0039479  -0.0040256   0.0002940  -0.0002691   0.0004341
   12  -0.0038206  -0.0023641   0.0042980  -0.0004862   0.0007754  -0.0004829
   13  -0.0062654  -0.0029044   0.0026731  -0.0001737   0.0019286  -0.0020060
   14  -0.0007624   0.0000057  -0.0006159   0.0001150   0.0004901  -0.0003259
   15  -0.0017829  -0.0017506   0.0029850  -0.0001701   0.0005057  -0.0001379
   16   0.0021247  -0.0000628  -0.0043609   0.0003021  -0.0000125  -0.0007792
   17   0.0001649   0.0003634  -0.0014183  -0.0000057   0.0001894  -0.0001045
   18  -0.0019118  -0.0002513   0.0014691  -0.0001501   0.0003098  -0.0000280
   19  -0.0011482  -0.0009528  -0.0008117  -0.0000366   0.0003948  -0.0006355
   20  -0.0008115  -0.0005335   0.0006838  -0.0000738   0.0002497  -0.0001690
   21  -0.0029724  -0.0014378   0.0009758  -0.0002197   0.0007788  -0.0007513
   22  -0.1059436  -0.0640116   0.1862229   0.0019215  -0.0206811   0.0186280
   23  -0.0659627  -0.0746876   0.1564634   0.0008796   0.0059849  -0.0079033
   24   0.1981514   0.1602906  -0.4362078  -0.0032487   0.0203435  -0.0177473
   25  -0.0064907  -0.0197319   0.0206879  -0.0538975  -0.0253706   0.0520153
   26   0.0019262   0.0093930  -0.0196563  -0.0256926  -0.0956030   0.0961802
   27  -0.0012697   0.0091180  -0.0134322   0.0522307   0.0959303  -0.2015272
   28   0.0035440   0.0026984   0.0160804  -0.0001943   0.0026754  -0.0024530
   29  -0.0077489   0.0071606   0.0119813   0.0011575  -0.0027134   0.0053884
   30  -0.0060493  -0.0212866  -0.0242249  -0.0001823  -0.0037428   0.0081659
   31   0.1193617   0.0767218  -0.2093336   0.0007159   0.0017904  -0.0020874
   32   0.0767218   0.0772586  -0.1642318   0.0017527  -0.0106395   0.0096133
   33  -0.2093336  -0.1642318   0.4791047  -0.0018197   0.0096246  -0.0064701
   34   0.0007159   0.0017527  -0.0018197   0.0883812   0.0513740  -0.1053164
   35   0.0017904  -0.0106395   0.0096246   0.0513740   0.0879187  -0.1088556
   36  -0.0020874   0.0096133  -0.0064701  -0.1053164  -0.1088556   0.2963986
   37   0.0051463   0.0068081  -0.0063046  -0.0471665  -0.0240995   0.0321430
   38   0.0008761  -0.0015830   0.0008321  -0.0349002  -0.0017976   0.0128061
   39  -0.0004671  -0.0003056   0.0019367   0.0466811   0.0132580  -0.0027855
   40   0.0004534   0.0020327  -0.0027740   0.0082480   0.0064235   0.0129028
   41   0.0012614  -0.0017880   0.0076958   0.0035330   0.0172285  -0.0076441
   42  -0.0007433  -0.0014044   0.0065820   0.0122927  -0.0258969  -0.0779140
           37          38          39          40          41          42
    1   0.0061337  -0.0025117   0.0010981   0.0033061  -0.0038811   0.0000566
    2  -0.0001458  -0.0006064  -0.0000116  -0.0020120  -0.0000677  -0.0011175
    3   0.0095753  -0.0048886   0.0018865   0.0013854  -0.0043308  -0.0024668
    4   0.0000217   0.0006990   0.0003836   0.0000709   0.0020122   0.0023256
    5   0.0007137  -0.0003745   0.0001670   0.0004052  -0.0004460  -0.0000494
    6   0.0017943  -0.0005599   0.0003154   0.0002789  -0.0004308  -0.0001164
    7  -0.0181473   0.0089446  -0.0042388  -0.0010289   0.0096634   0.0033043
    8   0.0036642  -0.0001611   0.0007040   0.0034803   0.0011449   0.0019171
    9  -0.0092671   0.0048289  -0.0016846   0.0001755   0.0058128   0.0035386
   10  -0.0011300   0.0003753  -0.0002398  -0.0003267   0.0007512   0.0002470
   11   0.0020382  -0.0004116   0.0003774   0.0005011  -0.0003877   0.0001592
   12  -0.0030184   0.0012562  -0.0006110  -0.0003792   0.0012382   0.0005814
   13  -0.0033502   0.0013501  -0.0007976  -0.0008561   0.0018783   0.0003495
   14  -0.0008376   0.0005362  -0.0002022   0.0001029   0.0005337   0.0002334
   15  -0.0011935   0.0006474  -0.0001747   0.0000526   0.0006280   0.0006152
   16   0.0003392  -0.0005372  -0.0001490  -0.0001996  -0.0009900  -0.0021647
   17  -0.0000718   0.0001114   0.0000304   0.0003323   0.0002550   0.0006581
   18  -0.0007996   0.0003709  -0.0000303  -0.0006375   0.0010840   0.0004261
   19  -0.0008064   0.0001293  -0.0002605  -0.0003870   0.0000283  -0.0005708
   20  -0.0004032   0.0001975  -0.0000562  -0.0001171   0.0003877   0.0001513
   21  -0.0016049   0.0005385  -0.0003638  -0.0005975   0.0006853  -0.0001040
   22  -0.0186504   0.0085883  -0.0034994   0.0027465  -0.0177883  -0.0075145
   23  -0.0284390   0.0073893  -0.0057797   0.0018998  -0.0025436   0.0009640
   24   0.0030123  -0.0004314  -0.0011152   0.0075560  -0.0331902  -0.0118279
   25  -0.2575115  -0.0144315  -0.0309498  -0.0374606  -0.0027819  -0.0082189
   26  -0.0143269  -0.0420719  -0.0005857  -0.0037622  -0.1694051  -0.1138774
   27  -0.0313573  -0.0006810  -0.0377379  -0.0080527  -0.1131447  -0.1412569
   28   0.0027342   0.0007382   0.0005086  -0.0004459   0.0051367   0.0019583
   29   0.0093144  -0.0017432   0.0040629   0.0046422  -0.0169630  -0.0052770
   30   0.0046209   0.0003840   0.0029936   0.0018804  -0.0053879   0.0000131
   31   0.0051463   0.0008761  -0.0004671   0.0004534   0.0012614  -0.0007433
   32   0.0068081  -0.0015830  -0.0003056   0.0020327  -0.0017880  -0.0014044
   33  -0.0063046   0.0008321   0.0019367  -0.0027740   0.0076958   0.0065820
   34  -0.0471665  -0.0349002   0.0466811   0.0082480   0.0035330   0.0122927
   35  -0.0240995  -0.0017976   0.0132580   0.0064235   0.0172285  -0.0258969
   36   0.0321430   0.0128061  -0.0027855   0.0129028  -0.0076441  -0.0779140
   37   0.3572009   0.0756182   0.0329086  -0.0248137  -0.0298330  -0.0305090
   38   0.0756182   0.0543500   0.0097687  -0.0449385  -0.0138351  -0.0248721
   39   0.0329086   0.0097687   0.0498934  -0.0409779  -0.0214274  -0.0125226
   40  -0.0248137  -0.0449385  -0.0409779   0.0506937   0.0310096   0.0291873
   41  -0.0298330  -0.0138351  -0.0214274   0.0310096   0.1858864   0.1684118
   42  -0.0305090  -0.0248721  -0.0125226   0.0291873   0.1684118   0.2344520
 Gradient time:  CPU 12148.25 s  wall 3783.87 s
 **********************************************************************
 **                                                                  **
 **                       VIBRATIONAL ANALYSIS                       **
 **                       --------------------                       **
 **                                                                  **
 **        VIBRATIONAL FREQUENCIES (CM**-1) AND NORMAL MODES         **
 **     FORCE CONSTANTS (mDYN/ANGSTROM) AND REDUCED MASSES (AMU)     **
 **                  INFRARED INTENSITIES (KM/MOL)                   **
 **                                                                  **
 **********************************************************************
 

 Mode:                 1                      2                      3
 Frequency:       -10.98                  34.31                  47.61
 Force Cnst:      0.0012                 0.0124                 0.0250
 Red. Mass:      17.4244                17.8947                18.7172
 IR Active:          YES                    YES                    YES
 IR Intens:        0.217                  0.592                  0.156
 Raman Active:       YES                    YES                    YES
               X      Y      Z        X      Y      Z        X      Y      Z
 S         -0.021 -0.051  0.010    0.027  0.055 -0.049    0.035  0.004  0.003
 C         -0.218  0.077 -0.176   -0.166 -0.128  0.088    0.100  0.055 -0.034
 N          0.094 -0.289 -0.153    0.017 -0.019 -0.057    0.059  0.059 -0.011
 O         -0.001  0.030  0.164    0.214 -0.028 -0.172   -0.058  0.029  0.034
 O         -0.005 -0.027  0.073   -0.030  0.298 -0.004    0.076 -0.104  0.025
 F         -0.184 -0.055 -0.130   -0.143 -0.351  0.088   -0.124  0.467 -0.426
 F         -0.221  0.378 -0.220   -0.177 -0.096  0.095   -0.145 -0.382  0.283
 S          0.019 -0.099 -0.090   -0.007  0.023  0.061    0.073  0.011 -0.036
 C          0.122  0.024  0.154    0.060  0.027 -0.066   -0.032 -0.019  0.065
 O         -0.135  0.063 -0.178   -0.099 -0.098  0.161    0.107  0.076 -0.086
 O          0.069 -0.186 -0.098    0.034  0.186  0.139    0.103 -0.094 -0.060
 F          0.051  0.076  0.150   -0.116 -0.242 -0.262   -0.275 -0.078 -0.060
 F          0.077  0.178  0.280    0.003  0.132  0.251   -0.055 -0.065  0.344
 F          0.332 -0.073  0.216    0.352  0.202 -0.269    0.138  0.045 -0.023
 TransDip  -0.003  0.011  0.009   -0.015 -0.019 -0.005   -0.009  0.008  0.005

 Mode:                 4                      5                      6
 Frequency:        57.79                 112.53                 156.79
 Force Cnst:      0.0358                 0.1333                 0.2555
 Red. Mass:      18.1913                17.8630                17.6396
 IR Active:          YES                    YES                    YES
 IR Intens:        0.149                  0.193                  3.891
 Raman Active:       YES                    YES                    YES
               X      Y      Z        X      Y      Z        X      Y      Z
 S         -0.065 -0.022  0.109    0.064 -0.125 -0.012    0.192 -0.124  0.092
 C          0.060  0.021  0.105   -0.087 -0.089 -0.111    0.108 -0.061 -0.042
 N         -0.005  0.136  0.082    0.214  0.073 -0.151   -0.069 -0.081  0.343
 O         -0.263 -0.012  0.090   -0.204 -0.144 -0.102    0.436 -0.112  0.165
 O          0.002 -0.180  0.163    0.192 -0.291  0.200    0.087 -0.110 -0.182
 F          0.187 -0.088  0.356   -0.099 -0.219 -0.166    0.004 -0.177 -0.275
 F          0.232  0.201 -0.098   -0.156  0.190 -0.092   -0.090  0.240  0.102
 S          0.047  0.034 -0.132    0.152  0.164  0.047   -0.075  0.049  0.073
 C         -0.068 -0.011 -0.063   -0.049  0.046  0.011   -0.074  0.080  0.006
 O          0.229  0.132 -0.231   -0.009  0.051  0.152    0.073  0.240 -0.089
 O         -0.050 -0.126 -0.234    0.300  0.330  0.175   -0.329 -0.126 -0.107
 F         -0.346 -0.097 -0.215   -0.180  0.126 -0.003   -0.073 -0.022 -0.043
 F         -0.095 -0.061  0.259    0.004 -0.243  0.031   -0.065  0.012 -0.008
 F          0.131  0.075 -0.172   -0.242  0.100 -0.011   -0.167  0.213 -0.104
 TransDip   0.010  0.004  0.006    0.009  0.009 -0.004    0.043  0.015  0.044

 Mode:                 7                      8                      9
 Frequency:       176.59                 198.36                 203.43
 Force Cnst:      0.2977                 0.3993                 0.4219
 Red. Mass:      16.2034                17.2251                17.3035
 IR Active:          YES                    YES                    YES
 IR Intens:        0.517                  4.948                  1.252
 Raman Active:       YES                    YES                    YES
               X      Y      Z        X      Y      Z        X      Y      Z
 S         -0.044  0.013 -0.066   -0.023 -0.159  0.056    0.033 -0.095  0.052
 C          0.021 -0.028 -0.047   -0.057 -0.121  0.028   -0.007 -0.060  0.011
 N         -0.198  0.464  0.225    0.007 -0.036  0.035    0.019 -0.124  0.054
 O         -0.244 -0.135 -0.389    0.185 -0.436 -0.443    0.231 -0.196 -0.098
 O         -0.015 -0.118 -0.089   -0.040  0.212  0.297   -0.008  0.117  0.106
 F         -0.042 -0.049 -0.181   -0.045  0.413  0.137   -0.011  0.182  0.032
 F         -0.093  0.226  0.018    0.033  0.131 -0.113    0.014  0.056 -0.030
 S          0.001 -0.018  0.099   -0.005  0.002  0.028   -0.005 -0.014 -0.094
 C          0.039 -0.037  0.060   -0.008  0.009  0.044    0.015  0.008 -0.118
 O          0.385 -0.163  0.140   -0.148  0.188 -0.081    0.182 -0.331  0.100
 O         -0.120 -0.111  0.011    0.126 -0.173  0.030   -0.359  0.410 -0.101
 F          0.144 -0.098  0.076    0.083 -0.140  0.008   -0.261  0.376 -0.051
 F          0.008  0.151  0.050    0.000 -0.007 -0.013    0.007 -0.048  0.029
 F          0.158 -0.079  0.083   -0.091  0.139 -0.067    0.146 -0.259  0.112
 TransDip   0.018 -0.002  0.015   -0.020 -0.021  0.065    0.006 -0.008 -0.034

 Mode:                10                     11                     12
 Frequency:       273.64                 286.07                 307.84
 Force Cnst:      0.7827                 0.8374                 0.9564
 Red. Mass:      17.7417                17.3677                17.1299
 IR Active:          YES                    YES                    YES
 IR Intens:        3.515                  3.631                  1.725
 Raman Active:       YES                    YES                    YES
               X      Y      Z        X      Y      Z        X      Y      Z
 S          0.066 -0.038  0.029    0.028 -0.015 -0.061    0.108  0.119  0.017
 C          0.075  0.018  0.080    0.161  0.101  0.242    0.201  0.045 -0.037
 N          0.047 -0.004 -0.054   -0.018 -0.001 -0.060    0.066 -0.043 -0.068
 O          0.108 -0.041  0.033   -0.070 -0.064 -0.179   -0.162  0.063 -0.142
 O          0.100 -0.102  0.053   -0.013 -0.160 -0.287    0.291  0.161  0.510
 F          0.049  0.006  0.019    0.106  0.059  0.126    0.140 -0.157 -0.260
 F         -0.025  0.115  0.181   -0.114  0.324  0.528    0.122  0.017  0.061
 S          0.026 -0.088 -0.038   -0.050  0.016 -0.067   -0.086  0.011 -0.020
 C         -0.242  0.039 -0.122    0.087 -0.073 -0.052   -0.075 -0.110  0.019
 O         -0.007 -0.212  0.052   -0.396  0.104 -0.082   -0.238  0.109 -0.072
 O          0.390 -0.176  0.099    0.046  0.079 -0.001   -0.297  0.134 -0.074
 F         -0.204  0.075 -0.102   -0.002  0.019 -0.046    0.038 -0.268  0.005
 F         -0.352  0.561 -0.219    0.115 -0.209 -0.023   -0.120  0.090 -0.023
 F         -0.049 -0.131  0.004    0.153 -0.176  0.019   -0.004 -0.221  0.097
 TransDip  -0.058 -0.001 -0.016    0.056 -0.007  0.023    0.039  0.014 -0.005

 Mode:                13                     14                     15
 Frequency:       328.45                 340.65                 393.47
 Force Cnst:      1.1235                 1.1812                 1.5728
 Red. Mass:      17.6764                17.2765                17.2422
 IR Active:          YES                    YES                    YES
 IR Intens:        3.847                  0.774                  7.783
 Raman Active:       YES                    YES                    YES
               X      Y      Z        X      Y      Z        X      Y      Z
 S          0.015  0.067  0.008    0.054 -0.001 -0.134    0.177  0.103 -0.135
 C          0.138  0.033 -0.004    0.011  0.089  0.085   -0.273  0.140 -0.040
 N         -0.056 -0.008  0.035    0.181 -0.309 -0.318   -0.029  0.224  0.025
 O         -0.176  0.031 -0.102   -0.096  0.024 -0.118    0.212  0.136 -0.085
 O          0.076  0.134  0.217    0.101 -0.052 -0.060    0.438 -0.415  0.108
 F          0.094 -0.095 -0.155    0.042  0.074  0.176   -0.147  0.127  0.337
 F          0.075  0.037  0.073   -0.084  0.084  0.206   -0.168 -0.133 -0.149
 S         -0.042 -0.174  0.041    0.035 -0.097 -0.084   -0.046  0.009  0.053
 C          0.104  0.149 -0.045   -0.051  0.066  0.146    0.008 -0.001 -0.015
 O         -0.233 -0.301  0.151    0.241 -0.273  0.005   -0.172 -0.015  0.087
 O         -0.034 -0.432 -0.044   -0.235  0.095 -0.147   -0.194 -0.173 -0.073
 F         -0.104  0.437 -0.017    0.161 -0.132  0.155   -0.036  0.020 -0.023
 F          0.166 -0.144  0.002   -0.073  0.117  0.211    0.021 -0.026 -0.047
 F          0.013  0.315 -0.167   -0.314  0.325 -0.022    0.059 -0.039  0.006
 TransDip   0.062  0.012  0.002    0.002  0.007 -0.027    0.026  0.065 -0.056

 Mode:                16                     17                     18
 Frequency:       427.10                 502.46                 538.47
 Force Cnst:      1.9143                 2.7573                 3.1572
 Red. Mass:      17.8115                18.5362                18.4811
 IR Active:          YES                    YES                    YES
 IR Intens:       14.294                179.836                 87.002
 Raman Active:       YES                    YES                    YES
               X      Y      Z        X      Y      Z        X      Y      Z
 S          0.066  0.011 -0.090    0.206 -0.071  0.118   -0.181 -0.112 -0.137
 C         -0.033  0.039 -0.013   -0.072 -0.166  0.041    0.107 -0.086 -0.039
 N          0.165 -0.453 -0.136    0.199  0.101  0.081    0.097  0.148 -0.403
 O         -0.282  0.021 -0.147   -0.313 -0.049  0.063    0.233  0.005  0.186
 O          0.036  0.103 -0.104   -0.041  0.235 -0.303   -0.112  0.003  0.181
 F         -0.003  0.036  0.083   -0.106  0.063  0.041    0.124 -0.004 -0.028
 F         -0.053 -0.014  0.011    0.006 -0.016 -0.091   -0.026  0.068  0.108
 S          0.010 -0.027  0.313    0.251  0.105  0.007   -0.086  0.267  0.000
 C         -0.004 -0.011 -0.015    0.112  0.037 -0.001   -0.020  0.144  0.141
 O          0.307  0.369  0.019   -0.300 -0.097  0.232    0.087 -0.101  0.277
 O         -0.180 -0.164  0.193   -0.158 -0.151 -0.281   -0.063 -0.237 -0.188
 F         -0.244  0.082 -0.068   -0.099 -0.135 -0.212   -0.165 -0.212 -0.005
 F          0.011  0.014 -0.267    0.134  0.169  0.017    0.124 -0.086 -0.241
 F          0.162 -0.052  0.015   -0.194 -0.080  0.193    0.144  0.104  0.246
 TransDip   0.046  0.002  0.112    0.400  0.013  0.155   -0.247  0.113 -0.124

 Mode:                19                     20                     21
 Frequency:       551.93                 560.37                 569.71
 Force Cnst:      3.2819                 3.4429                 3.4705
 Red. Mass:      18.2852                18.6086                18.1487
 IR Active:          YES                    YES                    YES
 IR Intens:       46.447                 91.748                 62.476
 Raman Active:       YES                    YES                    YES
               X      Y      Z        X      Y      Z        X      Y      Z
 S         -0.196  0.214  0.131    0.006  0.155  0.215   -0.088  0.059  0.047
 C         -0.019  0.302  0.116   -0.064 -0.009  0.264    0.005 -0.015  0.143
 N         -0.020 -0.209  0.006    0.147 -0.049 -0.067    0.171 -0.113 -0.264
 O          0.221 -0.016 -0.282    0.035 -0.032 -0.164    0.109 -0.007 -0.061
 O         -0.108 -0.322  0.028   -0.054 -0.167 -0.161   -0.077 -0.113 -0.008
 F         -0.090 -0.097 -0.111   -0.282 -0.027 -0.109   -0.122 -0.022 -0.073
 F          0.167 -0.028 -0.002    0.282  0.015 -0.051    0.163  0.035  0.017
 S          0.037 -0.067  0.017    0.136  0.015 -0.051   -0.009  0.234  0.111
 C          0.222  0.095  0.015   -0.176 -0.089  0.186   -0.086 -0.041 -0.277
 O          0.029  0.010 -0.029   -0.112 -0.078  0.043    0.033  0.078  0.265
 O          0.016  0.013  0.035   -0.070  0.044 -0.140   -0.074 -0.269 -0.101
 F         -0.151 -0.098 -0.299   -0.100 -0.075  0.369    0.323  0.209 -0.098
 F          0.332  0.141  0.024   -0.218 -0.106 -0.285   -0.197 -0.029  0.320
 F         -0.235  0.005  0.263    0.294  0.201 -0.080   -0.069 -0.306 -0.234
 TransDip  -0.055  0.154  0.145    0.122  0.128  0.251   -0.085  0.218  0.096

 Mode:                22                     23                     24
 Frequency:       593.83                 639.89                 690.83
 Force Cnst:      3.2688                 4.4834                 4.3264
 Red. Mass:      15.7329                18.5840                15.3866
 IR Active:          YES                    YES                    YES
 IR Intens:       61.675                147.652                 16.161
 Raman Active:       YES                    YES                    YES
               X      Y      Z        X      Y      Z        X      Y      Z
 S         -0.037  0.001  0.160   -0.144 -0.024  0.010    0.084 -0.247 -0.090
 C         -0.008  0.625 -0.330    0.050 -0.061 -0.062   -0.113  0.746  0.098
 N          0.027 -0.120  0.120    0.188  0.457 -0.364    0.005  0.220 -0.131
 O          0.012 -0.154 -0.141    0.180 -0.020  0.089   -0.040 -0.198  0.131
 O         -0.128  0.002 -0.028   -0.176 -0.056  0.041    0.034  0.163 -0.008
 F          0.363 -0.095  0.054    0.138 -0.001 -0.016   -0.278 -0.105 -0.022
 F         -0.317 -0.164 -0.041   -0.084  0.010  0.019    0.288 -0.041  0.071
 S          0.126  0.116 -0.015    0.278 -0.284  0.165   -0.061 -0.034  0.015
 C         -0.074 -0.040  0.006    0.098 -0.218  0.021    0.011  0.009 -0.002
 O         -0.062 -0.027  0.129   -0.145  0.180 -0.102    0.031  0.009 -0.053
 O          0.007 -0.038 -0.141   -0.309  0.072  0.068   -0.031 -0.001  0.070
 F          0.030 -0.006  0.091   -0.077  0.089  0.080    0.001  0.006 -0.013
 F         -0.117 -0.027 -0.027    0.018  0.141  0.008    0.019 -0.001  0.006
 F          0.067 -0.003 -0.054   -0.074 -0.029 -0.173   -0.004 -0.003  0.003
 TransDip   0.142  0.165  0.126    0.184 -0.305  0.156   -0.012 -0.127 -0.017

 Mode:                25                     26                     27
 Frequency:       741.72                 776.92                1071.48
 Force Cnst:      6.3757                 7.0393                 9.9798
 Red. Mass:      19.6694                19.7935                14.7537
 IR Active:          YES                    YES                    YES
 IR Intens:      107.237                 32.808                365.405
 Raman Active:       YES                    YES                    YES
               X      Y      Z        X      Y      Z        X      Y      Z
 S          0.150  0.093  0.361    0.091  0.041  0.163   -0.019 -0.068 -0.071
 C         -0.009 -0.054 -0.032   -0.005 -0.017 -0.002    0.043  0.015 -0.179
 N          0.244  0.272 -0.416    0.051  0.032 -0.170    0.568  0.054  0.320
 O         -0.042 -0.159 -0.019   -0.037 -0.077 -0.007    0.025  0.227 -0.127
 O          0.026  0.007 -0.190    0.053  0.017 -0.083   -0.229 -0.055  0.059
 F          0.111  0.010 -0.000    0.034  0.004  0.002   -0.069 -0.011  0.041
 F         -0.132 -0.050 -0.100   -0.048 -0.021 -0.044    0.041  0.002  0.049
 S         -0.279 -0.083 -0.017   -0.276  0.146 -0.068   -0.006  0.070 -0.020
 C         -0.089  0.230 -0.060    0.171 -0.262  0.071   -0.170  0.359 -0.067
 O          0.088 -0.079 -0.187    0.091 -0.050  0.004   -0.067 -0.182 -0.243
 O         -0.047 -0.051  0.234    0.066 -0.052  0.036   -0.118 -0.090  0.254
 F          0.134  0.014 -0.218   -0.261 -0.054  0.382   -0.023 -0.071  0.097
 F         -0.100 -0.153  0.013    0.442  0.236  0.023    0.081 -0.008  0.012
 F          0.066  0.088  0.227   -0.144 -0.189 -0.399    0.002 -0.106 -0.079
 TransDip  -0.145  0.102  0.281   -0.119  0.087  0.109   -0.391  0.188 -0.432

 Mode:                28                     29                     30
 Frequency:      1134.29                1139.56                1185.96
 Force Cnst:     12.9053                12.6696                11.3185
 Red. Mass:      17.0243                16.5591                13.6584
 IR Active:          YES                    YES                    YES
 IR Intens:      521.199                398.296                749.988
 Raman Active:       YES                    YES                    YES
               X      Y      Z        X      Y      Z        X      Y      Z
 S         -0.208  0.120 -0.094    0.193 -0.140  0.081    0.018 -0.010  0.004
 C          0.187  0.035  0.043   -0.018 -0.020 -0.332   -0.059  0.007  0.146
 N          0.512  0.067  0.261    0.097  0.054 -0.011   -0.175 -0.029 -0.077
 O         -0.017 -0.273  0.126    0.027  0.380 -0.210    0.001  0.007  0.006
 O          0.222  0.067 -0.112   -0.367 -0.096  0.119    0.006 -0.002  0.010
 F         -0.055 -0.010  0.023   -0.087 -0.007  0.064    0.060  0.006 -0.038
 F         -0.061 -0.010 -0.063    0.093  0.007  0.111   -0.024 -0.002 -0.034
 S         -0.189 -0.187 -0.003   -0.177 -0.101 -0.014    0.075  0.095  0.001
 C          0.290  0.166  0.052    0.391 -0.233  0.108    0.748  0.390 -0.044
 O          0.014  0.161  0.236    0.054  0.137  0.204   -0.011 -0.102 -0.131
 O          0.131  0.101 -0.269    0.123  0.079 -0.213   -0.066 -0.069  0.151
 F         -0.031 -0.023  0.028   -0.006  0.048 -0.063   -0.087 -0.089  0.126
 F         -0.136 -0.022 -0.019   -0.176 -0.006 -0.026   -0.302 -0.052 -0.030
 F         -0.023 -0.047 -0.043   -0.021  0.062  0.035   -0.051 -0.096 -0.067
 TransDip  -0.661 -0.033 -0.310    0.286 -0.569 -0.050    0.754  0.420  0.159

 Mode:                31                     32                     33
 Frequency:      1191.80                1209.79                1236.47
 Force Cnst:     11.0827                11.7864                12.9485
 Red. Mass:      13.2430                13.6683                14.3747
 IR Active:          YES                    YES                    YES
 IR Intens:      384.193                409.066                 81.684
 Raman Active:       YES                    YES                    YES
               X      Y      Z        X      Y      Z        X      Y      Z
 S          0.015 -0.013  0.012    0.024 -0.074 -0.003    0.068 -0.014  0.085
 C          0.143  0.023  0.064    0.756  0.127  0.341    0.256 -0.005 -0.196
 N         -0.062 -0.010 -0.031   -0.007 -0.004 -0.013   -0.286 -0.004 -0.172
 O          0.001  0.026 -0.012    0.012  0.125 -0.052    0.001  0.044 -0.035
 O         -0.014 -0.002  0.009   -0.077 -0.004  0.043   -0.040 -0.011  0.014
 F         -0.037 -0.005  0.014   -0.201 -0.025  0.073   -0.146 -0.015  0.085
 F         -0.048 -0.006 -0.049   -0.255 -0.033 -0.262   -0.005 -0.001  0.018
 S          0.025  0.006 -0.050   -0.003  0.050  0.023    0.045 -0.166  0.056
 C         -0.078  0.184  0.871    0.047 -0.204 -0.125   -0.227  0.651 -0.200
 O          0.010 -0.009  0.014   -0.009 -0.055 -0.073    0.020  0.139  0.147
 O         -0.027 -0.003  0.043   -0.003 -0.011  0.024    0.077  0.097 -0.203
 F          0.072  0.091 -0.242   -0.003  0.015  0.005   -0.032 -0.125  0.160
 F         -0.012 -0.014 -0.053   -0.017  0.012  0.005    0.127 -0.035  0.028
 F         -0.011 -0.185 -0.218    0.003  0.076  0.068    0.009 -0.153 -0.088
 TransDip   0.157  0.125  0.595    0.609 -0.036  0.216    0.243  0.157 -0.005

 Mode:                34                     35                     36
 Frequency:      1248.00                1310.78                1325.58
 Force Cnst:     13.3545                20.6693                21.1459
 Red. Mass:      14.5528                20.4181                20.4251
 IR Active:          YES                    YES                    YES
 IR Intens:      112.631                254.108                641.154
 Raman Active:       YES                    YES                    YES
               X      Y      Z        X      Y      Z        X      Y      Z
 S          0.107 -0.097 -0.061   -0.269 -0.291  0.201   -0.177 -0.186  0.128
 C         -0.331  0.081  0.694   -0.025  0.012  0.029   -0.102  0.000  0.020
 N          0.085  0.034  0.047    0.001  0.015 -0.001    0.015  0.012 -0.028
 O          0.004  0.167 -0.062    0.046  0.420 -0.213    0.036  0.262 -0.135
 O         -0.194 -0.047  0.073    0.475  0.148 -0.184    0.302  0.093 -0.120
 F          0.291  0.029 -0.191    0.020 -0.004 -0.016    0.047  0.003 -0.025
 F         -0.112 -0.021 -0.181    0.001 -0.000 -0.001    0.017  0.001  0.012
 S         -0.062 -0.108 -0.001    0.047 -0.059 -0.274   -0.067  0.066  0.436
 C         -0.142  0.170 -0.044   -0.002  0.003 -0.059   -0.008  0.009  0.087
 O          0.022  0.099  0.123    0.039  0.197  0.280   -0.054 -0.279 -0.407
 O          0.059  0.054 -0.121   -0.122 -0.088  0.260    0.190  0.150 -0.431
 F         -0.001 -0.029  0.034   -0.004 -0.012  0.022    0.007  0.018 -0.033
 F          0.067 -0.007  0.011    0.004 -0.000  0.004   -0.001 -0.000 -0.006
 F          0.007 -0.040 -0.025   -0.000  0.014  0.014    0.001 -0.024 -0.023
 TransDip  -0.254 -0.011  0.226   -0.295 -0.404 -0.102   -0.340 -0.118  0.727

 STANDARD THERMODYNAMIC QUANTITIES AT   298.15 K  AND     1.00 ATM

   This Molecule has  1 Imaginary Frequencies
   Zero point vibrational energy:       30.828 kcal/mol

   Atom    1 Element S  Has Mass   31.97207
   Atom    2 Element C  Has Mass   12.00000
   Atom    3 Element N  Has Mass   14.00307
   Atom    4 Element O  Has Mass   15.99491
   Atom    5 Element O  Has Mass   15.99491
   Atom    6 Element F  Has Mass   18.99840
   Atom    7 Element F  Has Mass   18.99840
   Atom    8 Element S  Has Mass   31.97207
   Atom    9 Element C  Has Mass   12.00000
   Atom   10 Element O  Has Mass   15.99491
   Atom   11 Element O  Has Mass   15.99491
   Atom   12 Element F  Has Mass   18.99840
   Atom   13 Element F  Has Mass   18.99840
   Atom   14 Element F  Has Mass   18.99840
   Molecular Mass:   260.918850 amu
   Principal axes and moments of inertia in amu*Bohr^2:
                             1           2           3
    Eigenvalues --     1831.91140  4475.67825  4983.41896
          X               0.79984    -0.32625    -0.50381
          Y              -0.05008     0.80017    -0.59768
          Z               0.59813     0.50327     0.62367
   Rotational Symmetry Number is   1
   The Molecule is an Asymmetric Top
   Translational Enthalpy:        0.889 kcal/mol
   Rotational Enthalpy:           0.889 kcal/mol
   Vibrational Enthalpy:         37.095 kcal/mol
   gas constant (RT):             0.592 kcal/mol
   Translational Entropy:        42.577  cal/mol.K
   Rotational Entropy:           32.080  cal/mol.K
   Vibrational Entropy:          41.075  cal/mol.K

   Total Enthalpy:               39.465 kcal/mol
   Total Entropy:               115.731  cal/mol.K
Archival summary:
1\1\nid01231\FREQ\ProcedureUnspecified\BasisUnspecified\25412(1-,2)\sblau\TueNov1322:54:552018TueNov1322:54:552018\0\\#,FREQ,ProcedureUnspecified,BasisUnspecified,\\-1,2\S\O,1,1.45134\O,1,1.45308,2,118.079\N,1,1.59325,2,111.514,3,139.082,0\S,4,1.58969,1,126.837,2,-119.387,0\O,5,1.4498,4,108.252,1,164.588,0\O,5,1.45601,4,114.713,1,30.1622,0\C,5,1.8331,4,104.07,1,-86.1269,0\F,8,1.31916,5,115.265,4,64.429,0\F,8,1.32427,5,113.482,4,-167.08,0\C,1,1.86841,2,103.971,3,-115.629,0\F,11,1.32883,1,111.357,2,-55.6779,0\F,11,1.33025,1,110.955,2,-176.853,0\F,11,1.33354,1,108.98,2,63.8644,0\\\@

 Total job time:  3875.80s(wall), 13820.16s(cpu) 
 Tue Nov 13 22:54:55 2018

        *************************************************************
        *                                                           *
        *  Thank you very much for using Q-Chem.  Have a nice day.  *
        *                                                           *
        *************************************************************


