
Running Job 1 of 1 mol.qin
qchem mol.qin_18546.0 /tmp/scratch/ 0
/clusterfs/mp/software/qchem5.4/exe/qcprog.exe_s mol.qin_18546.0 /tmp/scratch/
                  Welcome to Q-Chem
     A Quantum Leap Into The Future Of Chemistry


 Q-Chem 5.4, Q-Chem, Inc., Pleasanton, CA (2021)

 E. Epifanovsky,  A. T. B. Gilbert,  Xintian Feng,  Joonho Lee,  Yuezhi Mao,  
 N. Mardirossian,  P. Pokhilko,  A. White,  M. Wormit,  M. P. Coons,  
 A. L. Dempwolff,  Zhengting Gan,  D. Hait,  P. R. Horn,  L. D. Jacobson,  
 I. Kaliman,  J. Kussmann,  A. W. Lange,  Ka Un Lao,  D. S. Levine,  Jie Liu,  
 S. C. McKenzie,  A. F. Morrison,  K. Nanda,  F. Plasser,  D. R. Rehn,  
 M. L. Vidal,  Zhi-Qiang You,  Ying Zhu,  B. Alam,  B. Albrecht,  
 A. Aldossary,  E. Alguire,  J. H. Andersen,  D. Barton,  K. Begam,  A. Behn,  
 Y. A. Bernard,  E. J. Berquist,  H. Burton,  A. Carreras,  K. Carter-Fenk,  
 Romit Chakraborty,  A. D. Chien,  K. D. Closser,  V. Cofer-Shabica,  
 S. Dasgupta,  Jia Deng,  M. de Wergifosse,  M. Diedenhofen,  Hainam Do,  
 S. Ehlert,  Po-Tung Fang,  S. Fatehi,  Qingguo Feng,  T. Friedhoff,  
 J. Gayvert,  Qinghui Ge,  G. Gidofalvi,  M. Goldey,  J. Gomes,  
 C. Gonzalez-Espinoza,  S. Gulania,  A. Gunina,  M. W. D. Hanson-Heine,  
 P. H. P. Harbach,  A. W. Hauser,  M. F. Herbst,  M. Hernandez Vera,  
 M. Hodecker,  Z. C. Holden,  S. Houck,  Xunkun Huang,  Kerwin Hui,  
 B. C. Huynh,  M. Ivanov,  Hyunjun Ji,  Hanjie Jiang,  B. Kaduk,  S. Kaehler,  
 K. Khistyaev,  Jaehoon Kim,  P. Klunzinger,  Z. Koczor-Benda,  
 Joong Hoon Koh,  D. Kosenkov,  L. Koulias,  T. Kowalczyk,  C. M. Krauter,  
 K. Kue,  A. Kunitsa,  T. Kus,  A. Landau,  K. V. Lawler,  D. Lefrancois,  
 S. Lehtola,  Rain Li,  Yi-Pei Li,  Jiashu Liang,  M. Liebenthal,  
 Hung-Hsuan Lin,  You-Sheng Lin,  Fenglai Liu,  Kuan-Yu Liu,  
 M. Loipersberger,  A. Luenser,  A. Manjanath,  P. Manohar,  E. Mansoor,  
 S. F. Manzer,  Shan-Ping Mao,  A. V. Marenich,  T. Markovich,  S. Mason,  
 S. A. Maurer,  P. F. McLaughlin,  M. F. S. J. Menger,  J.-M. Mewes,  
 S. A. Mewes,  P. Morgante,  J. W. Mullinax,  K. J. Oosterbaan,  G. Paran,  
 Alexander C. Paul,  Suranjan K. Paul,  F. Pavosevic,  Zheng Pei,  S. Prager,  
 E. I. Proynov,  E. Ramos,  B. Rana,  A. E. Rask,  A. Rettig,  R. M. Richard,  
 F. Rob,  E. Rossomme,  T. Scheele,  M. Scheurer,  M. Schneider,  
 N. Sergueev,  S. M. Sharada,  W. Skomorowski,  D. W. Small,  C. J. Stein,  
 Yu-Chuan Su,  E. J. Sundstrom,  Zhen Tao,  J. Thirman,  T. Tsuchimochi,  
 N. M. Tubman,  S. P. Veccham,  O. Vydrov,  J. Wenzel,  J. Witte,  A. Yamada,  
 Kun Yao,  S. Yeganeh,  S. R. Yost,  A. Zech,  Igor Ying Zhang,  Xing Zhang,  
 Yu Zhang,  D. Zuev,  A. Aspuru-Guzik,  A. T. Bell,  N. A. Besley,  
 K. B. Bravaya,  B. R. Brooks,  D. Casanova,  Jeng-Da Chai,  S. Coriani,  
 C. J. Cramer,  A. E. DePrince, III,  R. A. DiStasio Jr.,  A. Dreuw,  
 B. D. Dunietz,  T. R. Furlani,  W. A. Goddard III,  S. Grimme,  
 S. Hammes-Schiffer,  T. Head-Gordon,  W. J. Hehre,  Chao-Ping Hsu,  
 T.-C. Jagau,  Yousung Jung,  A. Klamt,  Jing Kong,  D. S. Lambrecht,  
 WanZhen Liang,  N. J. Mayhall,  C. W. McCurdy,  J. B. Neaton,  T. Neudecker,  
 C. Ochsenfeld,  J. A. Parkhill,  R. Peverati,  V. A. Rassolov,  Yihan Shao,  
 L. V. Slipchenko,  R. P. Steele,  J. E. Subotnik,  A. J. W. Thom,  
 A. Tkatchenko,  D. G. Truhlar,  T. Van Voorhis,  T. A. Wesolowski,  
 K. B. Whaley,  H. L. Woodcock III,  P. M. Zimmerman,  S. Faraji,  
 P. M. W. Gill,  M. Head-Gordon,  J. M. Herbert,  A. I. Krylov

 Additional authors since Version 5.4.0: 
 Chandrima Chakravarty,  L. Cunha,  R. Kang,  Yongbin Kim,  S. Kotaru,  
 Shaozhi Li,  Xiangyuan Li,  F. Matz,  A. Molle,  V. Parravicini,  
 Haisheng Ren,  Hengyuan Shen,  Yingli Su,  Hung-Yi Tsai,  C. Utku,  
 Fang Wang,  Jeff Yang,  F. Zeller

 Contributors to earlier versions of Q-Chem not listed above: 
 R. D. Adamson,  B. Austin,  R. Baer,  J. Baker,  G. J. O. Beran,  
 K. Brandhorst,  S. T. Brown,  E. F. C. Byrd,  Arup K. Chakraborty,  
 G. K. L. Chan,  Chun-Min Chang,  Yunqing Chen,  C.-L. Cheng,  
 Siu Hung Chien,  D. M. Chipman,  D. L. Crittenden,  H. Dachsel,  
 R. J. Doerksen,  A. D. Dutoi,  R. G. Edgar,  J. Fosso-Tande,  
 L. Fusti-Molnar,  D. Ghosh,  A. Ghysels,  A. Golubeva-Zadorozhnaya,  
 J. Gonthier,  M. S. Gordon,  S. R. Gwaltney,  G. Hawkins,  J. E. Herr,  
 A. Heyden,  S. Hirata,  E. G. Hohenstein,  G. Kedziora,  F. J. Keil,  
 C. Kelley,  Jihan Kim,  R. A. King,  R. Z. Khaliullin,  P. P. Korambath,  
 W. Kurlancheek,  A. Laurent,  A. M. Lee,  M. S. Lee,  S. V. Levchenko,  
 Ching Yeh Lin,  D. Liotard,  E. Livshits,  R. C. Lochan,  I. Lotan,  
 L. A. Martinez-Martinez,  P. E. Maslen,  N. Nair,  D. P. O'Neill,  
 D. Neuhauser,  E. Neuscamman,  C. M. Oana,  R. Olivares-Amaya,  R. Olson,  
 T. M. Perrine,  B. Peters,  P. A. Pieniazek,  A. Prociuk,  Y. M. Rhee,  
 J. Ritchie,  M. A. Rohrdanz,  E. Rosta,  N. J. Russ,  H. F. Schaefer III,  
 M. W. Schmidt,  N. E. Schultz,  S. Sharma,  N. Shenvi,  C. D. Sherrill,  
 A. C. Simmonett,  A. Sodt,  T. Stein,  D. Stuck,  K. S. Thanthiriwatte,  
 V. Vanovschi,  L. Vogt,  Tao Wang,  A. Warshel,  M. A. Watson,  
 C. F. Williams,  Q. Wu,  X. Xu,  Jun Yang,  W. Zhang,  Yan Zhao

   Please cite Q-Chem as follows:
  "Software for the frontiers of quantum chemistry:
   An overview of developments in the Q-Chem 5 package"
   J. Chem. Phys. 155, 084801 (2021)
   https://doi.org/10.1063/5.0055522 (open access)

 Q-Chem 5.4.2 for Intel X86 EM64T Linux

 Parts of Q-Chem use Armadillo 9.900.5 (Nocturnal Misbehaviour).
 http://arma.sourceforge.net/

 Q-Chem begins on Fri May 13 00:48:12 2022  

 Host: 
0

     Scratch files written to /tmp/scratch//
 Dec1321 |scratch|qcdevops|jenkins|workspace|build_RNUM 7600   
 Processing $rem in /clusterfs/mp/software/qchem5.4/config/preferences:
 Processing $rem in /global/home/users/smblau/.qchemrc:
 Symmetry turned off for PCM/SM12/SMD calculation

 Checking the input file for inconsistencies... 	...done.

--------------------------------------------------------------
User input:
--------------------------------------------------------------
$molecule
0 2
N      0.1280200000      0.2012000000     -0.0598900000
C      1.0911000000     -0.7938100000      0.5545300000
C     -0.8488200000      0.6354800000      1.0047300000
C     -0.5808400000     -0.4625600000     -1.2179300000
C      0.8581100000      1.4144700000     -0.5797700000
C      2.1162700000     -0.2245100000      1.5212400000
C     -1.9791900000      1.5442100000      0.5511600000
C     -1.4714600000     -1.6397600000     -0.8585000000
C      1.9653500000      1.1476500000     -1.5884100000
C      2.9523100000     -1.3639200000      2.1057900000
C     -2.9353100000      1.8107500000      1.7139500000
C     -2.0120500000     -2.2834300000     -2.1353900000
C      2.7152700000      2.4444000000     -1.8902300000
C      4.0422000000     -0.8642400000      3.0466900000
C     -4.0849500000      2.7299300000      1.3186900000
C     -2.8729300000     -3.5082800000     -1.8522900000
C      3.8077100000      2.2502700000     -2.9349600000
H      1.5791700000     -1.3072600000     -0.2822400000
H      0.4702800000     -1.5272000000      1.0781300000
H     -0.2588800000      1.1343700000      1.7801500000
H     -1.2562000000     -0.2817200000      1.4422300000
H      0.2017500000     -0.8188000000     -1.8950500000
H     -1.1541300000      0.3203800000     -1.7250400000
H      1.2526400000      1.9373200000      0.2981700000
H      0.1005200000      2.0610700000     -1.0322800000
H      1.6338800000      0.3238300000      2.3422400000
H      2.7887500000      0.4785900000      1.0120600000
H     -2.5428000000      1.0871600000     -0.2734000000
H     -1.5865300000      2.5026500000      0.1853400000
H     -2.3140200000     -1.3325200000     -0.2230200000
H     -0.8996700000     -2.3946500000     -0.3015200000
H      1.5503300000      0.7421500000     -2.5200700000
H      2.6726600000      0.3954900000     -1.2174800000
H      3.4059100000     -1.9342900000      1.2806900000
H      2.2901300000     -2.0622900000      2.6398100000
H     -2.3754000000      2.2543100000      2.5516500000
H     -3.3348300000      0.8522600000      2.0795200000
H     -1.1650900000     -2.5715300000     -2.7753700000
H     -2.5930200000     -1.5378900000     -2.7000500000
H      3.1559300000      2.8332200000     -0.9589700000
H      2.0009000000      3.2073400000     -2.2368100000
H      3.6085600000     -0.3157700000      3.8951100000
H      4.7311800000     -0.1861600000      2.5230600000
H      4.6297200000     -1.6994800000      3.4492100000
H     -4.6778900000      2.2884000000      0.5047200000
H     -3.7082300000      3.7024500000      0.9704000000
H     -4.7572900000      2.9109600000      2.1671900000
H     -3.7362400000     -3.2495200000     -1.2222600000
H     -2.2918300000     -4.2797500000     -1.3263800000
H     -3.2527800000     -3.9484200000     -2.7834000000
H      3.3833700000      1.8902900000     -3.8833000000
H      4.5473700000      1.5101000000     -2.5970900000
H      4.3369900000      3.1909400000     -3.1351100000
H      4.0568000000      7.0505700000      6.2993400000
H      2.5574000000      6.1161700000      6.2669400000
C      3.6076000000      6.1153700000      5.9341400000
H      4.2899000000      4.9893700000      7.6407400000
C      4.3625000000      4.9360700000      6.5447400000
H      1.1233000000      6.5845700000      3.9754400000
H      3.3826000000      7.1339700000      4.0401400000
C      3.6321000000      6.1297700000      4.4043400000
H      5.4324000000      5.0438700000      6.2989400000
C      1.4618000000      5.8173700000      3.2635400000
H      2.8506000000      3.3882700000      6.3821400000
C      3.8968000000      3.5563700000      6.0793400000
H     -0.0274000000      4.4675700000      4.0436400000
N      2.6850000000      5.2157700000      3.7820400000
H      4.6500000000      5.9238700000      4.0413400000
C      0.3817000000      4.7687700000      3.0673400000
H      1.6760000000      6.3320700000      2.3116400000
H     -0.4418000000      5.1895700000      2.4764400000
H      4.4955000000      2.7961700000      6.6006400000
C      2.8691000000      3.8608700000      3.7612400000
C      4.0230000000      3.3096700000      4.5666400000
H      4.9770000000      3.7206700000      4.1995400000
C      0.9949000000      3.5510700000      2.3860400000
N      2.1128000000      3.0176700000      3.1406400000
H      4.0414000000      2.2342700000      4.3623400000
H      0.2431000000      2.7593700000      2.2603400000
H      1.3274000000      3.8308700000      1.3694400000
$end

$rem
job_type = opt
basis = def2-svpd
max_scf_cycles = 200
gen_scfman = true
xc_grid = 3
thresh = 14
s2thresh = 16
scf_algorithm = diis_gdm
resp_charges = true
symmetry = false
sym_ignore = true
method = wb97xd
geom_opt_max_cycles = 200
solvent_method = pcm
geom_opt2 = 3
$end

$pcm
heavypoints 194
hpoints 194
radii uff
theory cpcm
vdwscale 1.1
$end

$solvent
dielectric 38.88
$end

$geom_opt
maxiter = 200
$end
--------------------------------------------------------------
 ----------------------------------------------------------------
             Standard Nuclear Orientation (Angstroms)
    I     Atom           X                Y                Z
 ----------------------------------------------------------------
    1      N       0.1280200000     0.2012000000    -0.0598900000
    2      C       1.0911000000    -0.7938100000     0.5545300000
    3      C      -0.8488200000     0.6354800000     1.0047300000
    4      C      -0.5808400000    -0.4625600000    -1.2179300000
    5      C       0.8581100000     1.4144700000    -0.5797700000
    6      C       2.1162700000    -0.2245100000     1.5212400000
    7      C      -1.9791900000     1.5442100000     0.5511600000
    8      C      -1.4714600000    -1.6397600000    -0.8585000000
    9      C       1.9653500000     1.1476500000    -1.5884100000
   10      C       2.9523100000    -1.3639200000     2.1057900000
   11      C      -2.9353100000     1.8107500000     1.7139500000
   12      C      -2.0120500000    -2.2834300000    -2.1353900000
   13      C       2.7152700000     2.4444000000    -1.8902300000
   14      C       4.0422000000    -0.8642400000     3.0466900000
   15      C      -4.0849500000     2.7299300000     1.3186900000
   16      C      -2.8729300000    -3.5082800000    -1.8522900000
   17      C       3.8077100000     2.2502700000    -2.9349600000
   18      H       1.5791700000    -1.3072600000    -0.2822400000
   19      H       0.4702800000    -1.5272000000     1.0781300000
   20      H      -0.2588800000     1.1343700000     1.7801500000
   21      H      -1.2562000000    -0.2817200000     1.4422300000
   22      H       0.2017500000    -0.8188000000    -1.8950500000
   23      H      -1.1541300000     0.3203800000    -1.7250400000
   24      H       1.2526400000     1.9373200000     0.2981700000
   25      H       0.1005200000     2.0610700000    -1.0322800000
   26      H       1.6338800000     0.3238300000     2.3422400000
   27      H       2.7887500000     0.4785900000     1.0120600000
   28      H      -2.5428000000     1.0871600000    -0.2734000000
   29      H      -1.5865300000     2.5026500000     0.1853400000
   30      H      -2.3140200000    -1.3325200000    -0.2230200000
   31      H      -0.8996700000    -2.3946500000    -0.3015200000
   32      H       1.5503300000     0.7421500000    -2.5200700000
   33      H       2.6726600000     0.3954900000    -1.2174800000
   34      H       3.4059100000    -1.9342900000     1.2806900000
   35      H       2.2901300000    -2.0622900000     2.6398100000
   36      H      -2.3754000000     2.2543100000     2.5516500000
   37      H      -3.3348300000     0.8522600000     2.0795200000
   38      H      -1.1650900000    -2.5715300000    -2.7753700000
   39      H      -2.5930200000    -1.5378900000    -2.7000500000
   40      H       3.1559300000     2.8332200000    -0.9589700000
   41      H       2.0009000000     3.2073400000    -2.2368100000
   42      H       3.6085600000    -0.3157700000     3.8951100000
   43      H       4.7311800000    -0.1861600000     2.5230600000
   44      H       4.6297200000    -1.6994800000     3.4492100000
   45      H      -4.6778900000     2.2884000000     0.5047200000
   46      H      -3.7082300000     3.7024500000     0.9704000000
   47      H      -4.7572900000     2.9109600000     2.1671900000
   48      H      -3.7362400000    -3.2495200000    -1.2222600000
   49      H      -2.2918300000    -4.2797500000    -1.3263800000
   50      H      -3.2527800000    -3.9484200000    -2.7834000000
   51      H       3.3833700000     1.8902900000    -3.8833000000
   52      H       4.5473700000     1.5101000000    -2.5970900000
   53      H       4.3369900000     3.1909400000    -3.1351100000
   54      H       4.0568000000     7.0505700000     6.2993400000
   55      H       2.5574000000     6.1161700000     6.2669400000
   56      C       3.6076000000     6.1153700000     5.9341400000
   57      H       4.2899000000     4.9893700000     7.6407400000
   58      C       4.3625000000     4.9360700000     6.5447400000
   59      H       1.1233000000     6.5845700000     3.9754400000
   60      H       3.3826000000     7.1339700000     4.0401400000
   61      C       3.6321000000     6.1297700000     4.4043400000
   62      H       5.4324000000     5.0438700000     6.2989400000
   63      C       1.4618000000     5.8173700000     3.2635400000
   64      H       2.8506000000     3.3882700000     6.3821400000
   65      C       3.8968000000     3.5563700000     6.0793400000
   66      H      -0.0274000000     4.4675700000     4.0436400000
   67      N       2.6850000000     5.2157700000     3.7820400000
   68      H       4.6500000000     5.9238700000     4.0413400000
   69      C       0.3817000000     4.7687700000     3.0673400000
   70      H       1.6760000000     6.3320700000     2.3116400000
   71      H      -0.4418000000     5.1895700000     2.4764400000
   72      H       4.4955000000     2.7961700000     6.6006400000
   73      C       2.8691000000     3.8608700000     3.7612400000
   74      C       4.0230000000     3.3096700000     4.5666400000
   75      H       4.9770000000     3.7206700000     4.1995400000
   76      C       0.9949000000     3.5510700000     2.3860400000
   77      N       2.1128000000     3.0176700000     3.1406400000
   78      H       4.0414000000     2.2342700000     4.3623400000
   79      H       0.2431000000     2.7593700000     2.2603400000
   80      H       1.3274000000     3.8308700000     1.3694400000
 ----------------------------------------------------------------
 Nuclear Repulsion Energy =        2906.87671542 hartrees
 There are      112 alpha and      111 beta electrons
 Requested basis set is def2-SVPD
 There are 432 shells and 976 basis functions

 Total QAlloc Memory Limit  96000 MB
 Mega-Array Size       188 MB
 MEM_STATIC part       192 MB
 -----------------------------------------------------------------------
                STARTING GEOMETRY OPTIMIZER USING LIBOPT3
                by Peter F. McLaughlin, Yu Zhang, Evgeny Epifanovsky
 -----------------------------------------------------------------------
  Checking Topology for Ill-Behaving Coordinates
  Done Checking Topology
              Initial Energy and Gradient Calculation

	Performing Iterative Coordinate Back-Transformation

	  Starting from Previous Position
	  iter:	0	rms: 0.000000	maxdev: 0.000000	 Success!

	Finished Iterative Coordinate Back-Transformation
 ----------------------------------------------------------------
             Standard Nuclear Orientation (Angstroms)
    I     Atom           X                Y                Z
 ----------------------------------------------------------------
    1      N       0.1280200000     0.2012000000    -0.0598900000
    2      C       1.0911000000    -0.7938100000     0.5545300000
    3      C      -0.8488200000     0.6354800000     1.0047300000
    4      C      -0.5808400000    -0.4625600000    -1.2179300000
    5      C       0.8581100000     1.4144700000    -0.5797700000
    6      C       2.1162700000    -0.2245100000     1.5212400000
    7      C      -1.9791900000     1.5442100000     0.5511600000
    8      C      -1.4714600000    -1.6397600000    -0.8585000000
    9      C       1.9653500000     1.1476500000    -1.5884100000
   10      C       2.9523100000    -1.3639200000     2.1057900000
   11      C      -2.9353100000     1.8107500000     1.7139500000
   12      C      -2.0120500000    -2.2834300000    -2.1353900000
   13      C       2.7152700000     2.4444000000    -1.8902300000
   14      C       4.0422000000    -0.8642400000     3.0466900000
   15      C      -4.0849500000     2.7299300000     1.3186900000
   16      C      -2.8729300000    -3.5082800000    -1.8522900000
   17      C       3.8077100000     2.2502700000    -2.9349600000
   18      H       1.5791700000    -1.3072600000    -0.2822400000
   19      H       0.4702800000    -1.5272000000     1.0781300000
   20      H      -0.2588800000     1.1343700000     1.7801500000
   21      H      -1.2562000000    -0.2817200000     1.4422300000
   22      H       0.2017500000    -0.8188000000    -1.8950500000
   23      H      -1.1541300000     0.3203800000    -1.7250400000
   24      H       1.2526400000     1.9373200000     0.2981700000
   25      H       0.1005200000     2.0610700000    -1.0322800000
   26      H       1.6338800000     0.3238300000     2.3422400000
   27      H       2.7887500000     0.4785900000     1.0120600000
   28      H      -2.5428000000     1.0871600000    -0.2734000000
   29      H      -1.5865300000     2.5026500000     0.1853400000
   30      H      -2.3140200000    -1.3325200000    -0.2230200000
   31      H      -0.8996700000    -2.3946500000    -0.3015200000
   32      H       1.5503300000     0.7421500000    -2.5200700000
   33      H       2.6726600000     0.3954900000    -1.2174800000
   34      H       3.4059100000    -1.9342900000     1.2806900000
   35      H       2.2901300000    -2.0622900000     2.6398100000
   36      H      -2.3754000000     2.2543100000     2.5516500000
   37      H      -3.3348300000     0.8522600000     2.0795200000
   38      H      -1.1650900000    -2.5715300000    -2.7753700000
   39      H      -2.5930200000    -1.5378900000    -2.7000500000
   40      H       3.1559300000     2.8332200000    -0.9589700000
   41      H       2.0009000000     3.2073400000    -2.2368100000
   42      H       3.6085600000    -0.3157700000     3.8951100000
   43      H       4.7311800000    -0.1861600000     2.5230600000
   44      H       4.6297200000    -1.6994800000     3.4492100000
   45      H      -4.6778900000     2.2884000000     0.5047200000
   46      H      -3.7082300000     3.7024500000     0.9704000000
   47      H      -4.7572900000     2.9109600000     2.1671900000
   48      H      -3.7362400000    -3.2495200000    -1.2222600000
   49      H      -2.2918300000    -4.2797500000    -1.3263800000
   50      H      -3.2527800000    -3.9484200000    -2.7834000000
   51      H       3.3833700000     1.8902900000    -3.8833000000
   52      H       4.5473700000     1.5101000000    -2.5970900000
   53      H       4.3369900000     3.1909400000    -3.1351100000
   54      H       4.0568000000     7.0505700000     6.2993400000
   55      H       2.5574000000     6.1161700000     6.2669400000
   56      C       3.6076000000     6.1153700000     5.9341400000
   57      H       4.2899000000     4.9893700000     7.6407400000
   58      C       4.3625000000     4.9360700000     6.5447400000
   59      H       1.1233000000     6.5845700000     3.9754400000
   60      H       3.3826000000     7.1339700000     4.0401400000
   61      C       3.6321000000     6.1297700000     4.4043400000
   62      H       5.4324000000     5.0438700000     6.2989400000
   63      C       1.4618000000     5.8173700000     3.2635400000
   64      H       2.8506000000     3.3882700000     6.3821400000
   65      C       3.8968000000     3.5563700000     6.0793400000
   66      H      -0.0274000000     4.4675700000     4.0436400000
   67      N       2.6850000000     5.2157700000     3.7820400000
   68      H       4.6500000000     5.9238700000     4.0413400000
   69      C       0.3817000000     4.7687700000     3.0673400000
   70      H       1.6760000000     6.3320700000     2.3116400000
   71      H      -0.4418000000     5.1895700000     2.4764400000
   72      H       4.4955000000     2.7961700000     6.6006400000
   73      C       2.8691000000     3.8608700000     3.7612400000
   74      C       4.0230000000     3.3096700000     4.5666400000
   75      H       4.9770000000     3.7206700000     4.1995400000
   76      C       0.9949000000     3.5510700000     2.3860400000
   77      N       2.1128000000     3.0176700000     3.1406400000
   78      H       4.0414000000     2.2342700000     4.3623400000
   79      H       0.2431000000     2.7593700000     2.2603400000
   80      H       1.3274000000     3.8308700000     1.3694400000
 ----------------------------------------------------------------
 Nuclear Repulsion Energy =        2906.87671542 hartrees
 There are      112 alpha and      111 beta electrons
 Discretize the solute cavity surface with Lebedev spheres
	Using 194 Lebedev grid points for each H atom
	Using 194 Lebedev grid points for other atoms
	Atomic van der Waals radii will be scaled by 1.10
 Remove points where switching function is < 1.0e-08
 Keep 5523 surface tesserae and discard 9997 interior tesserae
 Molecular Surface Area = 595.469 Angst**2
 Requested basis set is def2-SVPD
 There are 432 shells and 976 basis functions
 A cutoff of  1.0D-14 yielded  71684 shell pairs
 There are    362514 function pairs (    405887 Cartesian)
 Smallest overlap matrix eigenvalue = 5.99E-06

 Scale SEOQF with 1.000000e-02/1.000000e-02/1.000000e-02

 Standard Electronic Orientation quadrupole field applied
 Guess from superposition of atomic densities
 Warning:  Energy on first SCF cycle will be non-variational
 SAD guess density has 223.000000 electrons

 -----------------------------------------------------------------------
  General SCF calculation program by
  Eric Jon Sundstrom, Paul Horn, Yuezhi Mao, Dmitri Zuev, Alec White,
  David Stuck, Shaama M.S., Shane Yost, Joonho Lee, David Small,
  Daniel Levine, Susi Lehtola, Hugh Burton, Evgeny Epifanovsky,
  Bang C. Huynh
 -----------------------------------------------------------------------
 Exchange:     0.2220 Hartree-Fock + 1.0000 wB97X-D + LR-HF
 Correlation:  1.0000 wB97X-D
 Using SG-3 standard quadrature grid
 Dispersion:   Grimme D
 using 40 threads for integral computing
 -------------------------------------------------------
 OpenMP Integral computing Module                
 Release: version 1.0, May 2013, Q-Chem Inc. Pittsburgh 
 -------------------------------------------------------
 A unrestricted SCF calculation will be
 performed using DIIS, GDM
 SCF converges when RMS gradient is below 1.0e-08
 ---------------------------------------
  Cycle       Energy         DIIS error
 ---------------------------------------
    1   -1155.4900931398      9.56e-03  
    2   -1146.6366735469      8.61e-04  Done DIIS. Switching to GDM
 ---------------------------------------
  Cycle       Energy        RMS Gradient
 ---------------------------------------
    1   -1146.6366735469      7.13e-02   Descent step
    2   -1146.9253133659      3.30e-02   Descent step
    3   -1147.0158812078      1.14e-02   Normal BFGS step
    4   -1147.0289092987      1.98e-02   Normal BFGS step
    5   -1147.0307739219      1.75e-02   Normal BFGS step
    6   -1147.0323380689      1.90e-02   Dog-leg BFGS step
    7   -1147.0392573031      2.10e-02   Normal BFGS step
    8   -1147.0429543171      3.01e-02   Normal BFGS step
    9   -1147.0492368840      1.11e-02   Normal BFGS step
   10   -1147.0515265553      7.73e-03   Normal BFGS step
   11   -1147.0520808267      7.85e-03   Normal BFGS step
   12   -1147.0526529344      6.63e-03   Normal BFGS step
   13   -1147.0530214989      4.33e-03   Normal BFGS step
   14   -1147.0533037767      2.77e-03   Normal BFGS step
   15   -1147.0534416784      2.98e-03   Normal BFGS step
   16   -1147.0535647894      3.23e-03   Normal BFGS step
   17   -1147.0536981976      4.23e-03   Normal BFGS step
   18   -1147.0538620344      4.96e-03   Normal BFGS step
   19   -1147.0543336441      6.16e-03   Normal BFGS step
   20   -1147.0545029796      4.65e-03   Normal BFGS step
   21   -1147.0547317907      4.85e-03   Normal BFGS step
   22   -1147.0548898085      2.14e-03   Normal BFGS step
   23   -1147.0549700479      1.44e-03   Normal BFGS step
   24   -1147.0549975682      1.35e-03   Normal BFGS step
   25   -1147.0550385726      8.90e-04   Normal BFGS step
   26   -1147.0550570728      5.16e-04   Normal BFGS step
   27   -1147.0550627772      3.03e-04   Normal BFGS step
   28   -1147.0550650366      2.16e-04   Normal BFGS step
   29   -1147.0550663647      1.04e-04   Normal BFGS step
   30   -1147.0550663882      5.23e-05   Normal BFGS step
   31   -1147.0550665234      2.20e-05   Normal BFGS step
   32   -1147.0550663593      1.05e-05  Line search: overstep
   33   -1147.0550665872      2.05e-05   Normal BFGS step
   34   -1147.0550663941      5.95e-06  Line search: overstep
   35   -1147.0550665818      1.85e-05   Normal BFGS step
   36   -1147.0550664032      4.08e-06  Line search: overstep
   37   -1147.0550665801      1.68e-05   Normal BFGS step
   38   -1147.0550664398      3.19e-06  Line search: overstep
   39   -1147.0550665556      1.50e-05  Line search: overstep
   40   -1147.0550664499      1.67e-05  Line search: overstep
   41   -1147.0550664898      1.68e-05  Line search: overstep
   42   -1147.0550664712      1.68e-05  Line search: overstep
   43   -1147.0550664559      1.68e-05  Line search: overstep
   44   -1147.0550664648      1.68e-05  Line search: overstep
   45   -1147.0550664589      1.68e-05  Line search: overstep
   46   -1147.0550664694      1.68e-05  Line search: overstep
   47   -1147.0550664644      1.68e-05  Line search: overstep
   48   -1147.0550664736      1.68e-05  Line search: overstep
   49   -1147.0550664689      1.68e-05  Line search: overstep
   50   -1147.0550664769      1.68e-05  Line search: overstep
   51   -1147.0550664725      1.68e-05  Line search: overstep
   52   -1147.0550664795      1.68e-05  Line search: overstep
   53   -1147.0550664754      1.68e-05  Line search: overstep
  GDM::   16 failed line searches.  Resetting
   54   -1147.0550664816      1.68e-05  Line search: overstep
  GDM::   17 failed line searches.  Resetting
   55   -1147.0550664778      1.68e-05  Line search: overstep
  GDM::   18 failed line searches.  Resetting
   56   -1147.0550664833      1.68e-05  Line search: overstep
  GDM::   19 failed line searches.  Resetting
   57   -1147.0550664798      1.68e-05  Line search: overstep
  GDM::   20 failed line searches.  Resetting
   58   -1147.0550664848      1.68e-05  Line search: overstep
  GDM::   21 failed line searches.  Resetting
   59   -1147.0550664814      1.68e-05  Line search: overstep
  GDM::   22 failed line searches.  Resetting
   60   -1147.0550664859      1.68e-05  Line search: overstep
  GDM::   23 failed line searches.  Resetting
   61   -1147.0550664828      1.68e-05  Line search: overstep
  GDM::   24 failed line searches.  Resetting
   62   -1147.0550664869      1.68e-05  Line search: overstep
  GDM::   25 failed line searches.  Resetting
   63   -1147.0550664841      1.68e-05  Line search: overstep
  GDM::   26 failed line searches.  Resetting
   64   -1147.0550664878      1.68e-05  Line search: overstep
  GDM::   27 failed line searches.  Resetting
   65   -1147.0550664851      1.68e-05  Line search: overstep
  GDM::   28 failed line searches.  Resetting
   66   -1147.0550664885      1.68e-05  Line search: overstep
  GDM::   29 failed line searches.  Resetting
   67   -1147.0550664860      1.68e-05  Line search: overstep
  GDM::   30 failed line searches.  Resetting
   68   -1147.0550664891      1.68e-05  Line search: overstep
  GDM::   31 failed line searches.  Resetting
   69   -1147.0550664868      1.68e-05  Line search: overstep
  GDM::   32 failed line searches.  Resetting
   70   -1147.0550664897      1.68e-05  Line search: overstep
  GDM::   33 failed line searches.  Resetting
   71   -1147.0550664875      1.68e-05  Line search: overstep
  GDM::   34 failed line searches.  Resetting
   72   -1147.0550664901      1.68e-05  Line search: overstep
  GDM::   35 failed line searches.  Resetting
   73   -1147.0550664881      1.68e-05  Line search: overstep
  GDM::   36 failed line searches.  Resetting
   74   -1147.0550664906      1.68e-05  Line search: overstep
  GDM::   37 failed line searches.  Resetting
   75   -1147.0550664887      1.68e-05  Line search: overstep
  GDM::   38 failed line searches.  Resetting
   76   -1147.0550664909      1.68e-05  Line search: overstep
  GDM::   39 failed line searches.  Resetting
   77   -1147.0550664892      1.68e-05  Line search: overstep
  GDM::   40 failed line searches.  Resetting
   78   -1147.0550664913      1.68e-05  Line search: overstep
  GDM::   41 failed line searches.  Resetting
   79   -1147.0550664896      1.68e-05  Line search: overstep
  GDM::   42 failed line searches.  Resetting
   80   -1147.0550664916      1.68e-05  Line search: overstep
  GDM::   43 failed line searches.  Resetting
   81   -1147.0550664900      1.68e-05  Line search: overstep
  GDM::   44 failed line searches.  Resetting
   82   -1147.0550664918      1.68e-05  Line search: overstep
  GDM::   45 failed line searches.  Resetting
   83   -1147.0550664904      1.68e-05  Line search: overstep
  GDM::   46 failed line searches.  Resetting
   84   -1147.0550664921      1.68e-05  Line search: overstep
  GDM::   47 failed line searches.  Resetting
   85   -1147.0550664907      1.68e-05  Line search: overstep
  GDM::   48 failed line searches.  Resetting
   86   -1147.0550664923      1.68e-05  Line search: overstep
  GDM::   49 failed line searches.  Resetting
   87   -1147.0550664910      1.68e-05  Line search: overstep
  GDM::   50 failed line searches.  Resetting
   88   -1147.0550664925      1.68e-05  Line search: overstep
  GDM::   51 failed line searches.  Resetting
   89   -1147.0550664913      1.68e-05  Line search: overstep
  GDM::   52 failed line searches.  Resetting
   90   -1147.0550664927      1.68e-05  Line search: overstep
  GDM::   53 failed line searches.  Resetting
   91   -1147.0550664916      1.68e-05  Line search: overstep
  GDM::   54 failed line searches.  Resetting
   92   -1147.0550664929      1.68e-05  Line search: overstep
  GDM::   55 failed line searches.  Resetting
   93   -1147.0550664918      1.68e-05  Line search: overstep
  GDM::   56 failed line searches.  Resetting
   94   -1147.0550664930      1.68e-05  Line search: overstep
  GDM::   57 failed line searches.  Resetting
   95   -1147.0550664920      1.68e-05  Line search: overstep
  GDM::   58 failed line searches.  Resetting
   96   -1147.0550664931      1.68e-05  Line search: overstep
  GDM::   59 failed line searches.  Resetting
   97   -1147.0550664922      1.68e-05  Line search: overstep
  GDM::   60 failed line searches.  Resetting
   98   -1147.0550664933      1.68e-05  Line search: overstep
  GDM::   61 failed line searches.  Resetting
   99   -1147.0550664924      1.68e-05  Line search: overstep
  GDM::   62 failed line searches.  Resetting
  100   -1147.0550664934      1.68e-05  Line search: overstep
  GDM::   63 failed line searches.  Resetting
  101   -1147.0550664926      1.68e-05  Line search: overstep
  GDM::   64 failed line searches.  Resetting
  102   -1147.0550664935      1.68e-05  Line search: overstep
  GDM::   65 failed line searches.  Resetting
  103   -1147.0550664927      1.68e-05  Line search: overstep
  GDM::   66 failed line searches.  Resetting
  104   -1147.0550664936      1.68e-05  Line search: overstep
  GDM::   67 failed line searches.  Resetting
  105   -1147.0550664929      1.68e-05  Line search: overstep
  GDM::   68 failed line searches.  Resetting
  106   -1147.0550664937      1.68e-05  Line search: overstep
  GDM::   69 failed line searches.  Resetting
  107   -1147.0550664930      1.68e-05  Line search: overstep
  GDM::   70 failed line searches.  Resetting
  108   -1147.0550664938      1.68e-05  Line search: overstep
  GDM::   71 failed line searches.  Resetting
  109   -1147.0550664931      1.68e-05  Line search: overstep
  GDM::   72 failed line searches.  Resetting
  110   -1147.0550664939      1.68e-05  Line search: overstep
  GDM::   73 failed line searches.  Resetting
  111   -1147.0550664933      1.68e-05  Line search: overstep
  GDM::   74 failed line searches.  Resetting
  112   -1147.0550664939      1.68e-05  Line search: overstep
  GDM::   75 failed line searches.  Resetting
  113   -1147.0550664934      1.68e-05  Line search: overstep
  GDM::   76 failed line searches.  Resetting
  114   -1147.0550664940      1.68e-05  Line search: overstep
  GDM::   77 failed line searches.  Resetting
  115   -1147.0550664935      1.68e-05  Line search: overstep
  GDM::   78 failed line searches.  Resetting
  116   -1147.0550664941      1.68e-05  Line search: overstep
  GDM::   79 failed line searches.  Resetting
  117   -1147.0550664936      1.68e-05  Line search: overstep
  GDM::   80 failed line searches.  Resetting
  118   -1147.0550664941      1.68e-05  Line search: overstep
  GDM::   81 failed line searches.  Resetting
  119   -1147.0550664936      1.68e-05  Line search: overstep
  GDM::   82 failed line searches.  Resetting
  120   -1147.0550664942      1.68e-05  Line search: overstep
  GDM::   83 failed line searches.  Resetting
  121   -1147.0550664937      1.68e-05  Line search: overstep
  GDM::   84 failed line searches.  Resetting
  122   -1147.0550664942      1.68e-05  Line search: overstep
  GDM::   85 failed line searches.  Resetting
  123   -1147.0550664938      1.68e-05  Line search: overstep
  GDM::   86 failed line searches.  Resetting
  124   -1147.0550664943      1.68e-05  Line search: overstep
  GDM::   87 failed line searches.  Resetting
  125   -1147.0550664939      1.68e-05  Line search: overstep
  GDM::   88 failed line searches.  Resetting
  126   -1147.0550664943      1.68e-05  Line search: overstep
  GDM::   89 failed line searches.  Resetting
  127   -1147.0550664939      1.68e-05  Line search: overstep
  GDM::   90 failed line searches.  Resetting
  128   -1147.0550664944      1.68e-05  Line search: overstep
  GDM::   91 failed line searches.  Resetting
  129   -1147.0550664940      1.68e-05  Line search: overstep
  GDM::   92 failed line searches.  Resetting
  130   -1147.0550664944      1.68e-05  Line search: overstep
  GDM::   93 failed line searches.  Resetting
  131   -1147.0550664941      1.68e-05  Line search: overstep
  GDM::   94 failed line searches.  Resetting
  132   -1147.0550664945      1.68e-05  Line search: overstep
  GDM::   95 failed line searches.  Resetting
  133   -1147.0550664941      1.68e-05  Line search: overstep
  GDM::   96 failed line searches.  Resetting
  134   -1147.0550664945      1.68e-05  Line search: overstep
  GDM::   97 failed line searches.  Resetting
  135   -1147.0550664942      1.68e-05  Line search: overstep
  GDM::   98 failed line searches.  Resetting
  136   -1147.0550664945      1.68e-05  Line search: overstep
  GDM::   99 failed line searches.  Resetting
  137   -1147.0550664942      1.68e-05  Line search: overstep
  GDM::   100 failed line searches.  Resetting
  138   -1147.0550664946      1.68e-05  Line search: overstep
  GDM::   101 failed line searches.  Resetting
  139   -1147.0550664943      1.68e-05  Line search: overstep
  GDM::   102 failed line searches.  Resetting
  140   -1147.0550664946      1.68e-05  Line search: overstep
  GDM::   103 failed line searches.  Resetting
  141   -1147.0550664943      1.68e-05  Line search: overstep
  GDM::   104 failed line searches.  Resetting
  142   -1147.0550664946      1.68e-05  Line search: overstep
  GDM::   105 failed line searches.  Resetting
  143   -1147.0550664944      1.68e-05  Line search: overstep
  GDM::   106 failed line searches.  Resetting
  144   -1147.0550664946      1.68e-05  Line search: overstep
  GDM::   107 failed line searches.  Resetting
  145   -1147.0550664944      1.68e-05  Line search: overstep
  GDM::   108 failed line searches.  Resetting
  146   -1147.0550664947      1.68e-05  Line search: overstep
  GDM::   109 failed line searches.  Resetting
  147   -1147.0550664944      1.68e-05  Line search: overstep
  GDM::   110 failed line searches.  Resetting
  148   -1147.0550664947      1.68e-05  Line search: overstep
  GDM::   111 failed line searches.  Resetting
  149   -1147.0550664945      1.68e-05  Line search: overstep
  GDM::   112 failed line searches.  Resetting
  150   -1147.0550664947      1.68e-05  Line search: overstep
  GDM::   113 failed line searches.  Resetting
  151   -1147.0550664945      1.68e-05  Line search: overstep
  GDM::   114 failed line searches.  Resetting
  152   -1147.0550664947      1.68e-05  Line search: overstep
  GDM::   115 failed line searches.  Resetting
  153   -1147.0550664945      1.68e-05  Line search: overstep
  GDM::   116 failed line searches.  Resetting
  154   -1147.0550664947      1.68e-05  Line search: overstep
  GDM::   117 failed line searches.  Resetting
  155   -1147.0550664945      1.68e-05  Line search: overstep
  GDM::   118 failed line searches.  Resetting
  156   -1147.0550664948      1.68e-05  Line search: overstep
  GDM::   119 failed line searches.  Resetting
  157   -1147.0550664946      1.68e-05  Line search: overstep
  GDM::   120 failed line searches.  Resetting
  158   -1147.0550664948      1.68e-05  Line search: overstep
  GDM::   121 failed line searches.  Resetting
  159   -1147.0550664946      1.68e-05  Line search: overstep
  GDM::   122 failed line searches.  Resetting
  160   -1147.0550664948      1.68e-05  Line search: overstep
  GDM::   123 failed line searches.  Resetting
  161   -1147.0550664946      1.68e-05  Line search: overstep
  GDM::   124 failed line searches.  Resetting
  162   -1147.0550664948      1.68e-05  Line search: overstep
  GDM::   125 failed line searches.  Resetting
  163   -1147.0550664946      1.68e-05  Line search: overstep
  GDM::   126 failed line searches.  Resetting
  164   -1147.0550664948      1.68e-05  Line search: overstep
  GDM::   127 failed line searches.  Resetting
  165   -1147.0550664947      1.68e-05  Line search: overstep
  GDM::   128 failed line searches.  Resetting
  166   -1147.0550664948      1.68e-05  Line search: overstep
  GDM::   129 failed line searches.  Resetting
  167   -1147.0550664947      1.68e-05  Line search: overstep
  GDM::   130 failed line searches.  Resetting
  168   -1147.0550664948      1.68e-05  Line search: overstep
  GDM::   131 failed line searches.  Resetting
  169   -1147.0550664947      1.68e-05  Line search: overstep
  GDM::   132 failed line searches.  Resetting
  170   -1147.0550664949      1.68e-05  Line search: overstep
  GDM::   133 failed line searches.  Resetting
  171   -1147.0550664947      1.68e-05  Line search: overstep
  GDM::   134 failed line searches.  Resetting
  172   -1147.0550664949      1.68e-05  Line search: overstep
  GDM::   135 failed line searches.  Resetting
  173   -1147.0550664947      1.68e-05  Line search: overstep
  GDM::   136 failed line searches.  Resetting
  174   -1147.0550664949      1.68e-05  Line search: overstep
  GDM::   137 failed line searches.  Resetting
  175   -1147.0550664948      1.68e-05  Line search: overstep
  GDM::   138 failed line searches.  Resetting
  176   -1147.0550664949      1.68e-05  Line search: overstep
  GDM::   139 failed line searches.  Resetting
  177   -1147.0550664948      1.68e-05  Line search: overstep
  GDM::   140 failed line searches.  Resetting
  178   -1147.0550664949      1.68e-05  Line search: overstep
  GDM::   141 failed line searches.  Resetting
  179   -1147.0550664948      1.68e-05  Line search: overstep
  GDM::   142 failed line searches.  Resetting
  180   -1147.0550664949      1.68e-05  Line search: overstep
  GDM::   143 failed line searches.  Resetting
  181   -1147.0550664948      1.68e-05  Line search: overstep
  GDM::   144 failed line searches.  Resetting
  182   -1147.0550664949      1.68e-05  Line search: overstep
  GDM::   145 failed line searches.  Resetting
  183   -1147.0550664948      1.68e-05  Line search: overstep
  GDM::   146 failed line searches.  Resetting
  184   -1147.0550664949      1.68e-05  Line search: overstep
  GDM::   147 failed line searches.  Resetting
  185   -1147.0550664948      1.68e-05  Line search: overstep
  GDM::   148 failed line searches.  Resetting
  186   -1147.0550664949      1.68e-05  Line search: overstep
  GDM::   149 failed line searches.  Resetting
  187   -1147.0550664948      1.68e-05  Line search: overstep
  GDM::   150 failed line searches.  Resetting
  188   -1147.0550664949      1.68e-05  Line search: overstep
  GDM::   151 failed line searches.  Resetting
