
Running Job 1 of 1 mol.qin
qchem mol.qin_16629.0 /tmp/scratch/ 0
/clusterfs/mp/software/qchem5.4/exe/qcprog.exe_s mol.qin_16629.0 /tmp/scratch/
                  Welcome to Q-Chem
     A Quantum Leap Into The Future Of Chemistry


 Q-Chem 5.4, Q-Chem, Inc., Pleasanton, CA (2021)

 E. Epifanovsky,  A. T. B. Gilbert,  Xintian Feng,  Joonho Lee,  Yuezhi Mao,  
 N. Mardirossian,  P. Pokhilko,  A. White,  M. Wormit,  M. P. Coons,  
 A. L. Dempwolff,  Zhengting Gan,  D. Hait,  P. R. Horn,  L. D. Jacobson,  
 I. Kaliman,  J. Kussmann,  A. W. Lange,  Ka Un Lao,  D. S. Levine,  Jie Liu,  
 S. C. McKenzie,  A. F. Morrison,  K. Nanda,  F. Plasser,  D. R. Rehn,  
 M. L. Vidal,  Zhi-Qiang You,  Ying Zhu,  B. Alam,  B. Albrecht,  
 A. Aldossary,  E. Alguire,  J. H. Andersen,  D. Barton,  K. Begam,  A. Behn,  
 Y. A. Bernard,  E. J. Berquist,  H. Burton,  A. Carreras,  K. Carter-Fenk,  
 Romit Chakraborty,  A. D. Chien,  K. D. Closser,  V. Cofer-Shabica,  
 S. Dasgupta,  Jia Deng,  M. de Wergifosse,  M. Diedenhofen,  Hainam Do,  
 S. Ehlert,  Po-Tung Fang,  S. Fatehi,  Qingguo Feng,  T. Friedhoff,  
 J. Gayvert,  Qinghui Ge,  G. Gidofalvi,  M. Goldey,  J. Gomes,  
 C. Gonzalez-Espinoza,  S. Gulania,  A. Gunina,  M. W. D. Hanson-Heine,  
 P. H. P. Harbach,  A. W. Hauser,  M. F. Herbst,  M. Hernandez Vera,  
 M. Hodecker,  Z. C. Holden,  S. Houck,  Xunkun Huang,  Kerwin Hui,  
 B. C. Huynh,  M. Ivanov,  Hyunjun Ji,  Hanjie Jiang,  B. Kaduk,  S. Kaehler,  
 K. Khistyaev,  Jaehoon Kim,  P. Klunzinger,  Z. Koczor-Benda,  
 Joong Hoon Koh,  D. Kosenkov,  L. Koulias,  T. Kowalczyk,  C. M. Krauter,  
 K. Kue,  A. Kunitsa,  T. Kus,  A. Landau,  K. V. Lawler,  D. Lefrancois,  
 S. Lehtola,  Rain Li,  Yi-Pei Li,  Jiashu Liang,  M. Liebenthal,  
 Hung-Hsuan Lin,  You-Sheng Lin,  Fenglai Liu,  Kuan-Yu Liu,  
 M. Loipersberger,  A. Luenser,  A. Manjanath,  P. Manohar,  E. Mansoor,  
 S. F. Manzer,  Shan-Ping Mao,  A. V. Marenich,  T. Markovich,  S. Mason,  
 S. A. Maurer,  P. F. McLaughlin,  M. F. S. J. Menger,  J.-M. Mewes,  
 S. A. Mewes,  P. Morgante,  J. W. Mullinax,  K. J. Oosterbaan,  G. Paran,  
 Alexander C. Paul,  Suranjan K. Paul,  F. Pavosevic,  Zheng Pei,  S. Prager,  
 E. I. Proynov,  E. Ramos,  B. Rana,  A. E. Rask,  A. Rettig,  R. M. Richard,  
 F. Rob,  E. Rossomme,  T. Scheele,  M. Scheurer,  M. Schneider,  
 N. Sergueev,  S. M. Sharada,  W. Skomorowski,  D. W. Small,  C. J. Stein,  
 Yu-Chuan Su,  E. J. Sundstrom,  Zhen Tao,  J. Thirman,  T. Tsuchimochi,  
 N. M. Tubman,  S. P. Veccham,  O. Vydrov,  J. Wenzel,  J. Witte,  A. Yamada,  
 Kun Yao,  S. Yeganeh,  S. R. Yost,  A. Zech,  Igor Ying Zhang,  Xing Zhang,  
 Yu Zhang,  D. Zuev,  A. Aspuru-Guzik,  A. T. Bell,  N. A. Besley,  
 K. B. Bravaya,  B. R. Brooks,  D. Casanova,  Jeng-Da Chai,  S. Coriani,  
 C. J. Cramer,  A. E. DePrince, III,  R. A. DiStasio Jr.,  A. Dreuw,  
 B. D. Dunietz,  T. R. Furlani,  W. A. Goddard III,  S. Grimme,  
 S. Hammes-Schiffer,  T. Head-Gordon,  W. J. Hehre,  Chao-Ping Hsu,  
 T.-C. Jagau,  Yousung Jung,  A. Klamt,  Jing Kong,  D. S. Lambrecht,  
 WanZhen Liang,  N. J. Mayhall,  C. W. McCurdy,  J. B. Neaton,  T. Neudecker,  
 C. Ochsenfeld,  J. A. Parkhill,  R. Peverati,  V. A. Rassolov,  Yihan Shao,  
 L. V. Slipchenko,  R. P. Steele,  J. E. Subotnik,  A. J. W. Thom,  
 A. Tkatchenko,  D. G. Truhlar,  T. Van Voorhis,  T. A. Wesolowski,  
 K. B. Whaley,  H. L. Woodcock III,  P. M. Zimmerman,  S. Faraji,  
 P. M. W. Gill,  M. Head-Gordon,  J. M. Herbert,  A. I. Krylov

 Additional authors since Version 5.4.0: 
 Chandrima Chakravarty,  L. Cunha,  R. Kang,  Yongbin Kim,  S. Kotaru,  
 Shaozhi Li,  Xiangyuan Li,  F. Matz,  A. Molle,  V. Parravicini,  
 Haisheng Ren,  Hengyuan Shen,  Yingli Su,  Hung-Yi Tsai,  C. Utku,  
 Fang Wang,  Jeff Yang,  F. Zeller

 Contributors to earlier versions of Q-Chem not listed above: 
 R. D. Adamson,  B. Austin,  R. Baer,  J. Baker,  G. J. O. Beran,  
 K. Brandhorst,  S. T. Brown,  E. F. C. Byrd,  Arup K. Chakraborty,  
 G. K. L. Chan,  Chun-Min Chang,  Yunqing Chen,  C.-L. Cheng,  
 Siu Hung Chien,  D. M. Chipman,  D. L. Crittenden,  H. Dachsel,  
 R. J. Doerksen,  A. D. Dutoi,  R. G. Edgar,  J. Fosso-Tande,  
 L. Fusti-Molnar,  D. Ghosh,  A. Ghysels,  A. Golubeva-Zadorozhnaya,  
 J. Gonthier,  M. S. Gordon,  S. R. Gwaltney,  G. Hawkins,  J. E. Herr,  
 A. Heyden,  S. Hirata,  E. G. Hohenstein,  G. Kedziora,  F. J. Keil,  
 C. Kelley,  Jihan Kim,  R. A. King,  R. Z. Khaliullin,  P. P. Korambath,  
 W. Kurlancheek,  A. Laurent,  A. M. Lee,  M. S. Lee,  S. V. Levchenko,  
 Ching Yeh Lin,  D. Liotard,  E. Livshits,  R. C. Lochan,  I. Lotan,  
 L. A. Martinez-Martinez,  P. E. Maslen,  N. Nair,  D. P. O'Neill,  
 D. Neuhauser,  E. Neuscamman,  C. M. Oana,  R. Olivares-Amaya,  R. Olson,  
 T. M. Perrine,  B. Peters,  P. A. Pieniazek,  A. Prociuk,  Y. M. Rhee,  
 J. Ritchie,  M. A. Rohrdanz,  E. Rosta,  N. J. Russ,  H. F. Schaefer III,  
 M. W. Schmidt,  N. E. Schultz,  S. Sharma,  N. Shenvi,  C. D. Sherrill,  
 A. C. Simmonett,  A. Sodt,  T. Stein,  D. Stuck,  K. S. Thanthiriwatte,  
 V. Vanovschi,  L. Vogt,  Tao Wang,  A. Warshel,  M. A. Watson,  
 C. F. Williams,  Q. Wu,  X. Xu,  Jun Yang,  W. Zhang,  Yan Zhao

   Please cite Q-Chem as follows:
  "Software for the frontiers of quantum chemistry:
   An overview of developments in the Q-Chem 5 package"
   J. Chem. Phys. 155, 084801 (2021)
   https://doi.org/10.1063/5.0055522 (open access)

 Q-Chem 5.4.2 for Intel X86 EM64T Linux

 Parts of Q-Chem use Armadillo 9.900.5 (Nocturnal Misbehaviour).
 http://arma.sourceforge.net/

 Q-Chem begins on Thu May 12 15:51:59 2022  

 Host: 
0

     Scratch files written to /tmp/scratch//
 Dec1321 |scratch|qcdevops|jenkins|workspace|build_RNUM 7600   
 Processing $rem in /clusterfs/mp/software/qchem5.4/config/preferences:
 Processing $rem in /global/home/users/smblau/.qchemrc:
 Symmetry turned off for PCM/SM12/SMD calculation

 Checking the input file for inconsistencies... 	...done.

--------------------------------------------------------------
User input:
--------------------------------------------------------------
$molecule
0 2
N      0.1280200000      0.2012000000     -0.0598900000
C      1.0911000000     -0.7938100000      0.5545300000
C     -0.8488200000      0.6354800000      1.0047300000
C     -0.5808400000     -0.4625600000     -1.2179300000
C      0.8581100000      1.4144700000     -0.5797700000
C      2.1162700000     -0.2245100000      1.5212400000
C     -1.9791900000      1.5442100000      0.5511600000
C     -1.4714600000     -1.6397600000     -0.8585000000
C      1.9653500000      1.1476500000     -1.5884100000
C      2.9523100000     -1.3639200000      2.1057900000
C     -2.9353100000      1.8107500000      1.7139500000
C     -2.0120500000     -2.2834300000     -2.1353900000
C      2.7152700000      2.4444000000     -1.8902300000
C      4.0422000000     -0.8642400000      3.0466900000
C     -4.0849500000      2.7299300000      1.3186900000
C     -2.8729300000     -3.5082800000     -1.8522900000
C      3.8077100000      2.2502700000     -2.9349600000
H      1.5791700000     -1.3072600000     -0.2822400000
H      0.4702800000     -1.5272000000      1.0781300000
H     -0.2588800000      1.1343700000      1.7801500000
H     -1.2562000000     -0.2817200000      1.4422300000
H      0.2017500000     -0.8188000000     -1.8950500000
H     -1.1541300000      0.3203800000     -1.7250400000
H      1.2526400000      1.9373200000      0.2981700000
H      0.1005200000      2.0610700000     -1.0322800000
H      1.6338800000      0.3238300000      2.3422400000
H      2.7887500000      0.4785900000      1.0120600000
H     -2.5428000000      1.0871600000     -0.2734000000
H     -1.5865300000      2.5026500000      0.1853400000
H     -2.3140200000     -1.3325200000     -0.2230200000
H     -0.8996700000     -2.3946500000     -0.3015200000
H      1.5503300000      0.7421500000     -2.5200700000
H      2.6726600000      0.3954900000     -1.2174800000
H      3.4059100000     -1.9342900000      1.2806900000
H      2.2901300000     -2.0622900000      2.6398100000
H     -2.3754000000      2.2543100000      2.5516500000
H     -3.3348300000      0.8522600000      2.0795200000
H     -1.1650900000     -2.5715300000     -2.7753700000
H     -2.5930200000     -1.5378900000     -2.7000500000
H      3.1559300000      2.8332200000     -0.9589700000
H      2.0009000000      3.2073400000     -2.2368100000
H      3.6085600000     -0.3157700000      3.8951100000
H      4.7311800000     -0.1861600000      2.5230600000
H      4.6297200000     -1.6994800000      3.4492100000
H     -4.6778900000      2.2884000000      0.5047200000
H     -3.7082300000      3.7024500000      0.9704000000
H     -4.7572900000      2.9109600000      2.1671900000
H     -3.7362400000     -3.2495200000     -1.2222600000
H     -2.2918300000     -4.2797500000     -1.3263800000
H     -3.2527800000     -3.9484200000     -2.7834000000
H      3.3833700000      1.8902900000     -3.8833000000
H      4.5473700000      1.5101000000     -2.5970900000
H      4.3369900000      3.1909400000     -3.1351100000
H      4.0568000000      7.0505700000      6.2993400000
H      2.5574000000      6.1161700000      6.2669400000
C      3.6076000000      6.1153700000      5.9341400000
H      4.2899000000      4.9893700000      7.6407400000
C      4.3625000000      4.9360700000      6.5447400000
H      1.1233000000      6.5845700000      3.9754400000
H      3.3826000000      7.1339700000      4.0401400000
C      3.6321000000      6.1297700000      4.4043400000
H      5.4324000000      5.0438700000      6.2989400000
C      1.4618000000      5.8173700000      3.2635400000
H      2.8506000000      3.3882700000      6.3821400000
C      3.8968000000      3.5563700000      6.0793400000
H     -0.0274000000      4.4675700000      4.0436400000
N      2.6850000000      5.2157700000      3.7820400000
H      4.6500000000      5.9238700000      4.0413400000
C      0.3817000000      4.7687700000      3.0673400000
H      1.6760000000      6.3320700000      2.3116400000
H     -0.4418000000      5.1895700000      2.4764400000
H      4.4955000000      2.7961700000      6.6006400000
C      2.8691000000      3.8608700000      3.7612400000
C      4.0230000000      3.3096700000      4.5666400000
H      4.9770000000      3.7206700000      4.1995400000
C      0.9949000000      3.5510700000      2.3860400000
N      2.1128000000      3.0176700000      3.1406400000
H      4.0414000000      2.2342700000      4.3623400000
H      0.2431000000      2.7593700000      2.2603400000
H      1.3274000000      3.8308700000      1.3694400000
$end

$rem
job_type = opt
basis = def2-svpd
max_scf_cycles = 200
gen_scfman = true
xc_grid = 3
thresh = 14
scf_algorithm = diis
resp_charges = true
symmetry = false
sym_ignore = true
method = wb97xd
geom_opt_max_cycles = 200
solvent_method = pcm
geom_opt2 = 3
$end

$pcm
heavypoints 194
hpoints 194
radii uff
theory cpcm
vdwscale 1.1
$end

$solvent
dielectric 38.88
$end

$geom_opt
maxiter = 200
$end
--------------------------------------------------------------
 ----------------------------------------------------------------
             Standard Nuclear Orientation (Angstroms)
    I     Atom           X                Y                Z
 ----------------------------------------------------------------
    1      N       0.1280200000     0.2012000000    -0.0598900000
    2      C       1.0911000000    -0.7938100000     0.5545300000
    3      C      -0.8488200000     0.6354800000     1.0047300000
    4      C      -0.5808400000    -0.4625600000    -1.2179300000
    5      C       0.8581100000     1.4144700000    -0.5797700000
    6      C       2.1162700000    -0.2245100000     1.5212400000
    7      C      -1.9791900000     1.5442100000     0.5511600000
    8      C      -1.4714600000    -1.6397600000    -0.8585000000
    9      C       1.9653500000     1.1476500000    -1.5884100000
   10      C       2.9523100000    -1.3639200000     2.1057900000
   11      C      -2.9353100000     1.8107500000     1.7139500000
   12      C      -2.0120500000    -2.2834300000    -2.1353900000
   13      C       2.7152700000     2.4444000000    -1.8902300000
   14      C       4.0422000000    -0.8642400000     3.0466900000
   15      C      -4.0849500000     2.7299300000     1.3186900000
   16      C      -2.8729300000    -3.5082800000    -1.8522900000
   17      C       3.8077100000     2.2502700000    -2.9349600000
   18      H       1.5791700000    -1.3072600000    -0.2822400000
   19      H       0.4702800000    -1.5272000000     1.0781300000
   20      H      -0.2588800000     1.1343700000     1.7801500000
   21      H      -1.2562000000    -0.2817200000     1.4422300000
   22      H       0.2017500000    -0.8188000000    -1.8950500000
   23      H      -1.1541300000     0.3203800000    -1.7250400000
   24      H       1.2526400000     1.9373200000     0.2981700000
   25      H       0.1005200000     2.0610700000    -1.0322800000
   26      H       1.6338800000     0.3238300000     2.3422400000
   27      H       2.7887500000     0.4785900000     1.0120600000
   28      H      -2.5428000000     1.0871600000    -0.2734000000
   29      H      -1.5865300000     2.5026500000     0.1853400000
   30      H      -2.3140200000    -1.3325200000    -0.2230200000
   31      H      -0.8996700000    -2.3946500000    -0.3015200000
   32      H       1.5503300000     0.7421500000    -2.5200700000
   33      H       2.6726600000     0.3954900000    -1.2174800000
   34      H       3.4059100000    -1.9342900000     1.2806900000
   35      H       2.2901300000    -2.0622900000     2.6398100000
   36      H      -2.3754000000     2.2543100000     2.5516500000
   37      H      -3.3348300000     0.8522600000     2.0795200000
   38      H      -1.1650900000    -2.5715300000    -2.7753700000
   39      H      -2.5930200000    -1.5378900000    -2.7000500000
   40      H       3.1559300000     2.8332200000    -0.9589700000
   41      H       2.0009000000     3.2073400000    -2.2368100000
   42      H       3.6085600000    -0.3157700000     3.8951100000
   43      H       4.7311800000    -0.1861600000     2.5230600000
   44      H       4.6297200000    -1.6994800000     3.4492100000
   45      H      -4.6778900000     2.2884000000     0.5047200000
   46      H      -3.7082300000     3.7024500000     0.9704000000
   47      H      -4.7572900000     2.9109600000     2.1671900000
   48      H      -3.7362400000    -3.2495200000    -1.2222600000
   49      H      -2.2918300000    -4.2797500000    -1.3263800000
   50      H      -3.2527800000    -3.9484200000    -2.7834000000
   51      H       3.3833700000     1.8902900000    -3.8833000000
   52      H       4.5473700000     1.5101000000    -2.5970900000
   53      H       4.3369900000     3.1909400000    -3.1351100000
   54      H       4.0568000000     7.0505700000     6.2993400000
   55      H       2.5574000000     6.1161700000     6.2669400000
   56      C       3.6076000000     6.1153700000     5.9341400000
   57      H       4.2899000000     4.9893700000     7.6407400000
   58      C       4.3625000000     4.9360700000     6.5447400000
   59      H       1.1233000000     6.5845700000     3.9754400000
   60      H       3.3826000000     7.1339700000     4.0401400000
   61      C       3.6321000000     6.1297700000     4.4043400000
   62      H       5.4324000000     5.0438700000     6.2989400000
   63      C       1.4618000000     5.8173700000     3.2635400000
   64      H       2.8506000000     3.3882700000     6.3821400000
   65      C       3.8968000000     3.5563700000     6.0793400000
   66      H      -0.0274000000     4.4675700000     4.0436400000
   67      N       2.6850000000     5.2157700000     3.7820400000
   68      H       4.6500000000     5.9238700000     4.0413400000
   69      C       0.3817000000     4.7687700000     3.0673400000
   70      H       1.6760000000     6.3320700000     2.3116400000
   71      H      -0.4418000000     5.1895700000     2.4764400000
   72      H       4.4955000000     2.7961700000     6.6006400000
   73      C       2.8691000000     3.8608700000     3.7612400000
   74      C       4.0230000000     3.3096700000     4.5666400000
   75      H       4.9770000000     3.7206700000     4.1995400000
   76      C       0.9949000000     3.5510700000     2.3860400000
   77      N       2.1128000000     3.0176700000     3.1406400000
   78      H       4.0414000000     2.2342700000     4.3623400000
   79      H       0.2431000000     2.7593700000     2.2603400000
   80      H       1.3274000000     3.8308700000     1.3694400000
 ----------------------------------------------------------------
 Nuclear Repulsion Energy =        2906.87671542 hartrees
 There are      112 alpha and      111 beta electrons
 Requested basis set is def2-SVPD
 There are 432 shells and 976 basis functions

 Total QAlloc Memory Limit  96000 MB
 Mega-Array Size       188 MB
 MEM_STATIC part       192 MB
 -----------------------------------------------------------------------
                STARTING GEOMETRY OPTIMIZER USING LIBOPT3
                by Peter F. McLaughlin, Yu Zhang, Evgeny Epifanovsky
 -----------------------------------------------------------------------
  Checking Topology for Ill-Behaving Coordinates
  Done Checking Topology
              Initial Energy and Gradient Calculation

	Performing Iterative Coordinate Back-Transformation

	  Starting from Previous Position
	  iter:	0	rms: 0.000000	maxdev: 0.000000	 Success!

	Finished Iterative Coordinate Back-Transformation
 ----------------------------------------------------------------
             Standard Nuclear Orientation (Angstroms)
    I     Atom           X                Y                Z
 ----------------------------------------------------------------
    1      N       0.1280200000     0.2012000000    -0.0598900000
    2      C       1.0911000000    -0.7938100000     0.5545300000
    3      C      -0.8488200000     0.6354800000     1.0047300000
    4      C      -0.5808400000    -0.4625600000    -1.2179300000
    5      C       0.8581100000     1.4144700000    -0.5797700000
    6      C       2.1162700000    -0.2245100000     1.5212400000
    7      C      -1.9791900000     1.5442100000     0.5511600000
    8      C      -1.4714600000    -1.6397600000    -0.8585000000
    9      C       1.9653500000     1.1476500000    -1.5884100000
   10      C       2.9523100000    -1.3639200000     2.1057900000
   11      C      -2.9353100000     1.8107500000     1.7139500000
   12      C      -2.0120500000    -2.2834300000    -2.1353900000
   13      C       2.7152700000     2.4444000000    -1.8902300000
   14      C       4.0422000000    -0.8642400000     3.0466900000
   15      C      -4.0849500000     2.7299300000     1.3186900000
   16      C      -2.8729300000    -3.5082800000    -1.8522900000
   17      C       3.8077100000     2.2502700000    -2.9349600000
   18      H       1.5791700000    -1.3072600000    -0.2822400000
   19      H       0.4702800000    -1.5272000000     1.0781300000
   20      H      -0.2588800000     1.1343700000     1.7801500000
   21      H      -1.2562000000    -0.2817200000     1.4422300000
   22      H       0.2017500000    -0.8188000000    -1.8950500000
   23      H      -1.1541300000     0.3203800000    -1.7250400000
   24      H       1.2526400000     1.9373200000     0.2981700000
   25      H       0.1005200000     2.0610700000    -1.0322800000
   26      H       1.6338800000     0.3238300000     2.3422400000
   27      H       2.7887500000     0.4785900000     1.0120600000
   28      H      -2.5428000000     1.0871600000    -0.2734000000
   29      H      -1.5865300000     2.5026500000     0.1853400000
   30      H      -2.3140200000    -1.3325200000    -0.2230200000
   31      H      -0.8996700000    -2.3946500000    -0.3015200000
   32      H       1.5503300000     0.7421500000    -2.5200700000
   33      H       2.6726600000     0.3954900000    -1.2174800000
   34      H       3.4059100000    -1.9342900000     1.2806900000
   35      H       2.2901300000    -2.0622900000     2.6398100000
   36      H      -2.3754000000     2.2543100000     2.5516500000
   37      H      -3.3348300000     0.8522600000     2.0795200000
   38      H      -1.1650900000    -2.5715300000    -2.7753700000
   39      H      -2.5930200000    -1.5378900000    -2.7000500000
   40      H       3.1559300000     2.8332200000    -0.9589700000
   41      H       2.0009000000     3.2073400000    -2.2368100000
   42      H       3.6085600000    -0.3157700000     3.8951100000
   43      H       4.7311800000    -0.1861600000     2.5230600000
   44      H       4.6297200000    -1.6994800000     3.4492100000
   45      H      -4.6778900000     2.2884000000     0.5047200000
   46      H      -3.7082300000     3.7024500000     0.9704000000
   47      H      -4.7572900000     2.9109600000     2.1671900000
   48      H      -3.7362400000    -3.2495200000    -1.2222600000
   49      H      -2.2918300000    -4.2797500000    -1.3263800000
   50      H      -3.2527800000    -3.9484200000    -2.7834000000
   51      H       3.3833700000     1.8902900000    -3.8833000000
   52      H       4.5473700000     1.5101000000    -2.5970900000
   53      H       4.3369900000     3.1909400000    -3.1351100000
   54      H       4.0568000000     7.0505700000     6.2993400000
   55      H       2.5574000000     6.1161700000     6.2669400000
   56      C       3.6076000000     6.1153700000     5.9341400000
   57      H       4.2899000000     4.9893700000     7.6407400000
   58      C       4.3625000000     4.9360700000     6.5447400000
   59      H       1.1233000000     6.5845700000     3.9754400000
   60      H       3.3826000000     7.1339700000     4.0401400000
   61      C       3.6321000000     6.1297700000     4.4043400000
   62      H       5.4324000000     5.0438700000     6.2989400000
   63      C       1.4618000000     5.8173700000     3.2635400000
   64      H       2.8506000000     3.3882700000     6.3821400000
   65      C       3.8968000000     3.5563700000     6.0793400000
   66      H      -0.0274000000     4.4675700000     4.0436400000
   67      N       2.6850000000     5.2157700000     3.7820400000
   68      H       4.6500000000     5.9238700000     4.0413400000
   69      C       0.3817000000     4.7687700000     3.0673400000
   70      H       1.6760000000     6.3320700000     2.3116400000
   71      H      -0.4418000000     5.1895700000     2.4764400000
   72      H       4.4955000000     2.7961700000     6.6006400000
   73      C       2.8691000000     3.8608700000     3.7612400000
   74      C       4.0230000000     3.3096700000     4.5666400000
   75      H       4.9770000000     3.7206700000     4.1995400000
   76      C       0.9949000000     3.5510700000     2.3860400000
   77      N       2.1128000000     3.0176700000     3.1406400000
   78      H       4.0414000000     2.2342700000     4.3623400000
   79      H       0.2431000000     2.7593700000     2.2603400000
   80      H       1.3274000000     3.8308700000     1.3694400000
 ----------------------------------------------------------------
 Nuclear Repulsion Energy =        2906.87671542 hartrees
 There are      112 alpha and      111 beta electrons
 Discretize the solute cavity surface with Lebedev spheres
	Using 194 Lebedev grid points for each H atom
	Using 194 Lebedev grid points for other atoms
	Atomic van der Waals radii will be scaled by 1.10
 Remove points where switching function is < 1.0e-08
 Keep 5523 surface tesserae and discard 9997 interior tesserae
 Molecular Surface Area = 595.469 Angst**2
 Requested basis set is def2-SVPD
 There are 432 shells and 976 basis functions
 A cutoff of  1.0D-14 yielded  71684 shell pairs
 There are    362514 function pairs (    405887 Cartesian)
 Smallest overlap matrix eigenvalue = 5.99E-06

 Scale SEOQF with 1.000000e-02/1.000000e-02/1.000000e-02

 Standard Electronic Orientation quadrupole field applied
 Guess from superposition of atomic densities
 Warning:  Energy on first SCF cycle will be non-variational
 SAD guess density has 223.000000 electrons

 -----------------------------------------------------------------------
  General SCF calculation program by
  Eric Jon Sundstrom, Paul Horn, Yuezhi Mao, Dmitri Zuev, Alec White,
  David Stuck, Shaama M.S., Shane Yost, Joonho Lee, David Small,
  Daniel Levine, Susi Lehtola, Hugh Burton, Evgeny Epifanovsky,
  Bang C. Huynh
 -----------------------------------------------------------------------
 Exchange:     0.2220 Hartree-Fock + 1.0000 wB97X-D + LR-HF
 Correlation:  1.0000 wB97X-D
 Using SG-3 standard quadrature grid
 Dispersion:   Grimme D
 using 40 threads for integral computing
 -------------------------------------------------------
 OpenMP Integral computing Module                
 Release: version 1.0, May 2013, Q-Chem Inc. Pittsburgh 
 -------------------------------------------------------
 A unrestricted SCF calculation will be
 performed using DIIS
 SCF converges when DIIS error is below 1.0e-08
 ---------------------------------------
  Cycle       Energy         DIIS error
 ---------------------------------------
    1   -1155.4900931398      9.56e-03  
    2   -1146.6366735454      8.61e-04  
    3   -1146.6595925243      9.02e-04  
    4   -1147.0208276919      1.35e-04  
    5   -1147.0294665997      5.76e-05  
    6   -1147.0318530883      1.76e-05  
    7   -1147.0327628129      1.46e-05  
    8   -1147.0337923336      1.42e-05  
    9   -1147.0341868769      1.44e-05  
   10   -1147.0321181094      1.39e-05  
   11   -1147.0287343605      2.32e-05  
   12   -1147.0303065049      2.14e-05  
   13   -1147.0320380965      2.07e-05  
   14   -1147.0329837664      2.14e-05  
   15   -1147.0330304479      2.16e-05  
   16   -1147.0328459556      2.25e-05  
   17   -1147.0322887614      2.26e-05  
   18   -1147.0328784953      2.23e-05  
   19   -1147.0326420878      2.21e-05  
   20   -1147.0326645484      2.20e-05  
   21   -1147.0330880716      2.20e-05  
   22   -1147.0323382435      2.27e-05  
   23   -1147.0324612493      2.29e-05  
   24   -1147.0340777120      2.07e-05  
   25   -1147.0359925610      1.88e-05  
   26   -1147.0377856707      1.85e-05  
   27   -1147.0285586624      1.19e-05  
   28   -1147.0267260125      2.47e-05  
   29   -1147.0327543769      2.00e-05  
   30   -1147.0324551307      3.18e-05  
   31   -1147.0336664806      3.10e-05  
   32   -1147.0341583924      3.02e-05  
   33   -1147.0342087147      2.93e-05  
   34   -1147.0342297601      2.93e-05  
   35   -1147.0340967467      2.95e-05  
   36   -1147.0339889889      2.94e-05  
   37   -1147.0339710481      2.89e-05  
   38   -1147.0340526196      2.92e-05  
   39   -1147.0338942622      2.90e-05  
   40   -1147.0352156161      2.73e-05  
   41   -1147.0346414816      2.76e-05  
   42   -1147.0371587864      2.35e-05  
   43   -1147.0381748346      1.97e-05  
   44   -1147.0373343479      1.83e-05  
   45   -1147.0393153973      1.98e-05  
   46   -1147.0388418217      1.94e-05  
   47   -1147.0291335816      4.94e-05  
   48   -1147.0296373784      4.64e-05  
   49   -1147.0300040527      4.42e-05  
   50   -1147.0295361010      4.75e-05  
   51   -1147.0298269251      4.50e-05  
   52   -1147.0299945805      4.46e-05  
   53   -1147.0302775343      4.19e-05  
   54   -1147.0299956782      4.35e-05  
   55   -1147.0290742087      5.04e-05  
   56   -1147.0289036259      5.13e-05  
   57   -1147.0284551815      5.43e-05  
   58   -1147.0283319701      5.56e-05  
   59   -1147.0284867850      5.45e-05  
   60   -1147.0349502297      2.13e-05  
   61   -1147.0358146412      2.04e-05  
   62   -1147.0366975936      2.02e-05  
   63   -1147.0322308359      2.80e-05  
   64   -1147.0319586372      2.95e-05  
   65   -1147.0313862875      3.24e-05  
   66   -1147.0311870977      3.27e-05  
   67   -1147.0319940002      2.85e-05  
   68   -1147.0315829322      3.02e-05  
   69   -1147.0330943768      2.58e-05  
   70   -1147.0328622047      2.70e-05  
   71   -1147.0305644383      3.66e-05  
   72   -1147.0296937328      3.98e-05  
   73   -1147.0299415870      3.89e-05  
   74   -1147.0302041429      3.78e-05  
   75   -1147.0330897472      2.81e-05  
   76   -1147.0357187076      2.39e-05  
   77   -1147.0383679679      2.30e-05  
   78   -1147.0364361068      2.33e-05  
   79   -1147.0306053475      4.78e-05  
   80   -1147.0290684053      5.16e-05  
   81   -1147.0290452564      5.17e-05  
   82   -1147.0289299305      5.21e-05  
   83   -1147.0287172947      5.30e-05  
   84   -1147.0290799710      5.20e-05  
   85   -1147.0290791222      4.99e-05  
   86   -1147.0289938829      4.89e-05  
   87   -1147.0286849387      5.09e-05  
   88   -1147.0283928054      5.21e-05  
   89   -1147.0280258012      5.46e-05  
   90   -1147.0278721969      5.57e-05  
   91   -1147.0293762583      4.69e-05  
   92   -1147.0338645587      1.92e-05  
   93   -1147.0347175787      1.74e-05  
   94   -1147.0358446775      1.80e-05  
   95   -1147.0291515477      3.28e-05  
   96   -1147.0277743075      3.99e-05  
   97   -1147.0287657247      3.54e-05  
   98   -1147.0297409706      3.52e-05  
   99   -1147.0299725875      3.34e-05  
  100   -1147.0297933244      3.39e-05  
  101   -1147.0297725879      3.39e-05  
  102   -1147.0299026428      3.22e-05  
  103   -1147.0291804299      3.56e-05  
  104   -1147.0297111088      3.35e-05  
  105   -1147.0297786999      3.33e-05  
  106   -1147.0298300912      3.31e-05  
  107   -1147.0329437205      2.57e-05  
  108   -1147.0333218311      2.46e-05  
  109   -1147.0322556202      2.59e-05  
  110   -1147.0324993453      2.48e-05  
  111   -1147.0353058824      2.20e-05  
  112   -1147.0355349883      2.16e-05  
  113   -1147.0358303565      2.23e-05  
  114   -1147.0371765718      2.30e-05  
  115   -1147.0369817222      2.28e-05  
  116   -1147.0367067227      2.33e-05  
  117   -1147.0367632805      2.21e-05  
  118   -1147.0363788144      2.06e-05  
  119   -1147.0379142645      2.22e-05  
  120   -1147.0376308706      2.18e-05  
  121   -1147.0373224097      1.98e-05  
  122   -1147.0362754277      1.40e-05  
  123   -1147.0361315871      1.51e-05  
  124   -1147.0368490757      1.55e-05  
  125   -1147.0313841296      2.64e-05  
  126   -1147.0318710990      2.49e-05  
  127   -1147.0315199002      3.56e-05  
  128   -1147.0315722346      2.87e-05  
  129   -1147.0307967665      3.14e-05  
  130   -1147.0287445232      4.05e-05  
  131   -1147.0295356301      3.78e-05  
  132   -1147.0296637469      3.72e-05  
  133   -1147.0298440371      3.69e-05  
  134   -1147.0299438741      3.54e-05  
  135   -1147.0296849688      3.73e-05  
  136   -1147.0293894827      3.81e-05  
  137   -1147.0286242017      4.18e-05  
  138   -1147.0291882749      3.86e-05  
  139   -1147.0316120453      2.13e-05  
  140   -1147.0313017155      2.08e-05  
  141   -1147.0340433110      1.77e-05  
  142   -1147.0322347972      1.87e-05  
  143   -1147.0277591602      3.65e-05  
  144   -1147.0308349971      2.03e-05  
  145   -1147.0293756423      2.93e-05  
  146   -1147.0298483109      2.69e-05  
  147   -1147.0301930359      2.51e-05  
  148   -1147.0304851831      2.40e-05  
  149   -1147.0308686354      2.26e-05  
  150   -1147.0306965909      2.41e-05  
  151   -1147.0304577743      2.47e-05  
  152   -1147.0305142966      2.45e-05  
  153   -1147.0307277369      2.25e-05  
  154   -1147.0310354662      2.17e-05  
  155   -1147.0311395661      2.08e-05  
  156   -1147.0302777006      2.48e-05  
  157   -1147.0342717895      1.28e-05  
  158   -1147.0332283571      1.33e-05  
  159   -1147.0323047935      1.54e-05  
  160   -1147.0318963712      1.69e-05  
  161   -1147.0322037359      1.55e-05  
  162   -1147.0328794001      1.28e-05  
  163   -1147.0330759326      1.21e-05  
  164   -1147.0335079164      1.07e-05  
  165   -1147.0345057884      7.93e-06  
  166   -1147.0351606190      7.30e-06  
  167   -1147.0353305449      6.81e-06  
  168   -1147.0356670821      6.57e-06  
  169   -1147.0360033399      5.03e-06  
  170   -1147.0361117413      5.25e-06  
  171   -1147.0361670380      8.23e-06  
  172   -1147.0359517098      6.31e-06  
  173   -1147.0360114860      1.00e-05  
  174   -1147.0359262618      1.08e-05  
  175   -1147.0356425687      4.54e-06  
  176   -1147.0350646593      5.43e-06  
  177   -1147.0353957988      4.81e-06  
  178   -1147.0361087002      5.41e-06  
  179   -1147.0363678094      6.04e-06  
  180   -1147.0362785382      5.70e-06  
  181   -1147.0362254394      5.62e-06  
  182   -1147.0361529261      5.58e-06  
  183   -1147.0361405369      5.43e-06  
  184   -1147.0362323276      5.43e-06  
  185   -1147.0363395022      5.60e-06  
  186   -1147.0362052080      5.45e-06  
  187   -1147.0360820468      5.38e-06  
  188   -1147.0362215207      5.58e-06  
  189   -1147.0363344539      5.83e-06  
  190   -1147.0361840085      5.73e-06  
  191   -1147.0361874267      5.74e-06  
  192   -1147.0348522462      7.54e-06  
  193   -1147.0358786895      5.39e-06  
  194   -1147.0356852151      6.09e-06  
  195   -1147.0356681280      5.98e-06  
  196   -1147.0356663976      5.83e-06  
  197   -1147.0356608854      5.93e-06  
  198   -1147.0356711212      5.79e-06  
  199   -1147.0355069852      6.17e-06  
  200   -1147.0355362002      6.08e-06  
gen_scfman_exception: SCF failed to converge

 Q-Chem fatal error occurred in module libgscf/gen_scfman/gen_scfman_main.C, line 243:

 Error in gen_scfman


 Please submit a crash report at q-chem.com/reporter 
 
 
