       N       E                     dE             d eps       ncg     rms          rms(c)
DAV:   1     0.450724605593E+04    0.45072E+04   -0.17777E+05 16576   0.160E+03

DAV:   2     0.143824705755E+03   -0.43634E+04   -0.40120E+04 17280   0.469E+02

DAV:   3    -0.512073149912E+03   -0.65590E+03   -0.63590E+03 18405   0.186E+02

DAV:   4    -0.547713139455E+03   -0.35640E+02   -0.35298E+02 20112   0.484E+01

DAV:   5    -0.548546701358E+03   -0.83356E+00   -0.83160E+00 20424   0.701E+00    0.851E+01
RMM:   6    -0.488463750887E+03    0.60083E+02   -0.22324E+02 16576   0.296E+01    0.311E+01
RMM:   7    -0.520702913810E+03   -0.32239E+02   -0.53291E+01 16697   0.140E+01    0.130E+01
RMM:   8    -0.525419918550E+03   -0.47170E+01   -0.84190E+00 16584   0.484E+00    0.709E+00
RMM:   9    -0.526342032122E+03   -0.92211E+00   -0.27049E+00 16671   0.314E+00    0.217E+00
RMM:  10    -0.526354974277E+03   -0.12942E-01   -0.29020E-01 16576   0.125E+00    0.859E-01
RMM:  11    -0.526356026600E+03   -0.10523E-02   -0.10044E-01 16703   0.654E-01    0.433E-01
RMM:  12    -0.526360653810E+03   -0.46272E-02   -0.15722E-02 17580   0.312E-01    0.271E-01
RMM:  13    -0.526359966037E+03    0.68777E-03   -0.26716E-03 16713   0.122E-01    0.997E-02
RMM:  14    -0.526360251133E+03   -0.28510E-03   -0.18964E-03 17598   0.940E-02    0.604E-02
RMM:  15    -0.526360228029E+03    0.23104E-04   -0.18211E-04 16576   0.314E-02    0.231E-02
RMM:  16    -0.526360231855E+03   -0.38256E-05   -0.90542E-05 16769   0.199E-02    0.866E-03
RMM:  17    -0.526360234086E+03   -0.22317E-05   -0.49177E-06 11241   0.633E-03    0.345E-03
RMM:  18    -0.526360235093E+03   -0.10063E-05   -0.36187E-06 10717   0.423E-03

   1 F= -.52636024E+03 E0= -.52636024E+03  d E =-.526360E+03  mag=     0.0000
       N       E                     dE             d eps       ncg     rms          rms(c)
DAV:   1    -0.528323643964E+03   -0.19634E+01   -0.91186E+01 21736   0.334E+01    0.108E+01
RMM:   2    -0.526488080859E+03    0.18356E+01   -0.97948E+00 16576   0.761E+00    0.316E+00
RMM:   3    -0.526341040064E+03    0.14704E+00   -0.90250E-01 17379   0.221E+00    0.112E+00