
Running Job 1 of 1 mol.qin
qchem mol.qin_156777.0 /tmp/scratch/ 0
/clusterfs/mp/software/qchem/exe/qcprog.exe_s mol.qin_156777.0 /tmp/scratch/
                  Welcome to Q-Chem
     A Quantum Leap Into The Future Of Chemistry


 Q-Chem 5.2, Q-Chem, Inc., Pleasanton, CA (2019)

 Yihan Shao,  Zhengting Gan,  E. Epifanovsky,  A. T. B. Gilbert,  M. Wormit,  
 J. Kussmann,  A. W. Lange,  A. Behn,  Jia Deng,  Xintian Feng,  D. Ghosh,  
 M. Goldey,  P. R. Horn,  L. D. Jacobson,  I. Kaliman,  T. Kus,  A. Landau,  
 Jie Liu,  E. I. Proynov,  R. M. Richard,  R. P. Steele,  E. J. Sundstrom,  
 H. L. Woodcock III,  P. M. Zimmerman,  D. Zuev,  B. Alam,  B. Albrecht,  
 E. Alguire,  S. A. Baeppler,  D. Barton,  Z. Benda,  Y. A. Bernard,  
 E. J. Berquist,  K. B. Bravaya,  H. Burton,  K. Carter-Fenk,  D. Casanova,  
 Chun-Min Chang,  Yunqing Chen,  A. Chien,  K. D. Closser,  M. P. Coons,  
 S. Coriani,  S. Dasgupta,  A. L. Dempwolff,  M. Diedenhofen,  Hainam Do,  
 R. G. Edgar,  Po-Tung Fang,  S. Faraji,  S. Fatehi,  Qingguo Feng,  
 J. Fosso-Tande,  J. Gayvert,  Qinghui Ge,  A. Ghysels,  G. Gidofalvi,  
 J. Gomes,  J. Gonthier,  A. Gunina,  D. Hait,  M. W. D. Hanson-Heine,  
 P. H. P. Harbach,  A. W. Hauser,  M. F. Herbst,  J. E. Herr,  
 E. G. Hohenstein,  Z. C. Holden,  Kerwin Hui,  B. C. Huynh,  T.-C. Jagau,  
 Hyunjun Ji,  B. Kaduk,  K. Khistyaev,  Jaehoon Kim,  P. Klunzinger,  K. Koh,  
 D. Kosenkov,  L. Koulias,  T. Kowalczyk,  C. M. Krauter,  A. Kunitsa,  
 Ka Un Lao,  A. Laurent,  K. V. Lawler,  Joonho Lee,  D. Lefrancois,  
 S. Lehtola,  D. S. Levine,  Yi-Pei Li,  You-Sheng Lin,  Fenglai Liu,  
 Kuan-Yu Liu,  E. Livshits,  M. Loipersberger,  A. Luenser,  P. Manohar,  
 E. Mansoor,  S. F. Manzer,  Shan-Ping Mao,  Yuezhi Mao,  N. Mardirossian,  
 A. V. Marenich,  T. Markovich,  L. A. Martinez-Martinez,  S. A. Maurer,  
 N. J. Mayhall,  S. C. McKenzie,  J.-M. Mewes,  P. Morgante,  A. F. Morrison,  
 J. W. Mullinax,  K. Nanda,  T. S. Nguyen-Beck,  R. Olivares-Amaya,  
 J. A. Parkhill,  S. K. Paul,  Zheng Pei,  T. M. Perrine,  F. Plasser,  
 P. Pokhilko,  S. Prager,  A. Prociuk,  E. Ramos,  B. Rana,  D. R. Rehn,  
 F. Rob,  M. Scheurer,  M. Schneider,  N. Sergueev,  S. M. Sharada,  
 S. Sharma,  D. W. Small,  T. Stauch,  C. J. Stein,  T. Stein,  Yu-Chuan Su,  
 S. P. Veccham,  A. J. W. Thom,  A. Tkatchenko,  T. Tsuchimochi,  
 N. M. Tubman,  L. Vogt,  M. L. Vidal,  O. Vydrov,  M. A. Watson,  J. Wenzel,  
 M. de Wergifosse,  T. A. Wesolowski,  A. White,  J. Witte,  A. Yamada,  
 Jun Yang,  K. Yao,  S. Yeganeh,  S. R. Yost,  Zhi-Qiang You,  A. Zech,  
 Igor Ying Zhang,  Xing Zhang,  Yan Zhao,  Ying Zhu,  B. R. Brooks,  
 G. K. L. Chan,  C. J. Cramer,  M. S. Gordon,  W. J. Hehre,  A. Klamt,  
 M. W. Schmidt,  C. D. Sherrill,  D. G. Truhlar,  A. Aspuru-Guzik,  R. Baer,  
 A. T. Bell,  N. A. Besley,  Jeng-Da Chai,  A. E. DePrince, III,  
 R. A. DiStasio Jr.,  A. Dreuw,  B. D. Dunietz,  T. R. Furlani,  
 Chao-Ping Hsu,  Yousung Jung,  Jing Kong,  D. S. Lambrecht,  WanZhen Liang,  
 C. Ochsenfeld,  V. A. Rassolov,  L. V. Slipchenko,  J. E. Subotnik,  
 T. Van Voorhis,  J. M. Herbert,  A. I. Krylov,  P. M. W. Gill,  M. Head-Gordon

 Contributors to earlier versions of Q-Chem not listed above: 
 R. D. Adamson,  B. Austin,  J. Baker,  G. J. O. Beran,  K. Brandhorst,  
 S. T. Brown,  E. F. C. Byrd,  A. K. Chakraborty,  C.-L. Cheng,  
 Siu Hung Chien,  D. M. Chipman,  D. L. Crittenden,  H. Dachsel,  
 R. J. Doerksen,  A. D. Dutoi,  L. Fusti-Molnar,  W. A. Goddard III,  
 A. Golubeva-Zadorozhnaya,  S. R. Gwaltney,  G. Hawkins,  A. Heyden,  
 S. Hirata,  G. Kedziora,  F. J. Keil,  C. Kelley,  Jihan Kim,  R. A. King,  
 R. Z. Khaliullin,  P. P. Korambath,  W. Kurlancheek,  A. M. Lee,  M. S. Lee,  
 S. V. Levchenko,  Ching Yeh Lin,  D. Liotard,  R. C. Lochan,  I. Lotan,  
 P. E. Maslen,  N. Nair,  D. P. O'Neill,  D. Neuhauser,  E. Neuscamman,  
 C. M. Oana,  R. Olson,  B. Peters,  R. Peverati,  P. A. Pieniazek,  
 Y. M. Rhee,  J. Ritchie,  M. A. Rohrdanz,  E. Rosta,  N. J. Russ,  
 H. F. Schaefer III,  N. E. Schultz,  N. Shenvi,  A. C. Simmonett,  A. Sodt,  
 D. Stuck,  K. S. Thanthiriwatte,  V. Vanovschi,  Tao Wang,  A. Warshel,  
 C. F. Williams,  Q. Wu,  X. Xu,  W. Zhang

 Please cite Q-Chem as follows:
 Y. Shao et al., Mol. Phys. 113, 184-215 (2015)
 DOI: 10.1080/00268976.2014.952696

 Q-Chem 5.2.2 for Intel X86 EM64T Linux

 Parts of Q-Chem use Armadillo 8.300.2 (Tropical Shenanigans).
 http://arma.sourceforge.net/

 Q-Chem begins on Fri Jan  8 14:10:26 2021  

Host: 
0

     Scratch files written to /tmp/scratch//
 Nov2519 |scratch|qcdevops|jenkins|workspace|build_RNUM 6829   
Processing $rem in /clusterfs/mp/software/qchem/config/preferences:
	 MEM_TOTAL  96000 
NAlpha2: 48
NElect   48
Mult     1
Symmetry turned off for PCM/SM12/SMD calculation

Checking the input file for inconsistencies... 	...done.

--------------------------------------------------------------
User input:
--------------------------------------------------------------
$molecule
0 1
C     -2.3718468652     -2.4124047956     -3.3775915326
O     -3.6120259411     -3.2922661182     -4.7958280166
O     -2.0162247849     -1.4315594550     -3.9160605123
C     -3.7576298011     -2.6648345237     -5.9336854509
C     -4.5075755061     -3.0452414997     -6.9892041110
O     -2.4674450196     -3.2189715674     -2.5284647972
H     -4.5378586765     -2.4273119398     -7.8772595440
H     -3.1970589669     -1.7251100746     -6.0161730298
H     -5.0896500047     -3.9609580097     -6.9820861765
Li     -4.3483344339     -4.9250220163     -4.2340068292
$end

$rem
job_type = freq
basis = def2-tzvppd
max_scf_cycles = 200
gen_scfman = true
xc_grid = 3
scf_algorithm = diis
resp_charges = true
symmetry = false
sym_ignore = true
method = wb97xd
solvent_method = pcm
thresh = 14
$end

$pcm
heavypoints 194
hpoints 194
radii uff
theory cpcm
vdwscale 1.1
$end

$solvent
dielectric 89.78
$end
--------------------------------------------------------------
 ----------------------------------------------------------------
             Standard Nuclear Orientation (Angstroms)
    I     Atom           X                Y                Z
 ----------------------------------------------------------------
    1      C      -2.3718468652    -2.4124047956    -3.3775915326
    2      O      -3.6120259411    -3.2922661182    -4.7958280166
    3      O      -2.0162247849    -1.4315594550    -3.9160605123
    4      C      -3.7576298011    -2.6648345237    -5.9336854509
    5      C      -4.5075755061    -3.0452414997    -6.9892041110
    6      O      -2.4674450196    -3.2189715674    -2.5284647972
    7      H      -4.5378586765    -2.4273119398    -7.8772595440
    8      H      -3.1970589669    -1.7251100746    -6.0161730298
    9      H      -5.0896500047    -3.9609580097    -6.9820861765
   10      Li     -4.3483344339    -4.9250220163    -4.2340068292
 ----------------------------------------------------------------
 Nuclear Repulsion Energy =         229.99314830 hartrees
 There are       24 alpha and       24 beta electrons
 Requested basis set is def2-TZVPPD
 There are 112 shells and 304 basis functions

 Total QAlloc Memory Limit  96000 MB
 Mega-Array Size       188 MB
 MEM_STATIC part       192 MB
 Discretize the solute cavity surface with Lebedev spheres
	Using 194 Lebedev grid points for each H atom
	Using 194 Lebedev grid points for other atoms
	Atomic van der Waals radii will be scaled by 1.10
 Remove points where switching function is < 1.0e-08
 Keep 1036 surface tesserae and discard 904 interior tesserae
 Molecular Surface Area = 150.223 Angst**2

                       Distance Matrix (Angstroms)
             C (  1)   O (  2)   O (  3)   C (  4)   C (  5)   O (  6)
   O (  2)  2.079326
   O (  3)  1.174084  2.604381
   C (  4)  2.918515  1.307513  2.936711
   C (  5)  4.243296  2.382001  4.272588  1.349536
   O (  6)  1.175034  2.540940  2.307350  3.683364  4.908208
   H (  7)  4.993880  3.331746  4.800131  2.107761  1.082311  5.789900
   H (  8)  2.848765  2.029142  2.427141  1.097327  2.099283  3.863686
   H (  9)  4.772510  2.722177  5.024372  2.133860  1.085080  5.221230
   Li( 10)  3.309561  1.877148  4.212375  2.888994  3.339168  3.058958
             H (  7)   H (  8)   H (  9)
   H (  8)  2.398849
   H (  9)  1.859537  3.084462
   Li( 10)  4.421285  3.839399  3.005147
 
 A cutoff of  1.0D-14 yielded   5925 shell pairs
 There are     44157 function pairs (     56544 Cartesian)
 Smallest overlap matrix eigenvalue = 5.99E-06
 Guess from superposition of atomic densities
 Warning:  Energy on first SCF cycle will be non-variational
 SAD guess density has 48.000000 electrons

 -----------------------------------------------------------------------
  General SCF calculation program by
  Eric Jon Sundstrom, Paul Horn, Yuezhi Mao, Dmitri Zuev, Alec White,
  David Stuck, Shaama M.S., Shane Yost, Joonho Lee, David Small,
  Daniel Levine, Susi Lehtola, Hugh Burton, Evgeny Epifanovsky,
  Bang C. Huynh
 -----------------------------------------------------------------------
 Exchange:     0.2220 Hartree-Fock + 1.0000 wB97X-D + LR-HF
 Correlation:  1.0000 wB97X-D
 Using SG-3 standard quadrature grid
 Dispersion:   Grimme D
 using 40 threads for integral computing
 -------------------------------------------------------
 OpenMP Integral computing Module                
 Release: version 1.0, May 2013, Q-Chem Inc. Pittsburgh 
 -------------------------------------------------------
 using 40 threads for integral computing
 -------------------------------------------------------
 OpenMP Integral computing Module                
 Release: version 1.0, May 2013, Q-Chem Inc. Pittsburgh 
 -------------------------------------------------------
 A restricted SCF calculation will be
 performed using DIIS
 SCF converges when DIIS error is below 1.0e-08
 ---------------------------------------
  Cycle       Energy         DIIS error
 ---------------------------------------
    1    -350.2047717698      2.64e-02  
    2    -349.2535831717      4.76e-03  
    3    -349.2096051638      5.75e-03  
    4    -349.4577072112      4.83e-04  
    5    -349.4594752300      2.61e-04  
    6    -349.4600556864      8.66e-05  
    7    -349.4601237795      2.43e-05  
    8    -349.4601325787      7.20e-06  
    9    -349.4601338441      3.05e-06  
   10    -349.4601341019      1.72e-06  
   11    -349.4601341499      8.00e-07  
   12    -349.4601341602      2.20e-07  
   13    -349.4601341614      6.48e-08  
   14    -349.4601341615      1.27e-08  
   15    -349.4601341615      2.98e-09  Convergence criterion met
 ---------------------------------------
 SCF time:   CPU 1364.02s  wall 45.00s 

************** Final PCM Free Energy Summary **************
 G_electrostatic  =      -0.07328156 hartree =     -45.98487108 kcal/mol
 G_cavitation     =       0.00000000 hartree =       0.00000000 kcal/mol
 G_dispersion     =       0.00000000 hartree =       0.00000000 kcal/mol
 G_repulsion      =       0.00000000 hartree =       0.00000000 kcal/mol
 --------------------------------------------------
 Non-electrostatic Free Energy =       0.00000000 hartree =       0.00000000 kcal/mol
 Total                         =      -0.07328156 hartree =     -45.98487108 kcal/mol
 --------------------------------------------------
 SCF Energy (H0 + V/2)                       =    -349.46013416 
 Solute Internal Energy (H0)                 =    -349.38685260 
 Total Free Energy (H0 + V/2 + non-elec)     =    -349.46013416 hartree
                                             = -219289.54392330 kcal/mol
***********************************************************

 SCF   energy in the final basis set =     -349.4601341615
 Total energy in the final basis set =     -349.4601341615
 
 --------------------------------------------------------------
 
                    Orbital Energies (a.u.)
 --------------------------------------------------------------
 
 Alpha MOs
 -- Occupied --
-19.2823 -19.2803 -19.2008 -10.4502 -10.3139 -10.2371  -2.0276  -1.2232
 -1.1706  -1.0770  -0.8075  -0.6371  -0.6233  -0.5942  -0.5774  -0.5710
 -0.5163  -0.5052  -0.4408  -0.4328  -0.4205  -0.4142  -0.3384  -0.2769
 -- Virtual --
  0.0393   0.0512   0.0513   0.0556   0.0837   0.0986   0.1059   0.1060
  0.1266   0.1284   0.1328   0.1358   0.1469   0.1500   0.1571   0.1578
  0.1718   0.1752   0.1815   0.1966   0.2006   0.2089   0.2191   0.2380
  0.2439   0.2659   0.2663   0.2684   0.2735   0.3078   0.3128   0.3134
  0.3271   0.3331   0.3358   0.3543   0.3591   0.3751   0.3789   0.3917
  0.3927   0.4058   0.4106   0.4165   0.4223   0.4272   0.4310   0.4429
  0.4542   0.4643   0.4698   0.4777   0.4849   0.4886   0.4954   0.5070
  0.5076   0.5228   0.5334   0.5401   0.5603   0.5752   0.5815   0.5915
  0.5990   0.6074   0.6184   0.6199   0.6355   0.6367   0.6419   0.6471
  0.6611   0.6781   0.6853   0.7165   0.7271   0.7370   0.7411   0.7487
  0.7619   0.7780   0.7862   0.7946   0.8054   0.8222   0.8402   0.8492
  0.8668   0.8845   0.8903   0.9106   0.9110   0.9218   0.9259   0.9522
  0.9547   0.9739   0.9843   1.0012   1.0133   1.0333   1.0807   1.0928
  1.1154   1.1161   1.1470   1.1801   1.2034   1.2114   1.2440   1.2502
  1.2659   1.2696   1.2819   1.2880   1.3252   1.3590   1.3940   1.4229
  1.4300   1.4488   1.5187   1.5267   1.5739   1.6072   1.6340   1.7158
  1.7365   1.7379   1.7641   1.7993   1.8123   1.8598   1.8913   1.8948
  1.9329   1.9498   1.9618   1.9827   1.9939   2.0225   2.0354   2.0503
  2.0945   2.1179   2.1804   2.2352   2.2452   2.2760   2.3362   2.3969
  2.4103   2.4368   2.4726   2.5191   2.5748   2.6093   2.6738   2.6779
  2.8160   2.8440   2.8772   2.8803   2.9433   2.9477   2.9681   2.9887
  2.9935   3.0126   3.0297   3.0857   3.0980   3.1063   3.1658   3.1702
  3.1944   3.1997   3.2206   3.2638   3.2814   3.3064   3.3308   3.3634
  3.3706   3.3968   3.4193   3.4472   3.4877   3.5138   3.5249   3.5331
  3.5585   3.5933   3.6147   3.6347   3.6613   3.6945   3.7737   3.8069
  3.8576   3.8674   3.9001   3.9198   3.9535   4.0170   4.0419   4.0662
  4.1279   4.1532   4.1832   4.1950   4.3339   4.3513   4.4338   4.4536
  4.4806   4.7173   4.7286   4.8001   4.8084   4.8811   4.9356   4.9952
  5.0213   5.0730   5.1099   5.1502   5.1978   5.2259   5.2455   5.2830
  5.3270   5.3515   5.3705   5.4170   5.4272   5.4475   5.6233   5.6402
  5.6581   5.7970   5.7993   5.8322   5.8831   6.0839   6.1000   6.1280
  6.1455   6.2260   6.2761   6.3569   6.5039   6.5255   6.5537   6.5588
  6.6106   6.6305   6.6555   6.6801   6.7010   6.8544   6.8719   6.8994
  6.9263   6.9518   7.1640   7.1809   7.2354   7.3511   7.4339   7.6342
  7.7455  14.9843  23.4311  23.8652  24.1541  44.2016  44.3795  44.4606
 --------------------------------------------------------------
 
          Ground-State Mulliken Net Atomic Charges

     Atom                 Charge (a.u.)
  ----------------------------------------
      1 C                     0.911186
      2 O                    -0.909053
      3 O                    -0.507784
      4 C                     0.391430
      5 C                    -0.939772
      6 O                    -0.532744
      7 H                     0.251938
      8 H                     0.184744
      9 H                     0.194041
     10 Li                    0.956013
  ----------------------------------------
  Sum of atomic charges =     0.000000

  Building new vdw surfaces
         Merz-Kollman RESP Net Atomic Charges

     Atom                 Charge (a.u.)
  ----------------------------------------
      1 C                     0.749704
      2 O                    -0.613347
      3 O                    -0.481225
      4 C                     0.223894
      5 C                    -0.963419
      6 O                    -0.481225
      7 H                     0.264079
      8 H                     0.096408
      9 H                     0.264079
     10 Li                    0.941054
  ----------------------------------------
  Sum of atomic charges =     0.000000

  Related Dipole Moment =     9.3584 (X -4.0654 Y -8.1758 Z  2.0516)

 -----------------------------------------------------------------
                    Cartesian Multipole Moments
 -----------------------------------------------------------------
    Charge (ESU x 10^10)
                 0.0000
    Dipole Moment (Debye)
         X      -4.0841      Y      -8.2344      Z       2.0918
       Tot       9.4266
    Quadrupole Moments (Debye-Ang)
        XX      -8.9548     XY      47.4163     YY      26.2246
        XZ       5.8856     YZ      28.4504     ZZ     -65.5691
    Octopole Moments (Debye-Ang^2)
       XXX     214.7471    XXY    -141.3352    XYY    -196.7885
       YYY     -83.3268    XXZ     114.8257    XYZ    -167.6583
       YYZ     -71.9374    XZZ     181.5373    YZZ      46.9133
       ZZZ     792.8451
    Hexadecapole Moments (Debye-Ang^3)
      XXXX   -1899.7686   XXXY     135.1703   XXYY     791.4350
      XYYY     815.4731   YYYY     365.1708   XXXZ   -1524.6061
      XXYZ     382.6935   XYYZ     625.2792   YYYZ     113.9419
      XXZZ   -1494.8087   XYZZ      98.0158   YYZZ    -404.8101
      XZZZ   -2705.6951   YZZZ   -1731.2804   ZZZZ   -7729.0168
 -----------------------------------------------------------------
 Calculating MO derivatives via CPSCF
 Computing fast CPCM-SWIG hessian.
   1         3          30      0.402351    0.031667
   2         3          30      0.081956    0.008889
   3         3          30      0.012460    0.001809
   4         3          30      0.001965    0.000302
   5         3          30      0.000263    0.000038
   6        22          11      0.000022    0.000005
   7        33           0      0.000000    0.000000    Roots Converged
 Time for AOints: 330.8 s (CPU) 8.4 s (wall)
 ------------------------------------------------------------------------------
                     AOints        : Timing summary (seconds)
 ------------------------------------------------------------------------------
     job step          cpu (% of tot)      sys (% of tot)     wall (% of tot)
 ------------------------------------------------------------------------------
  cpscf_lag         0.4532E+04 (59.3)   0.3083E-02 (67.7)   0.1299E+03 (54.5)
  iterzp            0.2780E+04 (36.4)   0.1370E-02 (30.1)   0.1000E+03 (41.9)
  make_fx           0.0000E+00 ( 0.0)   0.0000E+00 ( 0.0)   0.0000E+00 ( 0.0)
  AOints            0.3308E+03 ( 4.3)   0.9800E-04 ( 2.2)   0.8351E+01 ( 3.5)
 ------------------------------------------------------------------------------
   Grand Totals     0.7645E+04          0.4555E-02          0.2385E+03
 ------------------------------------------------------------------------------
 Calculating analytic Hessian of the SCF energy
 Polarizability Matrix (a.u.)
            1           2           3
    1 -69.9500319  -7.5298894 -17.6761507
    2  -7.5298894 -70.1265548   1.9134022
    3 -17.6761507   1.9134022 -95.9192606
atom: 0 element: 6
atom: 1 element: 8
atom: 2 element: 8
atom: 3 element: 6
atom: 4 element: 6
atom: 5 element: 8
atom: 6 element: 1
atom: 7 element: 1
atom: 8 element: 1
atom: 9 element: 3
 
 Direct stationary perturbation theory relativistic correction:
 
 rels  =       0.117494822219
 relv  =      -0.515870198308
 rel2e =       0.000000000000
 E_rel =      -0.398375376089
 
 Computing fast CPCM-SWIG hessian
 Hessian of the SCF Energy
            1           2           3           4           5           6
    1   0.1721997   0.2068145  -0.2174983   0.0116976   0.0057041   0.0449152
    2   0.2068145   1.0201042  -0.7096348   0.0120700  -0.0189255   0.0327147
    3  -0.2174983  -0.7096348   0.6253564   0.0362945   0.0194328   0.0372662
    4   0.0116976   0.0120700   0.0362945   0.0619956   0.0238875   0.0535335
    5   0.0057041  -0.0189255   0.0194328   0.0238875   0.1967469  -0.1888684
    6   0.0449152   0.0327147   0.0372662   0.0535335  -0.1888684   0.3762174
    7  -0.1124247  -0.1807767   0.1248918  -0.0154945  -0.0190051  -0.0213483
    8  -0.1687160  -0.5721151   0.3218216  -0.0262540  -0.0152433  -0.0261992
    9   0.1092706   0.2969642  -0.2226776  -0.0116512  -0.0107545  -0.0033520
   10  -0.0004333   0.0059479  -0.0025018  -0.0786233  -0.0137255  -0.0274067
   11   0.0221171   0.0182727   0.0182971  -0.0097749  -0.1617839   0.1239586
   12  -0.0240780  -0.0155969  -0.0324935  -0.0343579   0.1150131  -0.2822269
   13   0.0040955   0.0016499   0.0048660   0.0087644   0.0120095  -0.0282908
   14  -0.0034683  -0.0037887  -0.0014562   0.0151783   0.0209250   0.0226966
   15   0.0118957   0.0093764   0.0127747  -0.0319198   0.0137819  -0.0721201
   16  -0.0721903  -0.0401128   0.0563688  -0.0026386   0.0036508  -0.0232278
   17  -0.0512723  -0.4335769   0.3597268   0.0020021   0.0084083   0.0008645
   18   0.0706603   0.3826263  -0.4272607  -0.0203844   0.0043007  -0.0428383
   19   0.0014109   0.0003297   0.0006032   0.0046812  -0.0053962  -0.0059502
   20  -0.0003905   0.0003147  -0.0000121  -0.0045875   0.0029387   0.0010367
   21   0.0015520   0.0014782   0.0021944  -0.0073141  -0.0004404  -0.0034490
   22  -0.0014529  -0.0007011  -0.0011305   0.0113482  -0.0027719   0.0040632
   23  -0.0037402  -0.0046477  -0.0025597  -0.0075306  -0.0207398   0.0230260
   24   0.0030022   0.0041216   0.0003370   0.0116642   0.0362360  -0.0132267
   25  -0.0000425  -0.0001788   0.0005352  -0.0033981   0.0045214   0.0027383
   26   0.0004728   0.0000020   0.0007326   0.0035614  -0.0000850  -0.0025990
   27  -0.0003151  -0.0006132  -0.0000482   0.0040402  -0.0007404   0.0018494
   28  -0.0028599  -0.0050423  -0.0024289   0.0016676  -0.0088746   0.0009735
   29  -0.0075212  -0.0056395  -0.0063480  -0.0085523  -0.0122413   0.0133694
   30   0.0005955  -0.0014366   0.0045512   0.0000949   0.0120392   0.0018800
            7           8           9          10          11          12
    1  -0.1124247  -0.1687160   0.1092706  -0.0004333   0.0221171  -0.0240780
    2  -0.1807767  -0.5721151   0.2969642   0.0059479   0.0182727  -0.0155969
    3   0.1248918   0.3218216  -0.2226776  -0.0025018   0.0182971  -0.0324935
    4  -0.0154945  -0.0262540  -0.0116512  -0.0786233  -0.0097749  -0.0343579
    5  -0.0190051  -0.0152433  -0.0107545  -0.0137255  -0.1617839   0.1150131
    6  -0.0213483  -0.0261992  -0.0033520  -0.0274067   0.1239586  -0.2822269
    7   0.1045258   0.2246046  -0.1141948   0.0003740  -0.0091266   0.0103123
    8   0.2246046   0.6491916  -0.3600864  -0.0014233  -0.0120303   0.0144892
    9  -0.1141948  -0.3600864   0.2533260   0.0000329  -0.0018293   0.0034476
   10   0.0003740  -0.0014233   0.0000329   0.3875053   0.2153663   0.2156823
   11  -0.0091266  -0.0120303  -0.0018293   0.2153663   0.5034550  -0.0445202
   12   0.0103123   0.0144892   0.0034476   0.2156823  -0.0445202   0.6512958
   13  -0.0014939  -0.0017210  -0.0008432  -0.1832693  -0.0917074  -0.1607762
   14   0.0008657   0.0023155  -0.0012500  -0.0781940  -0.1173762  -0.0684110
   15  -0.0042540  -0.0066156  -0.0001869  -0.1786627  -0.0859285  -0.2951895
   16   0.0234805  -0.0316711   0.0200691  -0.0011753  -0.0070893   0.0029199
   17  -0.0215847  -0.0620264   0.0805416  -0.0011404   0.0006744  -0.0009137
   18   0.0071352   0.0600551  -0.0287264  -0.0049369  -0.0129513   0.0090668
   19  -0.0004261  -0.0004202   0.0000318  -0.0039482   0.0135442  -0.0148092
   20   0.0002860   0.0000732   0.0002681  -0.0039133   0.0031369  -0.0160326
   21  -0.0009009  -0.0012002  -0.0004849   0.0115777   0.0169467  -0.0088031
   22  -0.0000340   0.0012720  -0.0009436  -0.1160701  -0.1111351  -0.0013326
   23   0.0013227   0.0033960  -0.0020931  -0.1166909  -0.2219426   0.0030902
   24  -0.0011545  -0.0025723   0.0004237   0.0034665   0.0083213  -0.0458375
   25  -0.0001762  -0.0000243  -0.0003882  -0.0059717  -0.0196716   0.0025340
   26  -0.0003391  -0.0002793  -0.0003065  -0.0058523  -0.0055184   0.0030389
   27   0.0000248   0.0003393  -0.0003673  -0.0184124  -0.0277540   0.0040073
   28   0.0016692   0.0043533  -0.0013834   0.0016119  -0.0025226   0.0039055
   29   0.0037533   0.0067180  -0.0014541  -0.0003743  -0.0068876   0.0098431
   30  -0.0005117  -0.0000313  -0.0014024   0.0011612   0.0054597  -0.0032672
           13          14          15          16          17          18
    1   0.0040955  -0.0034683   0.0118957  -0.0721903  -0.0512723   0.0706603
    2   0.0016499  -0.0037887   0.0093764  -0.0401128  -0.4335769   0.3826263
    3   0.0048660  -0.0014562   0.0127747   0.0563688   0.3597268  -0.4272607
    4   0.0087644   0.0151783  -0.0319198  -0.0026386   0.0020021  -0.0203844
    5   0.0120095   0.0209250   0.0137819   0.0036508   0.0084083   0.0043007
    6  -0.0282908   0.0226966  -0.0721201  -0.0232278   0.0008645  -0.0428383
    7  -0.0014939   0.0008657  -0.0042540   0.0234805  -0.0215847   0.0071352
    8  -0.0017210   0.0023155  -0.0066156  -0.0316711  -0.0620264   0.0600551
    9  -0.0008432  -0.0012500  -0.0001869   0.0200691   0.0805416  -0.0287264
   10  -0.1832693  -0.0781940  -0.1786627  -0.0011753  -0.0011404  -0.0049369
   11  -0.0917074  -0.1173762  -0.0859285  -0.0070893   0.0006744  -0.0129513
   12  -0.1607762  -0.0684110  -0.2951895   0.0029199  -0.0009137   0.0090668
   13   0.3131912   0.2302462   0.2324314  -0.0006531   0.0011276  -0.0024346
   14   0.2302462   0.4811569  -0.0910085   0.0013805   0.0007632   0.0016301
   15   0.2324314  -0.0910085   0.6547233  -0.0028415   0.0010608  -0.0074118
   16  -0.0006531   0.0013805  -0.0028415   0.0508312   0.0689039  -0.0545724
   17   0.0011276   0.0007632   0.0010608   0.0689039   0.4853720  -0.4439099
   18  -0.0024346   0.0016301  -0.0074118  -0.0545724  -0.4439099   0.4992304
   19  -0.0207898  -0.0118238  -0.0131928  -0.0005244   0.0002297  -0.0005294
   20  -0.0058474  -0.1349075   0.1545102   0.0001752  -0.0001973   0.0000710
   21  -0.0253619   0.1443758  -0.2454789  -0.0004713   0.0001959  -0.0016324
   22  -0.0021778  -0.0186320  -0.0008509   0.0005246  -0.0000942   0.0005230
   23  -0.0061789  -0.0049936   0.0028385   0.0007684   0.0006037   0.0012502
   24  -0.0157166  -0.0201995   0.0036340  -0.0006084  -0.0004500  -0.0003281
   25  -0.1152497  -0.1350532  -0.0106324  -0.0000279   0.0001647  -0.0005033
   26  -0.1389141  -0.2454636   0.0065982  -0.0002571   0.0002397  -0.0006981
   27  -0.0020638   0.0177721  -0.0512924   0.0000542   0.0001756  -0.0000057
   28  -0.0024174  -0.0004995  -0.0019731   0.0023733   0.0016636   0.0050425
   29  -0.0006645   0.0013690  -0.0046136   0.0042516  -0.0002608   0.0076260
   30  -0.0018103  -0.0041494   0.0005476   0.0023094   0.0027084  -0.0000938
           19          20          21          22          23          24
    1   0.0014109  -0.0003905   0.0015520  -0.0014529  -0.0037402   0.0030022
    2   0.0003297   0.0003147   0.0014782  -0.0007011  -0.0046477   0.0041216
    3   0.0006032  -0.0000121   0.0021944  -0.0011305  -0.0025597   0.0003370
    4   0.0046812  -0.0045875  -0.0073141   0.0113482  -0.0075306   0.0116642
    5  -0.0053962   0.0029387  -0.0004404  -0.0027719  -0.0207398   0.0362360
    6  -0.0059502   0.0010367  -0.0034490   0.0040632   0.0230260  -0.0132267
    7  -0.0004261   0.0002860  -0.0009009  -0.0000340   0.0013227  -0.0011545
    8  -0.0004202   0.0000732  -0.0012002   0.0012720   0.0033960  -0.0025723
    9   0.0000318   0.0002681  -0.0004849  -0.0009436  -0.0020931   0.0004237
   10  -0.0039482  -0.0039133   0.0115777  -0.1160701  -0.1166909   0.0034665
   11   0.0135442   0.0031369   0.0169467  -0.1111351  -0.2219426   0.0083213
   12  -0.0148092  -0.0160326  -0.0088031  -0.0013326   0.0030902  -0.0458375
   13  -0.0207898  -0.0058474  -0.0253619  -0.0021778  -0.0061789  -0.0157166
   14  -0.0118238  -0.1349075   0.1443758  -0.0186320  -0.0049936  -0.0201995
   15  -0.0131928   0.1545102  -0.2454789  -0.0008509   0.0028385   0.0036340
   16  -0.0005244   0.0001752  -0.0004713   0.0005246   0.0007684  -0.0006084
   17   0.0002297  -0.0001973   0.0001959  -0.0000942   0.0006037  -0.0004500
   18  -0.0005294   0.0000710  -0.0016324   0.0005230   0.0012502  -0.0003281
   19   0.0225436   0.0095044   0.0180311  -0.0032025   0.0022420   0.0021228
   20   0.0095044   0.1400448  -0.1574897   0.0024470  -0.0005874  -0.0010209
   21   0.0180311  -0.1574897   0.2554514   0.0022015  -0.0015724   0.0001183
   22  -0.0032025   0.0024470   0.0022015   0.1062016   0.1332452   0.0028598
   23   0.0022420  -0.0005874  -0.0015724   0.1332452   0.2442410  -0.0233704
   24   0.0021228  -0.0010209   0.0001183   0.0028598  -0.0233704   0.0555388
   25   0.0003860   0.0022891   0.0009609   0.0040569  -0.0043792  -0.0053950
   26  -0.0079703  -0.0119079  -0.0003043  -0.0048810   0.0022121  -0.0008300
   27   0.0135937   0.0200181   0.0001121  -0.0047725   0.0001830  -0.0007620
   28  -0.0001306   0.0000370  -0.0002751   0.0008060   0.0009414  -0.0002410
   29  -0.0002395   0.0010920  -0.0019896   0.0012512   0.0024585  -0.0002357
   30   0.0000990  -0.0013488   0.0019722  -0.0006175  -0.0007924   0.0001024
           25          26          27          28          29          30
    1  -0.0000425   0.0004728  -0.0003151  -0.0028599  -0.0075212   0.0005955
    2  -0.0001788   0.0000020  -0.0006132  -0.0050423  -0.0056395  -0.0014366
    3   0.0005352   0.0007326  -0.0000482  -0.0024289  -0.0063480   0.0045512
    4  -0.0033981   0.0035614   0.0040402   0.0016676  -0.0085523   0.0000949
    5   0.0045214  -0.0000850  -0.0007404  -0.0088746  -0.0122413   0.0120392
    6   0.0027383  -0.0025990   0.0018494   0.0009735   0.0133694   0.0018800
    7  -0.0001762  -0.0003391   0.0000248   0.0016692   0.0037533  -0.0005117
    8  -0.0000243  -0.0002793   0.0003393   0.0043533   0.0067180  -0.0000313
    9  -0.0003882  -0.0003065  -0.0003673  -0.0013834  -0.0014541  -0.0014024
   10  -0.0059717  -0.0058523  -0.0184124   0.0016119  -0.0003743   0.0011612
   11  -0.0196716  -0.0055184  -0.0277540  -0.0025226  -0.0068876   0.0054597
   12   0.0025340   0.0030389   0.0040073   0.0039055   0.0098431  -0.0032672
   13  -0.1152497  -0.1389141  -0.0020638  -0.0024174  -0.0006645  -0.0018103
   14  -0.1350532  -0.2454636   0.0177721  -0.0004995   0.0013690  -0.0041494
   15  -0.0106324   0.0065982  -0.0512924  -0.0019731  -0.0046136   0.0005476
   16  -0.0000279  -0.0002571   0.0000542   0.0023733   0.0042516   0.0023094
   17   0.0001647   0.0002397   0.0001756   0.0016636  -0.0002608   0.0027084
   18  -0.0005033  -0.0006981  -0.0000057   0.0050425   0.0076260  -0.0000938
   19   0.0003860  -0.0079703   0.0135937  -0.0001306  -0.0002395   0.0000990
   20   0.0022891  -0.0119079   0.0200181   0.0000370   0.0010920  -0.0013488
   21   0.0009609  -0.0003043   0.0001121  -0.0002751  -0.0019896   0.0019722
   22   0.0040569  -0.0048810  -0.0047725   0.0008060   0.0012512  -0.0006175
   23  -0.0043792   0.0022121   0.0001830   0.0009414   0.0024585  -0.0007924
   24  -0.0053950  -0.0008300  -0.0007620  -0.0002410  -0.0002357   0.0001024
   25   0.1198948   0.1537493   0.0080289   0.0005285  -0.0014173   0.0021216
   26   0.1537493   0.2627130  -0.0094709   0.0004305  -0.0019126   0.0038392
   27   0.0080289  -0.0094709   0.0466780  -0.0001781   0.0000905  -0.0001713
   28   0.0005285   0.0004305  -0.0001781  -0.0032486   0.0095132  -0.0034420
   29  -0.0014173  -0.0019126   0.0000905   0.0095132   0.0153043  -0.0162880
   30   0.0021216   0.0038392  -0.0001713  -0.0034420  -0.0162880  -0.0041187
 Gradient time:  CPU 10610.58 s  wall 1132.62 s
 **********************************************************************
 **                                                                  **
 **                       VIBRATIONAL ANALYSIS                       **
 **                       --------------------                       **
 **                                                                  **
 **        VIBRATIONAL FREQUENCIES (CM**-1) AND NORMAL MODES         **
 **     FORCE CONSTANTS (mDYN/ANGSTROM) AND REDUCED MASSES (AMU)     **
 **                  INFRARED INTENSITIES (KM/MOL)                   **
 **                                                                  **
 **********************************************************************
 

 Mode:                 1                      2                      3
 Frequency:      -213.52                  78.54                  79.90
 Force Cnst:      0.2407                 0.0329                 0.0162
 Red. Mass:       8.9615                 9.0517                 4.3138
 IR Active:          YES                    YES                    YES
 IR Intens:      489.903                 75.592                 10.841
 Raman Active:       YES                    YES                    YES
               X      Y      Z        X      Y      Z        X      Y      Z
 C          0.336  0.214  0.414   -0.027  0.008 -0.022   -0.057 -0.018 -0.097
 O         -0.231 -0.214 -0.213   -0.120  0.015  0.082   -0.050 -0.177  0.071
 O          0.065  0.056  0.064    0.239 -0.180 -0.190   -0.155 -0.016 -0.168
 C         -0.137 -0.138 -0.113   -0.056  0.030  0.083    0.060 -0.048  0.130
 C         -0.078  0.083 -0.253   -0.056  0.130  0.049    0.152  0.250 -0.031
 O          0.102  0.051  0.154   -0.253  0.209  0.145    0.097  0.058 -0.002
 H          0.051  0.206 -0.177    0.035  0.167  0.071    0.360  0.453  0.100
 H         -0.082 -0.138 -0.017    0.019 -0.014  0.109    0.141 -0.083  0.318
 H         -0.150  0.124 -0.452   -0.143  0.185 -0.018    0.036  0.322 -0.360
 Li        -0.036 -0.058 -0.003    0.556 -0.437 -0.297   -0.096 -0.109  0.215
 TransDip   0.387  0.176  0.567    0.194 -0.159 -0.121   -0.078 -0.056  0.044

 Mode:                 4                      5                      6
 Frequency:       105.05                 167.35                 179.35
 Force Cnst:      0.0479                 0.1174                 0.0334
 Red. Mass:       7.3681                 7.1179                 1.7603
 IR Active:          YES                    YES                    YES
 IR Intens:       20.677                119.003                 14.334
 Raman Active:       YES                    YES                    YES
               X      Y      Z        X      Y      Z        X      Y      Z
 C         -0.039  0.018  0.015   -0.041 -0.070 -0.011   -0.021  0.008  0.008
 O          0.436 -0.268 -0.212   -0.045  0.060 -0.105   -0.011  0.016 -0.001
 O          0.022 -0.016 -0.006    0.026 -0.067  0.047   -0.048  0.030  0.031
 C          0.008 -0.002 -0.013   -0.068  0.073 -0.095    0.156 -0.099 -0.082
 C         -0.211  0.131  0.098    0.004  0.048 -0.137   -0.107  0.064  0.043
 O         -0.188  0.109  0.086   -0.116 -0.112 -0.056   -0.003 -0.012 -0.008
 H         -0.554  0.345  0.257   -0.018  0.084 -0.111    0.110 -0.076 -0.064
 H         -0.176  0.114  0.072   -0.141  0.123 -0.046    0.543 -0.344 -0.276
 H         -0.042  0.021  0.026    0.083 -0.002 -0.194   -0.509  0.323  0.238
 Li        -0.091  0.077  0.079    0.497  0.154  0.726    0.074 -0.015  0.016
 TransDip  -0.111  0.074  0.058    0.195  0.069  0.282    0.111 -0.048 -0.009

 Mode:                 7                      8                      9
 Frequency:       326.37                 448.31                 514.22
 Force Cnst:      0.6997                 0.7737                 0.5896
 Red. Mass:      11.1487                 6.5341                 3.7842
 IR Active:          YES                    YES                    YES
 IR Intens:       22.553                181.884                396.509
 Raman Active:       YES                    YES                    YES
               X      Y      Z        X      Y      Z        X      Y      Z
 C         -0.045 -0.181  0.144    0.059  0.063  0.036    0.136  0.101  0.141
 O          0.032  0.129 -0.098   -0.036 -0.149  0.119   -0.091 -0.063 -0.105
 O         -0.316 -0.315 -0.243   -0.010  0.023 -0.055   -0.077 -0.009 -0.145
 C          0.036  0.138 -0.114   -0.046 -0.185  0.153    0.137  0.173  0.051
 C         -0.022 -0.021 -0.020    0.023 -0.004  0.053    0.083 -0.009  0.184
 O          0.235  0.055  0.413   -0.115 -0.073 -0.139   -0.106 -0.085 -0.104
 H         -0.154 -0.159 -0.109    0.206  0.185  0.176   -0.223 -0.319 -0.012
 H          0.014  0.136 -0.179   -0.029 -0.189  0.211    0.171  0.160  0.133
 H          0.039 -0.059  0.198   -0.068  0.053 -0.250    0.246 -0.112  0.690
 Li         0.182  0.422 -0.168    0.289  0.662 -0.262   -0.010 -0.055  0.047
 TransDip   0.061  0.132 -0.044    0.231  0.365  0.001    0.355  0.183  0.497

 Mode:                10                     11                     12
 Frequency:       610.90                 711.18                 716.12
 Force Cnst:      1.4262                 0.4122                 1.6530
 Red. Mass:       6.4862                 1.3831                 5.4709
 IR Active:          YES                    YES                    YES
 IR Intens:      148.273                 35.492                 88.128
 Raman Active:       YES                    YES                    YES
               X      Y      Z        X      Y      Z        X      Y      Z
 C          0.192  0.104  0.231   -0.084  0.053  0.041    0.425 -0.275 -0.214
 O          0.241  0.263  0.155    0.048 -0.031 -0.023    0.004 -0.008 -0.005
 O         -0.132 -0.047 -0.201    0.029 -0.019 -0.014   -0.141  0.092  0.074
 C         -0.063 -0.115  0.032   -0.068  0.047  0.036   -0.064  0.045  0.032
 C         -0.045 -0.004 -0.086   -0.059  0.036  0.026   -0.044  0.027  0.019
 O         -0.129 -0.147 -0.068    0.029 -0.019 -0.015   -0.143  0.095  0.073
 H          0.250  0.277  0.086    0.758 -0.499 -0.374    0.604 -0.401 -0.301
 H         -0.158 -0.058 -0.237    0.025 -0.012 -0.008    0.025 -0.013 -0.006
 H         -0.191  0.086 -0.548    0.051 -0.032 -0.018    0.041 -0.026 -0.011
 Li        -0.085 -0.178  0.057   -0.000  0.001 -0.000    0.001  0.003 -0.001
 TransDip   0.137 -0.071  0.358    0.154 -0.094 -0.063    0.229 -0.152 -0.122

 Mode:                13                     14                     15
 Frequency:       785.74                1016.85                1042.07
 Force Cnst:      0.5598                 1.1149                 0.8156
 Red. Mass:       1.5390                 1.8301                 1.2748
 IR Active:          YES                    YES                    YES
 IR Intens:      100.890                 84.747                 22.534
 Raman Active:       YES                    YES                    YES
               X      Y      Z        X      Y      Z        X      Y      Z
 C         -0.001 -0.000  0.000    0.007  0.006  0.008   -0.001  0.001  0.001
 O         -0.040  0.027  0.018    0.040 -0.044  0.147    0.019 -0.013 -0.005
 O         -0.000 -0.000  0.000   -0.001  0.007 -0.011   -0.000  0.000 -0.000
 C          0.109 -0.071 -0.054   -0.011 -0.010 -0.030   -0.117  0.074  0.055
 C         -0.121  0.079  0.061   -0.018  0.100 -0.168    0.027 -0.013 -0.017
 O          0.000 -0.000  0.000   -0.008 -0.011 -0.001    0.000 -0.001 -0.000
 H         -0.002 -0.004 -0.005   -0.499 -0.399 -0.497   -0.174  0.093  0.063
 H          0.035 -0.021 -0.018    0.033 -0.026  0.199    0.712 -0.461 -0.349
 H          0.763 -0.491 -0.357    0.174 -0.038  0.453    0.241 -0.153 -0.097
 Li        -0.000 -0.000 -0.001    0.005  0.012 -0.006    0.001 -0.000 -0.001
 TransDip   0.250 -0.163 -0.121   -0.094  0.072 -0.270    0.115 -0.072 -0.069

 Mode:                16                     17                     18
 Frequency:      1259.76                1341.85                1360.48
 Force Cnst:      3.5641                 6.7925                 1.5324
 Red. Mass:       3.8118                 6.4028                 1.4052
 IR Active:          YES                    YES                    YES
 IR Intens:      296.108                220.463                125.895
 Raman Active:       YES                    YES                    YES
               X      Y      Z        X      Y      Z        X      Y      Z
 C          0.005  0.005  0.006   -0.069 -0.043 -0.083   -0.015 -0.011 -0.017
 O         -0.015 -0.161  0.184   -0.014 -0.005 -0.024    0.003  0.054 -0.066
 O          0.021  0.071 -0.049    0.112  0.328 -0.195    0.019  0.053 -0.031
 C          0.134  0.297 -0.124   -0.098 -0.093 -0.078    0.038  0.000  0.082
 C         -0.111 -0.134 -0.044    0.072  0.074  0.053   -0.047 -0.052 -0.031
 O         -0.018 -0.062  0.044   -0.041 -0.285  0.284   -0.005 -0.044  0.047
 H          0.056  0.069  0.042    0.206  0.174  0.163   -0.154 -0.138 -0.111
 H          0.090  0.294 -0.220   -0.229 -0.062 -0.384    0.335 -0.109  0.820
 H         -0.324  0.004 -0.717    0.231 -0.011  0.520   -0.142 -0.000 -0.312
 Li         0.006  0.010 -0.001    0.002  0.004 -0.005   -0.001 -0.002  0.000
 TransDip  -0.156  0.133 -0.511   -0.249 -0.094 -0.394    0.088 -0.111  0.330

 Mode:                19                     20                     21
 Frequency:      1463.72                1622.31                2218.46
 Force Cnst:      1.5454                 5.7426                37.2787
 Red. Mass:       1.2242                 3.7033                12.8561
 IR Active:          YES                    YES                    YES
 IR Intens:       13.270                594.580               1194.128
 Raman Active:       YES                    YES                    YES
               X      Y      Z        X      Y      Z        X      Y      Z
 C          0.008  0.005  0.010   -0.017 -0.009 -0.023    0.175  0.683 -0.529
 O          0.012 -0.005  0.031   -0.024  0.009 -0.062   -0.002 -0.007  0.004
 O         -0.006 -0.014  0.005    0.009  0.018 -0.006   -0.099 -0.278  0.158
 C         -0.022  0.030 -0.085    0.179  0.015  0.349    0.000  0.002 -0.002
 C         -0.057 -0.044 -0.058   -0.151 -0.059 -0.239   -0.001 -0.003  0.001
 O          0.001  0.012 -0.014    0.001 -0.011  0.018   -0.030 -0.228  0.235
 H          0.430  0.450  0.287    0.169  0.327 -0.039    0.002 -0.001  0.004
 H          0.179 -0.057  0.435   -0.158  0.213 -0.585    0.026  0.018  0.031
 H          0.145 -0.147  0.494    0.057 -0.223  0.392   -0.002  0.002 -0.006
 Li        -0.000 -0.001  0.000    0.003  0.007 -0.000   -0.003 -0.002 -0.003
 TransDip  -0.013  0.053 -0.103    0.320 -0.026  0.712    0.193  0.841 -0.693

 Mode:                22                     23                     24
 Frequency:      3051.84                3168.98                3245.98
 Force Cnst:      5.9451                 6.3013                 6.8875
 Red. Mass:       1.0834                 1.0650                 1.1095
 IR Active:          YES                    YES                    YES
 IR Intens:       73.384                 13.444                 28.480
 Raman Active:       YES                    YES                    YES
               X      Y      Z        X      Y      Z        X      Y      Z
 C         -0.001 -0.002 -0.000    0.000  0.000  0.000    0.000  0.000  0.000
 O          0.001 -0.002  0.003   -0.000  0.000 -0.000   -0.000 -0.000  0.000
 O          0.000  0.001 -0.001    0.000 -0.000 -0.000   -0.000 -0.000  0.000
 C         -0.046 -0.069 -0.001    0.006  0.004  0.007    0.007  0.007  0.004
 C          0.001  0.002 -0.002   -0.045 -0.046 -0.031    0.011  0.068 -0.067
 O          0.000  0.000  0.000   -0.000  0.000 -0.000   -0.000  0.000 -0.000
 H         -0.001 -0.045  0.060   -0.002 -0.233  0.313    0.027 -0.525  0.756
 H          0.514  0.848 -0.063   -0.026 -0.040 -0.003   -0.027 -0.046  0.003
 H          0.015  0.024 -0.001    0.492  0.773 -0.015   -0.207 -0.313 -0.016
 Li         0.000  0.001 -0.000   -0.000  0.000  0.000    0.000 -0.000  0.000
 TransDip  -0.095 -0.232  0.112   -0.064 -0.098 -0.005    0.037  0.132 -0.102

 STANDARD THERMODYNAMIC QUANTITIES AT   298.15 K  AND     1.00 ATM

   This Molecule has  1 Imaginary Frequencies
   Zero point vibrational energy:       36.476 kcal/mol

   Atom    1 Element C  Has Mass   12.00000
   Atom    2 Element O  Has Mass   15.99491
   Atom    3 Element O  Has Mass   15.99491
   Atom    4 Element C  Has Mass   12.00000
   Atom    5 Element C  Has Mass   12.00000
   Atom    6 Element O  Has Mass   15.99491
   Atom    7 Element H  Has Mass    1.00783
   Atom    8 Element H  Has Mass    1.00783
   Atom    9 Element H  Has Mass    1.00783
   Atom   10 Element Li Has Mass    7.01600
   Molecular Mass:    94.024220 amu
   Principal axes and moments of inertia in amu*Bohr^2:
                             1           2           3
    Eigenvalues --      323.16561   955.21980  1278.37738
          X               0.51031     0.35157     0.78484
          Y               0.16616     0.85511    -0.49109
          Z               0.84378    -0.38102    -0.37796
   Rotational Symmetry Number is   1
   The Molecule is an Asymmetric Top
   Translational Enthalpy:        0.889 kcal/mol
   Rotational Enthalpy:           0.889 kcal/mol
   Vibrational Enthalpy:         39.555 kcal/mol
   gas constant (RT):             0.592 kcal/mol
   Translational Entropy:        39.534  cal/mol.K
   Rotational Entropy:           27.469  cal/mol.K
   Vibrational Entropy:          20.176  cal/mol.K

   Total Enthalpy:               41.925 kcal/mol
   Total Entropy:                87.180  cal/mol.K
Archival summary:
1\1\n0210.lr6\FREQ\ProcedureUnspecified\BasisUnspecified\33i13\ewcspott\FriJan814:30:052021FriJan814:30:052021\0\\#,FREQ,ProcedureUnspecified,BasisUnspecified,\\0,1\O\C,1,1.30751\H,2,1.09733,1,114.801\C,2,1.34954,1,127.392,3,-179.992,0\H,4,1.08231,2,119.76,1,-179.932,0\H,4,1.08508,2,122.063,1,0.0225133,0\Li,1,1.87715,2,129.358,3,-178.867,0\C,1,2.07933,2,117.189,3,0.0656238,0\O,8,1.17408,1,102.788,2,0.436779,0\O,8,1.17503,1,98.8534,2,-179.565,0\\\@

 Total job time:  1179.04s(wall), 12015.58s(cpu) 
 Fri Jan  8 14:30:05 2021

        *************************************************************
        *                                                           *
        *  Thank you very much for using Q-Chem.  Have a nice day.  *
        *                                                           *
        *************************************************************


