
Running Job 1 of 1 mol.qin
qchem mol.qin_157101.0 /tmp/scratch/ 0
/clusterfs/mp/software/qchem/exe/qcprog.exe_s mol.qin_157101.0 /tmp/scratch/
                  Welcome to Q-Chem
     A Quantum Leap Into The Future Of Chemistry


 Q-Chem 5.2, Q-Chem, Inc., Pleasanton, CA (2019)

 Yihan Shao,  Zhengting Gan,  E. Epifanovsky,  A. T. B. Gilbert,  M. Wormit,  
 J. Kussmann,  A. W. Lange,  A. Behn,  Jia Deng,  Xintian Feng,  D. Ghosh,  
 M. Goldey,  P. R. Horn,  L. D. Jacobson,  I. Kaliman,  T. Kus,  A. Landau,  
 Jie Liu,  E. I. Proynov,  R. M. Richard,  R. P. Steele,  E. J. Sundstrom,  
 H. L. Woodcock III,  P. M. Zimmerman,  D. Zuev,  B. Alam,  B. Albrecht,  
 E. Alguire,  S. A. Baeppler,  D. Barton,  Z. Benda,  Y. A. Bernard,  
 E. J. Berquist,  K. B. Bravaya,  H. Burton,  K. Carter-Fenk,  D. Casanova,  
 Chun-Min Chang,  Yunqing Chen,  A. Chien,  K. D. Closser,  M. P. Coons,  
 S. Coriani,  S. Dasgupta,  A. L. Dempwolff,  M. Diedenhofen,  Hainam Do,  
 R. G. Edgar,  Po-Tung Fang,  S. Faraji,  S. Fatehi,  Qingguo Feng,  
 J. Fosso-Tande,  J. Gayvert,  Qinghui Ge,  A. Ghysels,  G. Gidofalvi,  
 J. Gomes,  J. Gonthier,  A. Gunina,  D. Hait,  M. W. D. Hanson-Heine,  
 P. H. P. Harbach,  A. W. Hauser,  M. F. Herbst,  J. E. Herr,  
 E. G. Hohenstein,  Z. C. Holden,  Kerwin Hui,  B. C. Huynh,  T.-C. Jagau,  
 Hyunjun Ji,  B. Kaduk,  K. Khistyaev,  Jaehoon Kim,  P. Klunzinger,  K. Koh,  
 D. Kosenkov,  L. Koulias,  T. Kowalczyk,  C. M. Krauter,  A. Kunitsa,  
 Ka Un Lao,  A. Laurent,  K. V. Lawler,  Joonho Lee,  D. Lefrancois,  
 S. Lehtola,  D. S. Levine,  Yi-Pei Li,  You-Sheng Lin,  Fenglai Liu,  
 Kuan-Yu Liu,  E. Livshits,  M. Loipersberger,  A. Luenser,  P. Manohar,  
 E. Mansoor,  S. F. Manzer,  Shan-Ping Mao,  Yuezhi Mao,  N. Mardirossian,  
 A. V. Marenich,  T. Markovich,  L. A. Martinez-Martinez,  S. A. Maurer,  
 N. J. Mayhall,  S. C. McKenzie,  J.-M. Mewes,  P. Morgante,  A. F. Morrison,  
 J. W. Mullinax,  K. Nanda,  T. S. Nguyen-Beck,  R. Olivares-Amaya,  
 J. A. Parkhill,  S. K. Paul,  Zheng Pei,  T. M. Perrine,  F. Plasser,  
 P. Pokhilko,  S. Prager,  A. Prociuk,  E. Ramos,  B. Rana,  D. R. Rehn,  
 F. Rob,  M. Scheurer,  M. Schneider,  N. Sergueev,  S. M. Sharada,  
 S. Sharma,  D. W. Small,  T. Stauch,  C. J. Stein,  T. Stein,  Yu-Chuan Su,  
 S. P. Veccham,  A. J. W. Thom,  A. Tkatchenko,  T. Tsuchimochi,  
 N. M. Tubman,  L. Vogt,  M. L. Vidal,  O. Vydrov,  M. A. Watson,  J. Wenzel,  
 M. de Wergifosse,  T. A. Wesolowski,  A. White,  J. Witte,  A. Yamada,  
 Jun Yang,  K. Yao,  S. Yeganeh,  S. R. Yost,  Zhi-Qiang You,  A. Zech,  
 Igor Ying Zhang,  Xing Zhang,  Yan Zhao,  Ying Zhu,  B. R. Brooks,  
 G. K. L. Chan,  C. J. Cramer,  M. S. Gordon,  W. J. Hehre,  A. Klamt,  
 M. W. Schmidt,  C. D. Sherrill,  D. G. Truhlar,  A. Aspuru-Guzik,  R. Baer,  
 A. T. Bell,  N. A. Besley,  Jeng-Da Chai,  A. E. DePrince, III,  
 R. A. DiStasio Jr.,  A. Dreuw,  B. D. Dunietz,  T. R. Furlani,  
 Chao-Ping Hsu,  Yousung Jung,  Jing Kong,  D. S. Lambrecht,  WanZhen Liang,  
 C. Ochsenfeld,  V. A. Rassolov,  L. V. Slipchenko,  J. E. Subotnik,  
 T. Van Voorhis,  J. M. Herbert,  A. I. Krylov,  P. M. W. Gill,  M. Head-Gordon

 Contributors to earlier versions of Q-Chem not listed above: 
 R. D. Adamson,  B. Austin,  J. Baker,  G. J. O. Beran,  K. Brandhorst,  
 S. T. Brown,  E. F. C. Byrd,  A. K. Chakraborty,  C.-L. Cheng,  
 Siu Hung Chien,  D. M. Chipman,  D. L. Crittenden,  H. Dachsel,  
 R. J. Doerksen,  A. D. Dutoi,  L. Fusti-Molnar,  W. A. Goddard III,  
 A. Golubeva-Zadorozhnaya,  S. R. Gwaltney,  G. Hawkins,  A. Heyden,  
 S. Hirata,  G. Kedziora,  F. J. Keil,  C. Kelley,  Jihan Kim,  R. A. King,  
 R. Z. Khaliullin,  P. P. Korambath,  W. Kurlancheek,  A. M. Lee,  M. S. Lee,  
 S. V. Levchenko,  Ching Yeh Lin,  D. Liotard,  R. C. Lochan,  I. Lotan,  
 P. E. Maslen,  N. Nair,  D. P. O'Neill,  D. Neuhauser,  E. Neuscamman,  
 C. M. Oana,  R. Olson,  B. Peters,  R. Peverati,  P. A. Pieniazek,  
 Y. M. Rhee,  J. Ritchie,  M. A. Rohrdanz,  E. Rosta,  N. J. Russ,  
 H. F. Schaefer III,  N. E. Schultz,  N. Shenvi,  A. C. Simmonett,  A. Sodt,  
 D. Stuck,  K. S. Thanthiriwatte,  V. Vanovschi,  Tao Wang,  A. Warshel,  
 C. F. Williams,  Q. Wu,  X. Xu,  W. Zhang

 Please cite Q-Chem as follows:
 Y. Shao et al., Mol. Phys. 113, 184-215 (2015)
 DOI: 10.1080/00268976.2014.952696

 Q-Chem 5.2.2 for Intel X86 EM64T Linux

 Parts of Q-Chem use Armadillo 8.300.2 (Tropical Shenanigans).
 http://arma.sourceforge.net/

 Q-Chem begins on Fri Jan  8 14:34:12 2021  

Host: 
0

     Scratch files written to /tmp/scratch//
 Nov2519 |scratch|qcdevops|jenkins|workspace|build_RNUM 6829   
Processing $rem in /clusterfs/mp/software/qchem/config/preferences:
	 MEM_TOTAL  96000 
NAlpha2: 48
NElect   48
Mult     1
Symmetry turned off for PCM/SM12/SMD calculation

Checking the input file for inconsistencies... 	...done.

--------------------------------------------------------------
User input:
--------------------------------------------------------------
$molecule
0 1
C     -2.3886387431     -2.4291688928     -3.4026481300
O     -3.6022035407     -3.2625804758     -4.7897092431
O     -2.0155235602     -1.4418603177     -3.9157038985
C     -3.7525136571     -2.6451622821     -5.9310167619
C     -4.4991034922     -3.0480547659     -6.9754531035
O     -2.4825282071     -3.2370722233     -2.5555543730
H     -4.5404751798     -2.4465129751     -7.8727459229
H     -3.2011777045     -1.7023597752     -6.0195802729
H     -5.0656852692     -3.9718772316     -6.9480311342
Li     -4.3578006460     -4.9190310605     -4.2399171601
$end

$rem
job_type = freq
basis = def2-tzvppd
max_scf_cycles = 200
gen_scfman = true
xc_grid = 3
scf_algorithm = diis
resp_charges = true
symmetry = false
sym_ignore = true
method = wb97xd
solvent_method = pcm
thresh = 14
$end

$pcm
heavypoints 194
hpoints 194
radii uff
theory cpcm
vdwscale 1.1
$end

$solvent
dielectric 89.78
$end
--------------------------------------------------------------
 ----------------------------------------------------------------
             Standard Nuclear Orientation (Angstroms)
    I     Atom           X                Y                Z
 ----------------------------------------------------------------
    1      C      -2.3886387431    -2.4291688928    -3.4026481300
    2      O      -3.6022035407    -3.2625804758    -4.7897092431
    3      O      -2.0155235602    -1.4418603177    -3.9157038985
    4      C      -3.7525136571    -2.6451622821    -5.9310167619
    5      C      -4.4991034922    -3.0480547659    -6.9754531035
    6      O      -2.4825282071    -3.2370722233    -2.5555543730
    7      H      -4.5404751798    -2.4465129751    -7.8727459229
    8      H      -3.2011777045    -1.7023597752    -6.0195802729
    9      H      -5.0656852692    -3.9718772316    -6.9480311342
   10      Li     -4.3578006460    -4.9190310605    -4.2399171601
 ----------------------------------------------------------------
 Nuclear Repulsion Energy =         231.29886746 hartrees
 There are       24 alpha and       24 beta electrons
 Requested basis set is def2-TZVPPD
 There are 112 shells and 304 basis functions

 Total QAlloc Memory Limit  96000 MB
 Mega-Array Size       188 MB
 MEM_STATIC part       192 MB
 Discretize the solute cavity surface with Lebedev spheres
	Using 194 Lebedev grid points for each H atom
	Using 194 Lebedev grid points for other atoms
	Atomic van der Waals radii will be scaled by 1.10
 Remove points where switching function is < 1.0e-08
 Keep 1029 surface tesserae and discard 911 interior tesserae
 Molecular Surface Area = 149.641 Angst**2

                       Distance Matrix (Angstroms)
             C (  1)   O (  2)   O (  3)   C (  4)   C (  5)   O (  6)
   O (  2)  2.022685
   O (  3)  1.173550  2.568358
   C (  4)  2.880878  1.306285  2.920027
   C (  5)  4.195476  2.372325  4.255596  1.345573
   O (  6)  1.174347  2.499154  2.300193  3.654718  4.861873
   H (  7)  4.961096  3.324370  4.800301  2.104913  1.081064  5.756097
   H (  8)  2.834926  2.026744  2.428977  1.095761  2.099809  3.856329
   H (  9)  4.702794  2.702450  4.989938  2.125773  1.084073  5.148445
   Li( 10)  3.282991  1.901848  4.205008  2.897701  3.317179  3.030299
             H (  7)   H (  8)   H (  9)
   H (  8)  2.404518
   H (  9)  1.859484  3.080441
   Li( 10)  4.398200  3.853823  2.955010
 
 A cutoff of  1.0D-14 yielded   5931 shell pairs
 There are     44181 function pairs (     56571 Cartesian)
 Smallest overlap matrix eigenvalue = 5.85E-06
 Guess from superposition of atomic densities
 Warning:  Energy on first SCF cycle will be non-variational
 SAD guess density has 48.000000 electrons

 -----------------------------------------------------------------------
  General SCF calculation program by
  Eric Jon Sundstrom, Paul Horn, Yuezhi Mao, Dmitri Zuev, Alec White,
  David Stuck, Shaama M.S., Shane Yost, Joonho Lee, David Small,
  Daniel Levine, Susi Lehtola, Hugh Burton, Evgeny Epifanovsky,
  Bang C. Huynh
 -----------------------------------------------------------------------
 Exchange:     0.2220 Hartree-Fock + 1.0000 wB97X-D + LR-HF
 Correlation:  1.0000 wB97X-D
 Using SG-3 standard quadrature grid
 Dispersion:   Grimme D
 using 40 threads for integral computing
 -------------------------------------------------------
 OpenMP Integral computing Module                
 Release: version 1.0, May 2013, Q-Chem Inc. Pittsburgh 
 -------------------------------------------------------
 using 40 threads for integral computing
 -------------------------------------------------------
 OpenMP Integral computing Module                
 Release: version 1.0, May 2013, Q-Chem Inc. Pittsburgh 
 -------------------------------------------------------
 A restricted SCF calculation will be
 performed using DIIS
 SCF converges when DIIS error is below 1.0e-08
 ---------------------------------------
  Cycle       Energy         DIIS error
 ---------------------------------------
    1    -350.2369529032      2.65e-02  
    2    -349.2568411322      4.74e-03  
    3    -349.2193372772      5.66e-03  
    4    -349.4579119176      4.67e-04  
    5    -349.4595491153      2.56e-04  
    6    -349.4601042279      8.64e-05  
    7    -349.4601713468      2.38e-05  
    8    -349.4601795185      7.04e-06  
    9    -349.4601806718      2.84e-06  
   10    -349.4601808967      1.59e-06  
   11    -349.4601809372      7.32e-07  
   12    -349.4601809458      2.15e-07  
   13    -349.4601809469      6.43e-08  
   14    -349.4601809470      1.24e-08  
   15    -349.4601809470      2.95e-09  Convergence criterion met
 ---------------------------------------
 SCF time:   CPU 1370.79s  wall 45.00s 

************** Final PCM Free Energy Summary **************
 G_electrostatic  =      -0.07494056 hartree =     -47.02590822 kcal/mol
 G_cavitation     =       0.00000000 hartree =       0.00000000 kcal/mol
 G_dispersion     =       0.00000000 hartree =       0.00000000 kcal/mol
 G_repulsion      =       0.00000000 hartree =       0.00000000 kcal/mol
 --------------------------------------------------
 Non-electrostatic Free Energy =       0.00000000 hartree =       0.00000000 kcal/mol
 Total                         =      -0.07494056 hartree =     -47.02590822 kcal/mol
 --------------------------------------------------
 SCF Energy (H0 + V/2)                       =    -349.46018095 
 Solute Internal Energy (H0)                 =    -349.38524039 
 Total Free Energy (H0 + V/2 + non-elec)     =    -349.46018095 hartree
                                             = -219289.57328163 kcal/mol
***********************************************************

 SCF   energy in the final basis set =     -349.4601809470
 Total energy in the final basis set =     -349.4601809470
 
 --------------------------------------------------------------
 
                    Orbital Energies (a.u.)
 --------------------------------------------------------------
 
 Alpha MOs
 -- Occupied --
-19.2763 -19.2742 -19.2045 -10.4467 -10.3142 -10.2376  -2.0297  -1.2203
 -1.1658  -1.0810  -0.8097  -0.6385  -0.6216  -0.5956  -0.5735  -0.5681
 -0.5157  -0.5058  -0.4434  -0.4330  -0.4164  -0.4096  -0.3414  -0.2788
 -- Virtual --
  0.0394   0.0513   0.0514   0.0558   0.0841   0.0989   0.1055   0.1062
  0.1285   0.1290   0.1355   0.1373   0.1473   0.1512   0.1573   0.1590
  0.1717   0.1756   0.1816   0.1968   0.2012   0.2092   0.2199   0.2400
  0.2441   0.2664   0.2676   0.2698   0.2744   0.3076   0.3136   0.3142
  0.3276   0.3341   0.3366   0.3547   0.3584   0.3754   0.3800   0.3924
  0.3948   0.4062   0.4101   0.4177   0.4234   0.4293   0.4320   0.4420
  0.4541   0.4641   0.4690   0.4795   0.4855   0.4893   0.4992   0.5086
  0.5100   0.5242   0.5354   0.5423   0.5636   0.5786   0.5815   0.5923
  0.6011   0.6073   0.6193   0.6214   0.6350   0.6384   0.6427   0.6481
  0.6615   0.6792   0.6877   0.7157   0.7261   0.7374   0.7447   0.7496
  0.7669   0.7763   0.7867   0.7958   0.8070   0.8254   0.8386   0.8508
  0.8674   0.8837   0.8893   0.9055   0.9096   0.9235   0.9272   0.9523
  0.9615   0.9732   0.9853   1.0042   1.0106   1.0340   1.0931   1.0965
  1.1171   1.1215   1.1499   1.1819   1.2036   1.2127   1.2450   1.2556
  1.2682   1.2733   1.2852   1.2924   1.3307   1.3621   1.3966   1.4226
  1.4361   1.4652   1.5197   1.5282   1.5686   1.6055   1.6390   1.7168
  1.7382   1.7403   1.7671   1.8044   1.8141   1.8602   1.8887   1.8920
  1.9342   1.9495   1.9638   1.9882   1.9936   2.0231   2.0412   2.0568
  2.0961   2.1197   2.1841   2.2364   2.2499   2.2834   2.3366   2.3841
  2.4050   2.4473   2.4883   2.5220   2.5803   2.6092   2.6745   2.6880
  2.8298   2.8457   2.8733   2.8783   2.9448   2.9496   2.9692   2.9916
  2.9958   3.0166   3.0379   3.0875   3.1049   3.1058   3.1745   3.1770
  3.2073   3.2093   3.2353   3.2762   3.2943   3.3041   3.3393   3.3621
  3.3748   3.4013   3.4205   3.4494   3.4976   3.5155   3.5313   3.5337
  3.5691   3.6063   3.6325   3.6395   3.6628   3.6990   3.7791   3.8269
  3.8586   3.8720   3.8950   3.9188   3.9562   4.0271   4.0582   4.0668
  4.1380   4.1697   4.1859   4.1977   4.3366   4.3547   4.4431   4.4574
  4.4806   4.7192   4.7342   4.7948   4.8100   4.8837   4.9375   4.9988
  5.0017   5.0736   5.1126   5.1555   5.2022   5.2305   5.2491   5.2920
  5.3338   5.3580   5.3734   5.4326   5.4450   5.4580   5.6289   5.6464
  5.6647   5.7915   5.8023   5.8355   5.8972   6.0756   6.1096   6.1405
  6.1460   6.2200   6.2899   6.3471   6.5278   6.5301   6.5532   6.5622
  6.6225   6.6440   6.6604   6.6789   6.6901   6.8608   6.8684   6.9070
  6.9269   6.9650   7.1647   7.1932   7.2494   7.3638   7.4521   7.6476
  7.7364  14.9636  23.4373  23.8862  24.1701  44.2103  44.3868  44.4583
 --------------------------------------------------------------
 
          Ground-State Mulliken Net Atomic Charges

     Atom                 Charge (a.u.)
  ----------------------------------------
      1 C                     0.895615
      2 O                    -0.879707
      3 O                    -0.518101
      4 C                     0.387312
      5 C                    -0.937784
      6 O                    -0.543664
      7 H                     0.254233
      8 H                     0.187851
      9 H                     0.194048
     10 Li                    0.960195
  ----------------------------------------
  Sum of atomic charges =     0.000000

  Building new vdw surfaces
         Merz-Kollman RESP Net Atomic Charges

     Atom                 Charge (a.u.)
  ----------------------------------------
      1 C                     0.757987
      2 O                    -0.589476
      3 O                    -0.499174
      4 C                     0.213456
      5 C                    -0.953862
      6 O                    -0.499174
      7 H                     0.263986
      8 H                     0.101702
      9 H                     0.263986
     10 Li                    0.940568
  ----------------------------------------
  Sum of atomic charges =     0.000000

  Related Dipole Moment =     9.5575 (X -4.3785 Y -8.3280 Z  1.6789)

 -----------------------------------------------------------------
                    Cartesian Multipole Moments
 -----------------------------------------------------------------
    Charge (ESU x 10^10)
                -0.0000
    Dipole Moment (Debye)
         X      -4.3947      Y      -8.3887      Z       1.7115
       Tot       9.6236
    Quadrupole Moments (Debye-Ang)
        XX      -6.9245     XY      48.7862     YY      27.0156
        XZ       8.4841     YZ      30.3009     ZZ     -62.0618
    Octopole Moments (Debye-Ang^2)
       XXX     203.8681    XXY    -149.1309    XYY    -202.2796
       YYY     -86.4666    XXZ     101.4221    XYZ    -177.6485
       YYZ     -79.6039    XZZ     163.4932    YZZ      33.0325
       ZZZ     766.9449
    Hexadecapole Moments (Debye-Ang^3)
      XXXX   -1841.4219   XXXY     176.4079   XXYY     822.4327
      XYYY     837.4743   YYYY     376.9677   XXXZ   -1456.5795
      XXYZ     431.9416   XYYZ     664.8156   YYYZ     145.5971
      XXZZ   -1407.8592   XYZZ     163.2824   YYZZ    -349.0433
      XZZZ   -2582.7734   YZZZ   -1635.7255   ZZZZ   -7537.4898
 -----------------------------------------------------------------
 Calculating MO derivatives via CPSCF
 Computing fast CPCM-SWIG hessian.
   1         3          30      0.402681    0.031094
   2         3          30      0.081838    0.008830
   3         3          30      0.012384    0.001761
   4         3          30      0.001941    0.000290
   5         3          30      0.000259    0.000036
   6        21          12      0.000023    0.000005
   7        33           0      0.000000    0.000000    Roots Converged
 Time for AOints: 333.7 s (CPU) 8.4 s (wall)
 ------------------------------------------------------------------------------
                     AOints        : Timing summary (seconds)
 ------------------------------------------------------------------------------
     job step          cpu (% of tot)      sys (% of tot)     wall (% of tot)
 ------------------------------------------------------------------------------
  cpscf_lag         0.4540E+04 (59.0)   0.3045E-02 (67.4)   0.1297E+03 (54.2)
  iterzp            0.2816E+04 (36.6)   0.1373E-02 (30.4)   0.1009E+03 (42.2)
  make_fx           0.0000E+00 ( 0.0)   0.0000E+00 ( 0.0)   0.0000E+00 ( 0.0)
  AOints            0.3337E+03 ( 4.3)   0.9300E-04 ( 2.1)   0.8425E+01 ( 3.5)
 ------------------------------------------------------------------------------
   Grand Totals     0.7690E+04          0.4516E-02          0.2392E+03
 ------------------------------------------------------------------------------
 Calculating analytic Hessian of the SCF energy
 Polarizability Matrix (a.u.)
            1           2           3
    1 -69.8509962  -7.8997566 -18.0586317
    2  -7.8997566 -69.8498917   1.4073153
    3 -18.0586317   1.4073153 -95.6105478
atom: 0 element: 6
atom: 1 element: 8
atom: 2 element: 8
atom: 3 element: 6
atom: 4 element: 6
atom: 5 element: 8
atom: 6 element: 1
atom: 7 element: 1
atom: 8 element: 1
atom: 9 element: 3
 
 Direct stationary perturbation theory relativistic correction:
 
 rels  =       0.117477443638
 relv  =      -0.516435114702
 rel2e =       0.000000000000
 E_rel =      -0.398957671063
 
 Computing fast CPCM-SWIG hessian
 Hessian of the SCF Energy
            1           2           3           4           5           6
    1   0.1725062   0.2190714  -0.2233163   0.0110174   0.0040404   0.0490177
    2   0.2190714   1.0350070  -0.7061170   0.0114548  -0.0233309   0.0343647
    3  -0.2233163  -0.7061170   0.6044751   0.0388865   0.0189546   0.0402649
    4   0.0110174   0.0114548   0.0388865   0.0665240   0.0262747   0.0586822
    5   0.0040404  -0.0233309   0.0189546   0.0262747   0.1985863  -0.1857291
    6   0.0490177   0.0343647   0.0402649   0.0586822  -0.1857291   0.3880511
    7  -0.1158054  -0.1933950   0.1275052  -0.0177744  -0.0215641  -0.0241100
    8  -0.1803693  -0.5812374   0.3144997  -0.0295426  -0.0168104  -0.0291316
    9   0.1108188   0.2883952  -0.2055275  -0.0133749  -0.0122475  -0.0037782
   10  -0.0004072   0.0067191  -0.0022010  -0.0792675  -0.0147264  -0.0294330
   11   0.0247741   0.0193349   0.0207510  -0.0111469  -0.1626279   0.1237897
   12  -0.0264826  -0.0166908  -0.0363593  -0.0357316   0.1158103  -0.2872593
   13   0.0045997   0.0018685   0.0053051   0.0083910   0.0116717  -0.0291659
   14  -0.0037111  -0.0038063  -0.0016192   0.0149965   0.0216291   0.0221179
   15   0.0131795   0.0101298   0.0142354  -0.0331085   0.0123161  -0.0735864
   16  -0.0687571  -0.0398295   0.0562988  -0.0026476   0.0046419  -0.0258496
   17  -0.0520114  -0.4357896   0.3623116   0.0027443   0.0091615   0.0025757
   18   0.0716226   0.3865736  -0.4249178  -0.0229084   0.0063190  -0.0489876
   19   0.0015770   0.0002791   0.0006094   0.0047173  -0.0054613  -0.0059401
   20  -0.0003704   0.0004273   0.0000940  -0.0046941   0.0028175   0.0008224
   21   0.0017020   0.0015953   0.0024230  -0.0073245  -0.0005908  -0.0035198
   22  -0.0015935  -0.0007167  -0.0012402   0.0114057  -0.0024350   0.0039306
   23  -0.0040865  -0.0048139  -0.0030171  -0.0071160  -0.0203335   0.0229908
   24   0.0031535   0.0040725   0.0005781   0.0115237   0.0365835  -0.0135328
   25  -0.0001187  -0.0001682   0.0004920  -0.0034819   0.0044971   0.0030225
   26   0.0005084  -0.0000290   0.0007544   0.0036223  -0.0000601  -0.0024637
   27  -0.0004025  -0.0006729  -0.0001847   0.0040655  -0.0007897   0.0020734
   28  -0.0030182  -0.0052835  -0.0023395   0.0011158  -0.0069389  -0.0001543
   29  -0.0078457  -0.0057620  -0.0066121  -0.0065931  -0.0090314   0.0106631
   30   0.0007074  -0.0016506   0.0050128  -0.0007100   0.0093734   0.0002746
            7           8           9          10          11          12
    1  -0.1158054  -0.1803693   0.1108188  -0.0004072   0.0247741  -0.0264826
    2  -0.1933950  -0.5812374   0.2883952   0.0067191   0.0193349  -0.0166908
    3   0.1275052   0.3144997  -0.2055275  -0.0022010   0.0207510  -0.0363593
    4  -0.0177744  -0.0295426  -0.0133749  -0.0792675  -0.0111469  -0.0357316
    5  -0.0215641  -0.0168104  -0.0122475  -0.0147264  -0.1626279   0.1158103
    6  -0.0241100  -0.0291316  -0.0037782  -0.0294330   0.1237897  -0.2872593
    7   0.1107608   0.2409606  -0.1147341   0.0004490  -0.0099561   0.0115053
    8   0.2409606   0.6621437  -0.3501071  -0.0014033  -0.0128052   0.0158570
    9  -0.1147341  -0.3501071   0.2349676   0.0000176  -0.0021217   0.0040909
   10   0.0004490  -0.0014033   0.0000176   0.3908693   0.2214442   0.2212634
   11  -0.0099561  -0.0128052  -0.0021217   0.2214442   0.5134603  -0.0386328
   12   0.0115053   0.0158570   0.0040909   0.2212634  -0.0386328   0.6634092
   13  -0.0016524  -0.0018929  -0.0008926  -0.1877356  -0.0967237  -0.1649200
   14   0.0009419   0.0024030  -0.0012565  -0.0835701  -0.1230105  -0.0764578
   15  -0.0046799  -0.0071497  -0.0003116  -0.1828401  -0.0936014  -0.3006962
   16   0.0227424  -0.0331924   0.0206799  -0.0012517  -0.0076012   0.0029569
   17  -0.0224592  -0.0640192   0.0806240  -0.0009986   0.0014958  -0.0013438
   18   0.0071404   0.0595285  -0.0275926  -0.0057299  -0.0143677   0.0100564
   19  -0.0004668  -0.0004246   0.0000261  -0.0039778   0.0132279  -0.0149384
   20   0.0002769   0.0000295   0.0002670  -0.0041284   0.0032413  -0.0166619
   21  -0.0009788  -0.0012902  -0.0005355   0.0115736   0.0168248  -0.0083446
   22   0.0001233   0.0013749  -0.0007848  -0.1149606  -0.1115426  -0.0003193
   23   0.0015861   0.0036741  -0.0019100  -0.1172177  -0.2267404   0.0049405
   24  -0.0011442  -0.0025758   0.0005482   0.0044558   0.0102564  -0.0464596
   25  -0.0001547  -0.0000066  -0.0003909  -0.0055995  -0.0201751   0.0025301
   26  -0.0003586  -0.0002819  -0.0003281  -0.0061268  -0.0060265   0.0032220
   27   0.0000688   0.0004098  -0.0003602  -0.0182470  -0.0281575   0.0046109
   28   0.0017783   0.0044963  -0.0013651   0.0018816  -0.0023006   0.0041363
   29   0.0039674   0.0069038  -0.0013152   0.0000081  -0.0063215   0.0099574
   30  -0.0005728  -0.0000406  -0.0015010   0.0011406   0.0052592  -0.0030485
           13          14          15          16          17          18
    1   0.0045997  -0.0037111   0.0131795  -0.0687571  -0.0520114   0.0716226
    2   0.0018685  -0.0038063   0.0101298  -0.0398295  -0.4357896   0.3865736
    3   0.0053051  -0.0016192   0.0142354   0.0562988   0.3623116  -0.4249178
    4   0.0083910   0.0149965  -0.0331085  -0.0026476   0.0027443  -0.0229084
    5   0.0116717   0.0216291   0.0123161   0.0046419   0.0091615   0.0063190
    6  -0.0291659   0.0221179  -0.0735864  -0.0258496   0.0025757  -0.0489876
    7  -0.0016524   0.0009419  -0.0046799   0.0227424  -0.0224592   0.0071404
    8  -0.0018929   0.0024030  -0.0071497  -0.0331924  -0.0640192   0.0595285
    9  -0.0008926  -0.0012565  -0.0003116   0.0206799   0.0806240  -0.0275926
   10  -0.1877356  -0.0835701  -0.1828401  -0.0012517  -0.0009986  -0.0057299
   11  -0.0967237  -0.1230105  -0.0936014  -0.0076012   0.0014958  -0.0143677
   12  -0.1649200  -0.0764578  -0.3006962   0.0029569  -0.0013438   0.0100564
   13   0.3156741   0.2318182   0.2372019  -0.0007100   0.0011983  -0.0025840
   14   0.2318182   0.4883849  -0.0853382   0.0014631   0.0006672   0.0018175
   15   0.2372019  -0.0853382   0.6703633  -0.0030389   0.0013041  -0.0080773
   16  -0.0007100   0.0014631  -0.0030389   0.0471595   0.0688203  -0.0534134
   17   0.0011983   0.0006672   0.0013041   0.0688203   0.4875943  -0.4488904
   18  -0.0025840   0.0018175  -0.0080773  -0.0534134  -0.4488904   0.5000669
   19  -0.0215702  -0.0098919  -0.0158032  -0.0005738   0.0002747  -0.0005423
   20  -0.0037552  -0.1313129   0.1537076   0.0001675  -0.0002067  -0.0000048
   21  -0.0283923   0.1428999  -0.2532383  -0.0005005   0.0002362  -0.0017658
   22  -0.0017638  -0.0186200  -0.0007012   0.0005480  -0.0001501   0.0006040
   23  -0.0060905  -0.0051802   0.0029945   0.0007986   0.0005216   0.0014010
   24  -0.0154059  -0.0203030   0.0039499  -0.0005917  -0.0004294  -0.0002979
   25  -0.1127362  -0.1329661  -0.0081154  -0.0000118   0.0001343  -0.0004880
   26  -0.1374146  -0.2513774   0.0104968  -0.0002799   0.0002566  -0.0007263
   27   0.0007403   0.0225635  -0.0532598   0.0000673   0.0001534   0.0000702
   28  -0.0024965  -0.0004605  -0.0020942   0.0035022   0.0024473   0.0062989
   29  -0.0006799   0.0016031  -0.0048597   0.0050117   0.0003185   0.0083496
   30  -0.0018867  -0.0044239   0.0006209   0.0033914   0.0034586   0.0014455
           19          20          21          22          23          24
    1   0.0015770  -0.0003704   0.0017020  -0.0015935  -0.0040865   0.0031535
    2   0.0002791   0.0004273   0.0015953  -0.0007167  -0.0048139   0.0040725
    3   0.0006094   0.0000940   0.0024230  -0.0012402  -0.0030171   0.0005781
    4   0.0047173  -0.0046941  -0.0073245   0.0114057  -0.0071160   0.0115237
    5  -0.0054613   0.0028175  -0.0005908  -0.0024350  -0.0203335   0.0365835
    6  -0.0059401   0.0008224  -0.0035198   0.0039306   0.0229908  -0.0135328
    7  -0.0004668   0.0002769  -0.0009788   0.0001233   0.0015861  -0.0011442
    8  -0.0004246   0.0000295  -0.0012902   0.0013749   0.0036741  -0.0025758
    9   0.0000261   0.0002670  -0.0005355  -0.0007848  -0.0019100   0.0005482
   10  -0.0039778  -0.0041284   0.0115736  -0.1149606  -0.1172177   0.0044558
   11   0.0132279   0.0032413   0.0168248  -0.1115426  -0.2267404   0.0102564
   12  -0.0149384  -0.0166619  -0.0083446  -0.0003193   0.0049405  -0.0464596
   13  -0.0215702  -0.0037552  -0.0283923  -0.0017638  -0.0060905  -0.0154059
   14  -0.0098919  -0.1313129   0.1428999  -0.0186200  -0.0051802  -0.0203030
   15  -0.0158032   0.1537076  -0.2532383  -0.0007012   0.0029945   0.0039499
   16  -0.0005738   0.0001675  -0.0005005   0.0005480   0.0007986  -0.0005917
   17   0.0002747  -0.0002067   0.0002362  -0.0001501   0.0005216  -0.0004294
   18  -0.0005423  -0.0000048  -0.0017658   0.0006040   0.0014010  -0.0002979
   19   0.0232101   0.0075812   0.0209303  -0.0032915   0.0022381   0.0021489
   20   0.0075812   0.1363881  -0.1562875   0.0024315  -0.0006353  -0.0010115
   21   0.0209303  -0.1562875   0.2630688   0.0022598  -0.0015002   0.0001511
   22  -0.0032915   0.0024315   0.0022598   0.1045424   0.1333223   0.0015146
   23   0.0022381  -0.0006353  -0.0015002   0.1333223   0.2489000  -0.0252732
   24   0.0021489  -0.0010115   0.0001511   0.0015146  -0.0252732   0.0556071
   25   0.0005116   0.0024550   0.0010092   0.0041842  -0.0044057  -0.0053659
   26  -0.0075854  -0.0118503   0.0001437  -0.0049280   0.0020877  -0.0009857
   27   0.0134089   0.0204547  -0.0002731  -0.0046442   0.0001813  -0.0006567
   28  -0.0001359   0.0000357  -0.0002789   0.0008059   0.0009712  -0.0002887
   29  -0.0002378   0.0011016  -0.0020313   0.0012636   0.0025198  -0.0003337
   30   0.0001005  -0.0013799   0.0020343  -0.0006194  -0.0008076   0.0001127
           25          26          27          28          29          30
    1  -0.0001187   0.0005084  -0.0004025  -0.0030182  -0.0078457   0.0007074
    2  -0.0001682  -0.0000290  -0.0006729  -0.0052835  -0.0057620  -0.0016506
    3   0.0004920   0.0007544  -0.0001847  -0.0023395  -0.0066121   0.0050128
    4  -0.0034819   0.0036223   0.0040655   0.0011158  -0.0065931  -0.0007100
    5   0.0044971  -0.0000601  -0.0007897  -0.0069389  -0.0090314   0.0093734
    6   0.0030225  -0.0024637   0.0020734  -0.0001543   0.0106631   0.0002746
    7  -0.0001547  -0.0003586   0.0000688   0.0017783   0.0039674  -0.0005728
    8  -0.0000066  -0.0002819   0.0004098   0.0044963   0.0069038  -0.0000406
    9  -0.0003909  -0.0003281  -0.0003602  -0.0013651  -0.0013152  -0.0015010
   10  -0.0055995  -0.0061268  -0.0182470   0.0018816   0.0000081   0.0011406
   11  -0.0201751  -0.0060265  -0.0281575  -0.0023006  -0.0063215   0.0052592
   12   0.0025301   0.0032220   0.0046109   0.0041363   0.0099574  -0.0030485
   13  -0.1127362  -0.1374146   0.0007403  -0.0024965  -0.0006799  -0.0018867
   14  -0.1329661  -0.2513774   0.0225635  -0.0004605   0.0016031  -0.0044239
   15  -0.0081154   0.0104968  -0.0532598  -0.0020942  -0.0048597   0.0006209
   16  -0.0000118  -0.0002799   0.0000673   0.0035022   0.0050117   0.0033914
   17   0.0001343   0.0002566   0.0001534   0.0024473   0.0003185   0.0034586
   18  -0.0004880  -0.0007263   0.0000702   0.0062989   0.0083496   0.0014455
   19   0.0005116  -0.0075854   0.0134089  -0.0001359  -0.0002378   0.0001005
   20   0.0024550  -0.0118503   0.0204547   0.0000357   0.0011016  -0.0013799
   21   0.0010092   0.0001437  -0.0002731  -0.0002789  -0.0020313   0.0020343
   22   0.0041842  -0.0049280  -0.0046442   0.0008059   0.0012636  -0.0006194
   23  -0.0044057   0.0020877   0.0001813   0.0009712   0.0025198  -0.0008076
   24  -0.0053659  -0.0009857  -0.0006567  -0.0002887  -0.0003337   0.0001127
   25   0.1168067   0.1521106   0.0050961   0.0006003  -0.0014753   0.0022102
   26   0.1521106   0.2690690  -0.0140000   0.0004519  -0.0017882   0.0038870
   27   0.0050961  -0.0140000   0.0478591  -0.0001533  -0.0001425   0.0001211
   28   0.0006003   0.0004519  -0.0001533  -0.0040335   0.0065811  -0.0037612
   29  -0.0014753  -0.0017882  -0.0001425   0.0065811   0.0104563  -0.0136757
   30   0.0022102   0.0038870   0.0001211  -0.0037612  -0.0136757  -0.0050723
 Gradient time:  CPU 10676.65 s  wall 1132.02 s
 **********************************************************************
 **                                                                  **
 **                       VIBRATIONAL ANALYSIS                       **
 **                       --------------------                       **
 **                                                                  **
 **        VIBRATIONAL FREQUENCIES (CM**-1) AND NORMAL MODES         **
 **     FORCE CONSTANTS (mDYN/ANGSTROM) AND REDUCED MASSES (AMU)     **
 **                  INFRARED INTENSITIES (KM/MOL)                   **
 **                                                                  **
 **********************************************************************
 

 Mode:                 1                      2                      3
 Frequency:      -221.06                  64.77                  72.24
 Force Cnst:      0.2610                 0.0186                 0.0147
 Red. Mass:       9.0654                 7.5234                 4.7699
 IR Active:          YES                    YES                    YES
 IR Intens:      586.231                 36.692                 16.927
 Raman Active:       YES                    YES                    YES
               X      Y      Z        X      Y      Z        X      Y      Z
 C          0.354  0.216  0.438    0.050 -0.009  0.040    0.039  0.016  0.083
 O         -0.225 -0.197 -0.207   -0.034  0.145 -0.022    0.076  0.161 -0.083
 O          0.063  0.055  0.058   -0.147  0.157  0.222    0.201 -0.020  0.143
 C         -0.141 -0.144 -0.109    0.027 -0.007 -0.114   -0.068  0.059 -0.122
 C         -0.086  0.068 -0.254    0.063 -0.233 -0.059   -0.181 -0.212  0.052
 O          0.093  0.039  0.150    0.227 -0.238 -0.161   -0.176 -0.022  0.019
 H          0.040  0.186 -0.186    0.041 -0.415 -0.177   -0.409 -0.393 -0.056
 H         -0.091 -0.138 -0.030    0.010 -0.007 -0.239   -0.158  0.097 -0.304
 H         -0.156  0.102 -0.442    0.107 -0.255  0.142   -0.061 -0.277  0.363
 Li        -0.031 -0.026 -0.036   -0.367  0.376  0.180    0.222  0.046 -0.203
 TransDip   0.428  0.195  0.616   -0.108  0.135  0.088    0.118  0.026 -0.051

 Mode:                 4                      5                      6
 Frequency:       101.69                 165.82                 182.32
 Force Cnst:      0.0438                 0.0288                 0.1377
 Red. Mass:       7.1895                 1.7772                 7.0289
 IR Active:          YES                    YES                    YES
 IR Intens:       53.871                 10.598                128.618
 Raman Active:       YES                    YES                    YES
               X      Y      Z        X      Y      Z        X      Y      Z
 C         -0.022  0.012  0.015   -0.018  0.013  0.009   -0.050 -0.063 -0.013
 O          0.439 -0.264 -0.217    0.004  0.003  0.001   -0.049  0.028 -0.098
 O         -0.062  0.045  0.049   -0.051  0.036  0.028   -0.006 -0.061  0.032
 C          0.009 -0.005 -0.023    0.160 -0.103 -0.073   -0.011  0.030 -0.101
 C         -0.157  0.082  0.066   -0.113  0.062  0.055   -0.017  0.107 -0.126
 O         -0.086  0.040  0.035    0.003 -0.000 -0.001   -0.110 -0.101 -0.052
 H         -0.520  0.293  0.223    0.095 -0.071 -0.046    0.055  0.136 -0.111
 H         -0.225  0.141  0.078    0.544 -0.344 -0.264    0.050 -0.001 -0.083
 H          0.069 -0.062 -0.018   -0.516  0.318  0.249   -0.083  0.146 -0.167
 Li        -0.275  0.202  0.163    0.030 -0.026 -0.040    0.506  0.138  0.733
 TransDip  -0.179  0.122  0.091    0.071 -0.057 -0.051    0.213  0.066  0.287

 Mode:                 7                      8                      9
 Frequency:       335.55                 426.54                 512.40
 Force Cnst:      0.6851                 0.6987                 0.6445
 Red. Mass:      10.3274                 6.5179                 4.1662
 IR Active:          YES                    YES                    YES
 IR Intens:       45.303                144.349                467.008
 Raman Active:       YES                    YES                    YES
               X      Y      Z        X      Y      Z        X      Y      Z
 C         -0.041 -0.170  0.136    0.044  0.070 -0.005    0.153  0.109  0.158
 O          0.023  0.095 -0.076   -0.034 -0.161  0.139   -0.078 -0.056 -0.094
 O         -0.297 -0.286 -0.235    0.031  0.059 -0.020   -0.087 -0.005 -0.168
 C          0.032  0.113 -0.085   -0.048 -0.201  0.167    0.137  0.166  0.064
 C         -0.018 -0.033  0.005    0.023 -0.004  0.055    0.087 -0.006  0.192
 O          0.199  0.032  0.365   -0.133 -0.067 -0.179   -0.127 -0.101 -0.121
 H         -0.140 -0.161 -0.072    0.221  0.203  0.182   -0.202 -0.315  0.007
 H          0.011  0.111 -0.140   -0.025 -0.207  0.233    0.169  0.157  0.138
 H          0.041 -0.063  0.200   -0.082  0.053 -0.278    0.247 -0.093  0.680
 Li         0.228  0.534 -0.219    0.262  0.611 -0.253   -0.010 -0.056  0.048
 TransDip   0.089  0.188 -0.058    0.193  0.331 -0.036    0.384  0.187  0.545

 Mode:                10                     11                     12
 Frequency:       612.96                 707.90                 712.77
 Force Cnst:      1.2755                 0.4871                 1.0064
 Red. Mass:       5.7618                 1.6498                 3.3620
 IR Active:          YES                    YES                    YES
 IR Intens:      112.759                 15.610                106.667
 Raman Active:       YES                    YES                    YES
               X      Y      Z        X      Y      Z        X      Y      Z
 C          0.157  0.075  0.195   -0.133  0.085  0.067    0.302 -0.197 -0.155
 O          0.240  0.260  0.157    0.053 -0.033 -0.025    0.015 -0.013 -0.009
 O         -0.121 -0.041 -0.184    0.045 -0.030 -0.023   -0.099  0.065  0.053
 C         -0.067 -0.127  0.033   -0.069  0.046  0.036   -0.072  0.049  0.036
 C         -0.048 -0.006 -0.089   -0.058  0.035  0.025   -0.050  0.030  0.021
 O         -0.113 -0.134 -0.051    0.045 -0.029 -0.023   -0.100  0.067  0.052
 H          0.258  0.306  0.093    0.755 -0.489 -0.364    0.692 -0.451 -0.335
 H         -0.165 -0.073 -0.235    0.027 -0.014 -0.010    0.030 -0.016 -0.009
 H         -0.201  0.075 -0.581    0.042 -0.026 -0.014    0.046 -0.027 -0.013
 Li        -0.068 -0.139  0.042   -0.001  0.001  0.000    0.000  0.002 -0.000
 TransDip   0.111 -0.080  0.312    0.106 -0.061 -0.034    0.254 -0.167 -0.132

 Mode:                13                     14                     15
 Frequency:       784.73                1021.05                1039.98
 Force Cnst:      0.5589                 1.1143                 0.8103
 Red. Mass:       1.5404                 1.8141                 1.2715
 IR Active:          YES                    YES                    YES
 IR Intens:      100.821                 86.389                 22.575
 Raman Active:       YES                    YES                    YES
               X      Y      Z        X      Y      Z        X      Y      Z
 C         -0.002  0.001  0.000    0.007  0.005  0.008   -0.001  0.001  0.001
 O         -0.041  0.026  0.017    0.041 -0.039  0.146    0.020 -0.014 -0.001
 O          0.000 -0.000  0.000   -0.000  0.009 -0.011   -0.000  0.001 -0.000
 C          0.110 -0.070 -0.053   -0.008 -0.015 -0.030   -0.117  0.073  0.054
 C         -0.123  0.079  0.062   -0.019  0.099 -0.167    0.027 -0.011 -0.020
 O          0.001 -0.000  0.000   -0.008 -0.012 -0.001    0.000 -0.001 -0.000
 H          0.009 -0.010 -0.008   -0.492 -0.419 -0.490   -0.189  0.085  0.054
 H          0.037 -0.021 -0.018    0.014 -0.014  0.211    0.717 -0.458 -0.341
 H          0.768 -0.485 -0.354    0.174 -0.022  0.450    0.245 -0.150 -0.087
 Li         0.000 -0.000 -0.001    0.004  0.010 -0.006    0.001 -0.000 -0.001
 TransDip   0.253 -0.160 -0.117   -0.104  0.062 -0.272    0.113 -0.070 -0.074

 Mode:                16                     17                     18
 Frequency:      1264.77                1349.11                1360.77
 Force Cnst:      3.7329                 3.6062                 1.8110
 Red. Mass:       3.9607                 3.3628                 1.6599
 IR Active:          YES                    YES                    YES
 IR Intens:      337.349                268.838                 48.423
 Raman Active:       YES                    YES                    YES
               X      Y      Z        X      Y      Z        X      Y      Z
 C          0.004  0.005  0.004   -0.046 -0.027 -0.056   -0.026 -0.017 -0.029
 O         -0.015 -0.166  0.191   -0.012 -0.017 -0.004    0.001  0.056 -0.072
 O          0.026  0.085 -0.056    0.075  0.209 -0.118    0.034  0.096 -0.054
 C          0.127  0.299 -0.137   -0.086 -0.080 -0.074    0.024 -0.009  0.066
 C         -0.106 -0.132 -0.041    0.070  0.077  0.047   -0.041 -0.048 -0.024
 O         -0.021 -0.074  0.053   -0.026 -0.181  0.179   -0.010 -0.081  0.084
 H          0.062  0.074  0.041    0.203  0.183  0.154   -0.119 -0.112 -0.081
 H          0.075  0.297 -0.254   -0.292 -0.024 -0.570    0.335 -0.116  0.845
 H         -0.322 -0.010 -0.699    0.236  0.001  0.518   -0.121 -0.009 -0.255
 Li         0.005  0.007  0.000    0.001  0.004 -0.004   -0.001 -0.001 -0.000
 TransDip  -0.183  0.117 -0.547   -0.264 -0.077 -0.447    0.006 -0.125  0.185

 Mode:                19                     20                     21
 Frequency:      1464.14                1637.04                2222.03
 Force Cnst:      1.5631                 6.3006                37.4082
 Red. Mass:       1.2376                 3.9904                12.8593
 IR Active:          YES                    YES                    YES
 IR Intens:       14.436                587.128               1213.918
 Raman Active:       YES                    YES                    YES
               X      Y      Z        X      Y      Z        X      Y      Z
 C          0.009  0.005  0.012   -0.018 -0.009 -0.026    0.182  0.688 -0.520
 O          0.012 -0.007  0.035   -0.025  0.009 -0.065   -0.003 -0.008  0.005
 O         -0.008 -0.017  0.007    0.011  0.021 -0.006   -0.104 -0.280  0.151
 C         -0.023  0.029 -0.088    0.189  0.024  0.364    0.000  0.002 -0.002
 C         -0.056 -0.044 -0.058   -0.161 -0.070 -0.249   -0.001 -0.003  0.001
 O          0.001  0.014 -0.017    0.001 -0.012  0.019   -0.029 -0.229  0.235
 H          0.428  0.464  0.279    0.158  0.332 -0.059    0.002 -0.000  0.004
 H          0.171 -0.048  0.413   -0.145  0.212 -0.566    0.026  0.019  0.029
 H          0.156 -0.136  0.508    0.055 -0.223  0.392   -0.002  0.001 -0.007
 Li        -0.000 -0.001 -0.000    0.003  0.008 -0.001   -0.003 -0.002 -0.003
 TransDip  -0.011  0.058 -0.107    0.321 -0.013  0.706    0.204  0.856 -0.686

 Mode:                22                     23                     24
 Frequency:      3067.84                3179.98                3257.88
 Force Cnst:      6.0092                 6.3524                 6.9338
 Red. Mass:       1.0837                 1.0662                 1.1088
 IR Active:          YES                    YES                    YES
 IR Intens:       68.305                 13.889                 25.895
 Raman Active:       YES                    YES                    YES
               X      Y      Z        X      Y      Z        X      Y      Z
 C         -0.002 -0.002 -0.000    0.000  0.000  0.000    0.000  0.000  0.000
 O          0.001 -0.002  0.003   -0.000  0.000 -0.000   -0.000 -0.000  0.000
 O          0.000  0.001 -0.001    0.000 -0.000 -0.000   -0.000 -0.000  0.000
 C         -0.045 -0.070 -0.000    0.006  0.004  0.007    0.007  0.007  0.004
 C          0.001  0.002 -0.002   -0.045 -0.049 -0.028    0.008  0.065 -0.069
 O          0.000  0.000  0.000   -0.000  0.000 -0.000   -0.000  0.000 -0.000
 H          0.000 -0.045  0.062    0.001 -0.213  0.295    0.037 -0.517  0.773
 H          0.506  0.852 -0.071   -0.026 -0.041 -0.003   -0.027 -0.047  0.004
 H          0.016  0.026 -0.001    0.486  0.790 -0.032   -0.188 -0.293 -0.009
 Li         0.000  0.001 -0.000   -0.000 -0.000  0.000    0.000 -0.000  0.000
 TransDip  -0.084 -0.223  0.116   -0.063 -0.102  0.000    0.032  0.125 -0.100

 STANDARD THERMODYNAMIC QUANTITIES AT   298.15 K  AND     1.00 ATM

   This Molecule has  1 Imaginary Frequencies
   Zero point vibrational energy:       36.517 kcal/mol

   Atom    1 Element C  Has Mass   12.00000
   Atom    2 Element O  Has Mass   15.99491
   Atom    3 Element O  Has Mass   15.99491
   Atom    4 Element C  Has Mass   12.00000
   Atom    5 Element C  Has Mass   12.00000
   Atom    6 Element O  Has Mass   15.99491
   Atom    7 Element H  Has Mass    1.00783
   Atom    8 Element H  Has Mass    1.00783
   Atom    9 Element H  Has Mass    1.00783
   Atom   10 Element Li Has Mass    7.01600
   Molecular Mass:    94.024220 amu
   Principal axes and moments of inertia in amu*Bohr^2:
                             1           2           3
    Eigenvalues --      321.62636   937.32088  1258.91684
          X               0.51075     0.35467     0.78317
          Y               0.16253     0.85469    -0.49305
          Z               0.84423    -0.37911    -0.37889
   Rotational Symmetry Number is   1
   The Molecule is an Asymmetric Top
   Translational Enthalpy:        0.889 kcal/mol
   Rotational Enthalpy:           0.889 kcal/mol
   Vibrational Enthalpy:         39.633 kcal/mol
   gas constant (RT):             0.592 kcal/mol
   Translational Entropy:        39.534  cal/mol.K
   Rotational Entropy:           27.431  cal/mol.K
   Vibrational Entropy:          20.835  cal/mol.K

   Total Enthalpy:               42.003 kcal/mol
   Total Entropy:                87.800  cal/mol.K
Archival summary:
1\1\n0210.lr6\FREQ\ProcedureUnspecified\BasisUnspecified\33i13\ewcspott\FriJan814:53:512021FriJan814:53:512021\0\\#,FREQ,ProcedureUnspecified,BasisUnspecified,\\0,1\O\C,1,1.30629\H,2,1.09576,1,114.796\C,2,1.34557,1,126.905,3,-179.996,0\H,4,1.08106,2,119.926,1,-179.821,0\H,4,1.08407,2,121.703,1,-0.0864849,0\Li,1,1.90185,2,128.208,3,-179.186,0\C,1,2.02268,2,118.257,3,-0.871953,0\O,8,1.17355,1,103.745,2,0.83157,0\O,8,1.17435,1,99.3941,2,-179.15,0\\\@

 Total job time:  1178.54s(wall), 12086.67s(cpu) 
 Fri Jan  8 14:53:51 2021

        *************************************************************
        *                                                           *
        *  Thank you very much for using Q-Chem.  Have a nice day.  *
        *                                                           *
        *************************************************************


