
Running Job 1 of 1 mol.qin
qchem mol.qin_85138.0 /tmp/scratch/ 0
/clusterfs/mp/software/qchem5.4/exe/qcprog.exe_s mol.qin_85138.0 /tmp/scratch/
                  Welcome to Q-Chem
     A Quantum Leap Into The Future Of Chemistry


 Q-Chem 5.4, Q-Chem, Inc., Pleasanton, CA (2021)

 E. Epifanovsky,  A. T. B. Gilbert,  Xintian Feng,  Joonho Lee,  Yuezhi Mao,  
 N. Mardirossian,  P. Pokhilko,  A. White,  M. Wormit,  M. P. Coons,  
 A. L. Dempwolff,  Zhengting Gan,  D. Hait,  P. R. Horn,  L. D. Jacobson,  
 I. Kaliman,  J. Kussmann,  A. W. Lange,  Ka Un Lao,  D. S. Levine,  Jie Liu,  
 S. C. McKenzie,  A. F. Morrison,  K. Nanda,  F. Plasser,  D. R. Rehn,  
 M. L. Vidal,  Zhi-Qiang You,  Ying Zhu,  B. Alam,  B. Albrecht,  
 A. Aldossary,  E. Alguire,  J. H. Andersen,  D. Barton,  K. Begam,  A. Behn,  
 Y. A. Bernard,  E. J. Berquist,  H. Burton,  A. Carreras,  K. Carter-Fenk,  
 Romit Chakraborty,  A. D. Chien,  K. D. Closser,  V. Cofer-Shabica,  
 S. Dasgupta,  Jia Deng,  M. de Wergifosse,  M. Diedenhofen,  Hainam Do,  
 S. Ehlert,  Po-Tung Fang,  S. Fatehi,  Qingguo Feng,  T. Friedhoff,  
 J. Gayvert,  Qinghui Ge,  G. Gidofalvi,  M. Goldey,  J. Gomes,  
 C. Gonzalez-Espinoza,  S. Gulania,  A. Gunina,  M. W. D. Hanson-Heine,  
 P. H. P. Harbach,  A. W. Hauser,  M. F. Herbst,  M. Hernandez Vera,  
 M. Hodecker,  Z. C. Holden,  S. Houck,  Xunkun Huang,  Kerwin Hui,  
 B. C. Huynh,  M. Ivanov,  Hyunjun Ji,  Hanjie Jiang,  B. Kaduk,  S. Kaehler,  
 K. Khistyaev,  Jaehoon Kim,  P. Klunzinger,  Z. Koczor-Benda,  
 Joong Hoon Koh,  D. Kosenkov,  L. Koulias,  T. Kowalczyk,  C. M. Krauter,  
 K. Kue,  A. Kunitsa,  T. Kus,  A. Landau,  K. V. Lawler,  D. Lefrancois,  
 S. Lehtola,  Rain Li,  Yi-Pei Li,  Jiashu Liang,  M. Liebenthal,  
 Hung-Hsuan Lin,  You-Sheng Lin,  Fenglai Liu,  Kuan-Yu Liu,  
 M. Loipersberger,  A. Luenser,  A. Manjanath,  P. Manohar,  E. Mansoor,  
 S. F. Manzer,  Shan-Ping Mao,  A. V. Marenich,  T. Markovich,  S. Mason,  
 S. A. Maurer,  P. F. McLaughlin,  M. F. S. J. Menger,  J.-M. Mewes,  
 S. A. Mewes,  P. Morgante,  J. W. Mullinax,  K. J. Oosterbaan,  G. Paran,  
 Alexander C. Paul,  Suranjan K. Paul,  F. Pavosevic,  Zheng Pei,  S. Prager,  
 E. I. Proynov,  E. Ramos,  B. Rana,  A. E. Rask,  A. Rettig,  R. M. Richard,  
 F. Rob,  E. Rossomme,  T. Scheele,  M. Scheurer,  M. Schneider,  
 N. Sergueev,  S. M. Sharada,  W. Skomorowski,  D. W. Small,  C. J. Stein,  
 Yu-Chuan Su,  E. J. Sundstrom,  Zhen Tao,  J. Thirman,  T. Tsuchimochi,  
 N. M. Tubman,  S. P. Veccham,  O. Vydrov,  J. Wenzel,  J. Witte,  A. Yamada,  
 Kun Yao,  S. Yeganeh,  S. R. Yost,  A. Zech,  Igor Ying Zhang,  Xing Zhang,  
 Yu Zhang,  D. Zuev,  A. Aspuru-Guzik,  A. T. Bell,  N. A. Besley,  
 K. B. Bravaya,  B. R. Brooks,  D. Casanova,  Jeng-Da Chai,  S. Coriani,  
 C. J. Cramer,  A. E. DePrince, III,  R. A. DiStasio Jr.,  A. Dreuw,  
 B. D. Dunietz,  T. R. Furlani,  W. A. Goddard III,  S. Grimme,  
 S. Hammes-Schiffer,  T. Head-Gordon,  W. J. Hehre,  Chao-Ping Hsu,  
 T.-C. Jagau,  Yousung Jung,  A. Klamt,  Jing Kong,  D. S. Lambrecht,  
 WanZhen Liang,  N. J. Mayhall,  C. W. McCurdy,  J. B. Neaton,  T. Neudecker,  
 C. Ochsenfeld,  J. A. Parkhill,  R. Peverati,  V. A. Rassolov,  Yihan Shao,  
 L. V. Slipchenko,  R. P. Steele,  J. E. Subotnik,  A. J. W. Thom,  
 A. Tkatchenko,  D. G. Truhlar,  T. Van Voorhis,  T. A. Wesolowski,  
 K. B. Whaley,  H. L. Woodcock III,  P. M. Zimmerman,  S. Faraji,  
 P. M. W. Gill,  M. Head-Gordon,  J. M. Herbert,  A. I. Krylov

 Additional authors since Version 5.4.0: 
 Chandrima Chakravarty,  L. Cunha,  R. Kang,  Yongbin Kim,  S. Kotaru,  
 Shaozhi Li,  Xiangyuan Li,  F. Matz,  A. Molle,  V. Parravicini,  
 Haisheng Ren,  Hengyuan Shen,  Yingli Su,  Hung-Yi Tsai,  C. Utku,  
 Fang Wang,  Jeff Yang,  F. Zeller

 Contributors to earlier versions of Q-Chem not listed above: 
 R. D. Adamson,  B. Austin,  R. Baer,  J. Baker,  G. J. O. Beran,  
 K. Brandhorst,  S. T. Brown,  E. F. C. Byrd,  Arup K. Chakraborty,  
 G. K. L. Chan,  Chun-Min Chang,  Yunqing Chen,  C.-L. Cheng,  
 Siu Hung Chien,  D. M. Chipman,  D. L. Crittenden,  H. Dachsel,  
 R. J. Doerksen,  A. D. Dutoi,  R. G. Edgar,  J. Fosso-Tande,  
 L. Fusti-Molnar,  D. Ghosh,  A. Ghysels,  A. Golubeva-Zadorozhnaya,  
 J. Gonthier,  M. S. Gordon,  S. R. Gwaltney,  G. Hawkins,  J. E. Herr,  
 A. Heyden,  S. Hirata,  E. G. Hohenstein,  G. Kedziora,  F. J. Keil,  
 C. Kelley,  Jihan Kim,  R. A. King,  R. Z. Khaliullin,  P. P. Korambath,  
 W. Kurlancheek,  A. Laurent,  A. M. Lee,  M. S. Lee,  S. V. Levchenko,  
 Ching Yeh Lin,  D. Liotard,  E. Livshits,  R. C. Lochan,  I. Lotan,  
 L. A. Martinez-Martinez,  P. E. Maslen,  N. Nair,  D. P. O'Neill,  
 D. Neuhauser,  E. Neuscamman,  C. M. Oana,  R. Olivares-Amaya,  R. Olson,  
 T. M. Perrine,  B. Peters,  P. A. Pieniazek,  A. Prociuk,  Y. M. Rhee,  
 J. Ritchie,  M. A. Rohrdanz,  E. Rosta,  N. J. Russ,  H. F. Schaefer III,  
 M. W. Schmidt,  N. E. Schultz,  S. Sharma,  N. Shenvi,  C. D. Sherrill,  
 A. C. Simmonett,  A. Sodt,  T. Stein,  D. Stuck,  K. S. Thanthiriwatte,  
 V. Vanovschi,  L. Vogt,  Tao Wang,  A. Warshel,  M. A. Watson,  
 C. F. Williams,  Q. Wu,  X. Xu,  Jun Yang,  W. Zhang,  Yan Zhao

   Please cite Q-Chem as follows:
  "Software for the frontiers of quantum chemistry:
   An overview of developments in the Q-Chem 5 package"
   J. Chem. Phys. 155, 084801 (2021)
   https://doi.org/10.1063/5.0055522 (open access)

 Q-Chem 5.4.2 for Intel X86 EM64T Linux

 Parts of Q-Chem use Armadillo 9.900.5 (Nocturnal Misbehaviour).
 http://arma.sourceforge.net/

 Q-Chem begins on Wed Jun  1 18:05:59 2022  

 Host: 
0

     Scratch files written to /tmp/scratch//
 Dec1321 |scratch|qcdevops|jenkins|workspace|build_RNUM 7600   
 Processing $rem in /clusterfs/mp/software/qchem5.4/config/preferences:
 Processing $rem in /global/home/users/smblau/.qchemrc:
 Symmetry turned off for PCM/SM12/SMD calculation

 Checking the input file for inconsistencies... 	...done.

--------------------------------------------------------------
User input:
--------------------------------------------------------------
$molecule
1 1
N      0.2766661829      0.1204983345     -0.1783306171
C      1.3150217063     -0.8181827186      0.3815153873
C     -0.7309450261      0.4354298679      0.9026949441
C     -0.3833124961     -0.5385221854     -1.3665813592
C      0.9114366411      1.4125676592     -0.6471978398
C      2.1246706029     -0.2977951372      1.5567828716
C     -1.9840827222      1.1654609448      0.4495500262
C     -1.1353551152     -1.8293486341     -1.0837811992
C      2.1480392787      1.2650345077     -1.5192064489
C      3.2444565494     -1.2878050242      1.8809403012
C     -2.8396637848      1.5356857909      1.6615613102
C     -1.9427147749     -2.2450218088     -2.3133766061
C      2.5772569774      2.6289546278     -2.0598011654
C      4.0769073305     -0.8556441358      3.0817499316
C     -4.1373863411      2.2284797323      1.2640460657
C     -2.6888165152     -3.5553422132     -2.1004942622
C      3.8309317910      2.5364389722     -2.9216071920
H      1.9746394972     -1.0726815980     -0.4531283543
H      0.7822916556     -1.7254366130      0.6818481879
H     -0.1988598383      1.0348303514      1.6473944633
H     -0.9953310032     -0.5158817898      1.3763311561
H      0.4091431576     -0.7213383922     -2.0979012084
H     -1.0561443248      0.2083272921     -1.7982831617
H      1.1473300012      1.9935835616      0.2499711296
H      0.1327574948      1.9537529944     -1.1930706559
H      1.4865250038     -0.1738186378      2.4415391790
H      2.5683745951      0.6823570627      1.3353874119
H     -2.5791205694      0.5342636144     -0.2244094784
H     -1.7281013083      2.0810330860     -0.1011632568
H     -1.8202012783     -1.7155309801     -0.2330052969
H     -0.4384167066     -2.6366085386     -0.8194878359
H      1.9604032586      0.5889558177     -2.3637428537
H      2.9789970965      0.8343211201     -0.9445731996
H      3.8946874283     -1.3956640986      0.9986461738
H      2.8063815510     -2.2796127861      2.0735971912
H     -2.2564584165      2.1886658577      2.3283625825
H     -3.0656625488      0.6244881760      2.2365453820
H     -1.2707583775     -2.3330993319     -3.1803364655
H     -2.6587956135     -1.4464197761     -2.5581195229
H      2.7550263445      3.3146646639     -1.2172929213
H      1.7527026000      3.0619751751     -2.6460694024
H      3.4523845024     -0.7714317010      3.9823673846
H      4.5461031936      0.1223841508      2.9038625518
H      4.8735205919     -1.5811622944      3.2894887733
H     -4.7506133772      1.5775861821      0.6244521482
H     -3.9346276129      3.1539072645      0.7060609050
H     -4.7319725164      2.4901775778      2.1487084020
H     -3.3996917644     -3.4703136628     -1.2665290904
H     -1.9961748265     -4.3743450918     -1.8623848296
H     -3.2485974315     -3.8423620138     -2.9990028859
H      3.6625078112      1.8825728904     -3.7893584651
H      4.6729169587      2.1227759956     -2.3481961136
H      4.1283269244      3.5249794821     -3.2944185921
O      2.6046499313     -2.1540546617     -2.4913248505
H      2.8913864510     -3.4680027343     -0.2615995078
C      2.2070898449     -3.9189418912     -0.9806024246
C      2.0477757154     -3.2179887961     -2.2803960467
C      1.5230665985     -5.0374746994     -0.7104776310
H      1.6089341546     -5.5589352596      0.2428696100
C      1.1590539827     -3.8323549612     -3.2969251132
H      1.0810299385     -3.3137411904     -4.2525248505
C      0.5989602204     -5.6301088444     -1.7132101229
C      0.4789571715     -4.9548207597     -3.0317641872
O     -0.0434917944     -6.6317629442     -1.4577174009
H     -0.1957558786     -5.4138218404     -3.7537705235
C     -2.2780967181     -7.8001449286     -2.9418682540
O     -2.3397236217     -6.8792625550     -3.6440497513
O     -2.2327084328     -8.7328875250     -2.2563225261
$end

$rem
job_type = freq
basis = def2-svpd
max_scf_cycles = 500
gen_scfman = true
xc_grid = 3
thresh = 14
s2thresh = 16
scf_algorithm = gdm
resp_charges = true
symmetry = false
sym_ignore = true
method = wb97xd
geom_opt_max_cycles = 200
solvent_method = pcm
cpscf_nseg = 3
$end

$pcm
heavypoints 194
hpoints 194
radii uff
theory cpcm
vdwscale 1.1
$end

$solvent
dielectric 38.88
$end
--------------------------------------------------------------
 ----------------------------------------------------------------
             Standard Nuclear Orientation (Angstroms)
    I     Atom           X                Y                Z
 ----------------------------------------------------------------
    1      N       0.2766661829     0.1204983345    -0.1783306171
    2      C       1.3150217063    -0.8181827186     0.3815153873
    3      C      -0.7309450261     0.4354298679     0.9026949441
    4      C      -0.3833124961    -0.5385221854    -1.3665813592
    5      C       0.9114366411     1.4125676592    -0.6471978398
    6      C       2.1246706029    -0.2977951372     1.5567828716
    7      C      -1.9840827222     1.1654609448     0.4495500262
    8      C      -1.1353551152    -1.8293486341    -1.0837811992
    9      C       2.1480392787     1.2650345077    -1.5192064489
   10      C       3.2444565494    -1.2878050242     1.8809403012
   11      C      -2.8396637848     1.5356857909     1.6615613102
   12      C      -1.9427147749    -2.2450218088    -2.3133766061
   13      C       2.5772569774     2.6289546278    -2.0598011654
   14      C       4.0769073305    -0.8556441358     3.0817499316
   15      C      -4.1373863411     2.2284797323     1.2640460657
   16      C      -2.6888165152    -3.5553422132    -2.1004942622
   17      C       3.8309317910     2.5364389722    -2.9216071920
   18      H       1.9746394972    -1.0726815980    -0.4531283543
   19      H       0.7822916556    -1.7254366130     0.6818481879
   20      H      -0.1988598383     1.0348303514     1.6473944633
   21      H      -0.9953310032    -0.5158817898     1.3763311561
   22      H       0.4091431576    -0.7213383922    -2.0979012084
   23      H      -1.0561443248     0.2083272921    -1.7982831617
   24      H       1.1473300012     1.9935835616     0.2499711296
   25      H       0.1327574948     1.9537529944    -1.1930706559
   26      H       1.4865250038    -0.1738186378     2.4415391790
   27      H       2.5683745951     0.6823570627     1.3353874119
   28      H      -2.5791205694     0.5342636144    -0.2244094784
   29      H      -1.7281013083     2.0810330860    -0.1011632568
   30      H      -1.8202012783    -1.7155309801    -0.2330052969
   31      H      -0.4384167066    -2.6366085386    -0.8194878359
   32      H       1.9604032586     0.5889558177    -2.3637428537
   33      H       2.9789970965     0.8343211201    -0.9445731996
   34      H       3.8946874283    -1.3956640986     0.9986461738
   35      H       2.8063815510    -2.2796127861     2.0735971912
   36      H      -2.2564584165     2.1886658577     2.3283625825
   37      H      -3.0656625488     0.6244881760     2.2365453820
   38      H      -1.2707583775    -2.3330993319    -3.1803364655
   39      H      -2.6587956135    -1.4464197761    -2.5581195229
   40      H       2.7550263445     3.3146646639    -1.2172929213
   41      H       1.7527026000     3.0619751751    -2.6460694024
   42      H       3.4523845024    -0.7714317010     3.9823673846
   43      H       4.5461031936     0.1223841508     2.9038625518
   44      H       4.8735205919    -1.5811622944     3.2894887733
   45      H      -4.7506133772     1.5775861821     0.6244521482
   46      H      -3.9346276129     3.1539072645     0.7060609050
   47      H      -4.7319725164     2.4901775778     2.1487084020
   48      H      -3.3996917644    -3.4703136628    -1.2665290904
   49      H      -1.9961748265    -4.3743450918    -1.8623848296
   50      H      -3.2485974315    -3.8423620138    -2.9990028859
   51      H       3.6625078112     1.8825728904    -3.7893584651
   52      H       4.6729169587     2.1227759956    -2.3481961136
   53      H       4.1283269244     3.5249794821    -3.2944185921
   54      O       2.6046499313    -2.1540546617    -2.4913248505
   55      H       2.8913864510    -3.4680027343    -0.2615995078
   56      C       2.2070898449    -3.9189418912    -0.9806024246
   57      C       2.0477757154    -3.2179887961    -2.2803960467
   58      C       1.5230665985    -5.0374746994    -0.7104776310
   59      H       1.6089341546    -5.5589352596     0.2428696100
   60      C       1.1590539827    -3.8323549612    -3.2969251132
   61      H       1.0810299385    -3.3137411904    -4.2525248505
   62      C       0.5989602204    -5.6301088444    -1.7132101229
   63      C       0.4789571715    -4.9548207597    -3.0317641872
   64      O      -0.0434917944    -6.6317629442    -1.4577174009
   65      H      -0.1957558786    -5.4138218404    -3.7537705235
   66      C      -2.2780967181    -7.8001449286    -2.9418682540
   67      O      -2.3397236217    -6.8792625550    -3.6440497513
   68      O      -2.2327084328    -8.7328875250    -2.2563225261
 ----------------------------------------------------------------
 Nuclear Repulsion Energy =        2792.41887602 hartrees
 There are      108 alpha and      108 beta electrons
 Requested basis set is def2-SVPD
 There are 388 shells and 892 basis functions

 Total QAlloc Memory Limit  96000 MB
 Mega-Array Size       188 MB
 MEM_STATIC part       192 MB
 Discretize the solute cavity surface with Lebedev spheres
	Using 194 Lebedev grid points for each H atom
	Using 194 Lebedev grid points for other atoms
	Atomic van der Waals radii will be scaled by 1.10
 Remove points where switching function is < 1.0e-08
 Keep 4706 surface tesserae and discard 8486 interior tesserae
 Molecular Surface Area = 542.176 Angst**2
 A cutoff of  1.0D-16 yielded  62869 shell pairs
 There are    329123 function pairs (    371343 Cartesian)
 Smallest overlap matrix eigenvalue = 5.86E-06
 Guess from superposition of atomic densities
 Warning:  Energy on first SCF cycle will be non-variational
 SAD guess density has 217.000000 electrons

 -----------------------------------------------------------------------
  General SCF calculation program by
  Eric Jon Sundstrom, Paul Horn, Yuezhi Mao, Dmitri Zuev, Alec White,
  David Stuck, Shaama M.S., Shane Yost, Joonho Lee, David Small,
  Daniel Levine, Susi Lehtola, Hugh Burton, Evgeny Epifanovsky,
  Bang C. Huynh
 -----------------------------------------------------------------------
 Exchange:     0.2220 Hartree-Fock + 1.0000 wB97X-D + LR-HF
 Correlation:  1.0000 wB97X-D
 Using SG-3 standard quadrature grid
 Dispersion:   Grimme D
 using 40 threads for integral computing
 -------------------------------------------------------
 OpenMP Integral computing Module                
 Release: version 1.0, May 2013, Q-Chem Inc. Pittsburgh 
 -------------------------------------------------------
 A restricted SCF calculation will be
 performed using Roothaan-Hall, GDM, DIIS
 SCF converges when DIIS error is below 1.0e-08
 ---------------------------------------
  Cycle       Energy         DIIS error
 ---------------------------------------
    1   -1262.4533692765      2.05e-02  Roothaan Step
 ---------------------------------------
  Cycle       Energy        RMS Gradient
 ---------------------------------------
    1   -1254.4210609049      1.82e-01   Descent step
    2   -1254.7965229731      2.97e-02   Normal BFGS step
    3   -1254.8391356375      3.37e-02   Normal BFGS step
    4   -1254.8480247851      1.92e-02   Normal BFGS step
    5   -1254.8500554581      4.60e-03   Normal BFGS step
    6   -1254.8503412683      2.13e-03   Normal BFGS step
    7   -1254.8504283289      2.37e-04   Normal BFGS step
    8   -1254.8504296493      1.61e-04   Normal BFGS step
    9   -1254.8504301308      1.02e-04   Normal BFGS step
   10   -1254.8504302184      7.42e-05  Done GDM. Switching to DIIS
 ---------------------------------------
  Cycle       Energy         DIIS error
 ---------------------------------------
    1   -1254.8504302184      1.30e-07  
    2   -1254.8504300703      1.33e-07  
    3   -1254.8504305072      2.87e-08  
    4   -1254.8504301646      9.11e-09  Convergence criterion met
 ---------------------------------------
 SCF time:   CPU 26404.37s  wall 1422.00s 

************** Final PCM Free Energy Summary **************
 G_electrostatic  =      -0.07322072 hartree =     -45.94669293 kcal/mol
 G_cavitation     =       0.00000000 hartree =       0.00000000 kcal/mol
 G_dispersion     =       0.00000000 hartree =       0.00000000 kcal/mol
 G_repulsion      =       0.00000000 hartree =       0.00000000 kcal/mol
 --------------------------------------------------
 Non-electrostatic Free Energy =       0.00000000 hartree =       0.00000000 kcal/mol
 Total                         =      -0.07322072 hartree =     -45.94669293 kcal/mol
 --------------------------------------------------
 SCF Energy (H0 + V/2)                       =   -1254.85043016 
 Solute Internal Energy (H0)                 =   -1254.77720945 
 Total Free Energy (H0 + V/2 + non-elec)     =   -1254.85043016 hartree
                                             = -787430.52961673 kcal/mol
***********************************************************

 SCF   energy in the final basis set =    -1254.8504301646
 Total energy in the final basis set =    -1254.8504301646
 
 --------------------------------------------------------------
 
                    Orbital Energies (a.u.)
 --------------------------------------------------------------
 
 Alpha MOs
 -- Occupied --
-19.3465 -19.3462 -19.2983 -19.2963 -14.5930 -10.4995 -10.4313 -10.4293
-10.3671 -10.3663 -10.3662 -10.3649 -10.3518 -10.3509 -10.3502 -10.3494
-10.3215 -10.3180 -10.3177 -10.3165 -10.3088 -10.3087 -10.3065 -10.3060
-10.2943 -10.2932 -10.2926 -10.2923  -1.2578  -1.2172  -1.1771  -1.1744
 -1.1300  -0.9691  -0.9283  -0.9220  -0.9209  -0.9025  -0.8968  -0.8534
 -0.8525  -0.8494  -0.8104  -0.8091  -0.7681  -0.7670  -0.7464  -0.7453
 -0.7088  -0.6966  -0.6925  -0.6900  -0.6890  -0.6778  -0.6543  -0.6379
 -0.6266  -0.6186  -0.6164  -0.6152  -0.6145  -0.6136  -0.6098  -0.6026
 -0.5869  -0.5841  -0.5732  -0.5683  -0.5592  -0.5519  -0.5465  -0.5401
 -0.5354  -0.5282  -0.5259  -0.5248  -0.5218  -0.5176  -0.5163  -0.5116
 -0.5092  -0.5016  -0.5004  -0.4897  -0.4796  -0.4788  -0.4696  -0.4640
 -0.4630  -0.4584  -0.4574  -0.4494  -0.4440  -0.4400  -0.4391  -0.4352
 -0.4346  -0.4290  -0.4269  -0.4267  -0.4238  -0.4209  -0.4200  -0.4177
 -0.4007  -0.3939  -0.3888  -0.3744
 -- Virtual --
 -0.0823   0.0294   0.0572   0.0647   0.0769   0.0826   0.0827   0.0880
  0.1007   0.1020   0.1026   0.1066   0.1082   0.1090   0.1128   0.1145
  0.1190   0.1223   0.1251   0.1263   0.1298   0.1386   0.1395   0.1428
  0.1454   0.1462   0.1525   0.1546   0.1572   0.1607   0.1627   0.1677
  0.1712   0.1736   0.1747   0.1778   0.1798   0.1813   0.1826   0.1857
  0.1880   0.1896   0.1916   0.1944   0.1965   0.1989   0.1996   0.2008
  0.2025   0.2070   0.2073   0.2106   0.2133   0.2145   0.2179   0.2201
  0.2235   0.2253   0.2269   0.2293   0.2324   0.2349   0.2380   0.2385
  0.2402   0.2438   0.2469   0.2476   0.2504   0.2529   0.2551   0.2562
  0.2596   0.2605   0.2626   0.2666   0.2710   0.2721   0.2732   0.2765
  0.2789   0.2795   0.2823   0.2860   0.2875   0.2907   0.2921   0.2926
  0.2986   0.3018   0.3037   0.3075   0.3087   0.3092   0.3101   0.3163
  0.3176   0.3224   0.3253   0.3267   0.3308   0.3324   0.3365   0.3404
  0.3430   0.3444   0.3496   0.3528   0.3545   0.3593   0.3594   0.3627
  0.3656   0.3677   0.3705   0.3722   0.3744   0.3771   0.3797   0.3812
  0.3835   0.3867   0.3892   0.3903   0.3941   0.3973   0.3977   0.4004
  0.4015   0.4017   0.4068   0.4075   0.4102   0.4118   0.4141   0.4156
  0.4173   0.4179   0.4192   0.4218   0.4225   0.4238   0.4275   0.4276
  0.4294   0.4313   0.4326   0.4367   0.4409   0.4430   0.4442   0.4452
  0.4467   0.4489   0.4508   0.4513   0.4517   0.4533   0.4551   0.4568
  0.4587   0.4616   0.4636   0.4661   0.4677   0.4708   0.4741   0.4762
  0.4767   0.4790   0.4800   0.4821   0.4839   0.4846   0.4865   0.4885
  0.4899   0.4921   0.4933   0.4949   0.4970   0.5006   0.5032   0.5052
  0.5062   0.5126   0.5144   0.5156   0.5192   0.5209   0.5231   0.5236
  0.5265   0.5270   0.5293   0.5305   0.5329   0.5358   0.5386   0.5422
  0.5462   0.5479   0.5486   0.5534   0.5565   0.5569   0.5591   0.5602
  0.5620   0.5630   0.5665   0.5675   0.5709   0.5724   0.5757   0.5777
  0.5788   0.5800   0.5839   0.5874   0.5909   0.5931   0.5955   0.5967
  0.5984   0.6017   0.6026   0.6057   0.6079   0.6091   0.6120   0.6135
  0.6161   0.6190   0.6201   0.6232   0.6248   0.6266   0.6283   0.6313
  0.6335   0.6355   0.6381   0.6388   0.6431   0.6444   0.6456   0.6498
  0.6504   0.6529   0.6573   0.6601   0.6624   0.6638   0.6658   0.6681
  0.6721   0.6744   0.6760   0.6793   0.6799   0.6846   0.6869   0.6885
  0.6916   0.6977   0.6998   0.7020   0.7031   0.7056   0.7068   0.7080
  0.7116   0.7134   0.7159   0.7180   0.7235   0.7263   0.7282   0.7304
  0.7320   0.7356   0.7366   0.7397   0.7417   0.7452   0.7485   0.7521
  0.7551   0.7571   0.7606   0.7623   0.7645   0.7667   0.7708   0.7730
  0.7780   0.7794   0.7812   0.7817   0.7882   0.7924   0.7929   0.7958
  0.8004   0.8023   0.8050   0.8084   0.8107   0.8149   0.8185   0.8220
  0.8231   0.8278   0.8296   0.8308   0.8339   0.8411   0.8417   0.8453
  0.8482   0.8509   0.8530   0.8587   0.8623   0.8631   0.8695   0.8724
  0.8735   0.8765   0.8860   0.8866   0.8871   0.8933   0.8964   0.8975
  0.9011   0.9046   0.9087   0.9122   0.9170   0.9186   0.9202   0.9234
  0.9256   0.9321   0.9330   0.9367   0.9406   0.9456   0.9472   0.9530
  0.9582   0.9617   0.9669   0.9753   0.9770   0.9823   0.9842   0.9870
  0.9920   0.9981   1.0043   1.0080   1.0106   1.0126   1.0278   1.0304
  1.0333   1.0362   1.0379   1.0429   1.0503   1.0509   1.0566   1.0629
  1.0672   1.0708   1.0730   1.0799   1.0849   1.0901   1.0928   1.0967
  1.0985   1.1010   1.1060   1.1095   1.1120   1.1129   1.1199   1.1209
  1.1220   1.1293   1.1330   1.1380   1.1417   1.1447   1.1460   1.1490
  1.1517   1.1567   1.1588   1.1621   1.1670   1.1732   1.1775   1.1799
  1.1832   1.1910   1.1968   1.2016   1.2048   1.2093   1.2146   1.2209
  1.2276   1.2307   1.2339   1.2385   1.2435   1.2495   1.2526   1.2600
  1.2686   1.2729   1.2736   1.2785   1.2909   1.2940   1.2968   1.3015
  1.3127   1.3180   1.3265   1.3278   1.3303   1.3358   1.3416   1.3469
  1.3472   1.3557   1.3601   1.3639   1.3666   1.3711   1.3827   1.3857
  1.3903   1.3954   1.3986   1.4098   1.4141   1.4175   1.4255   1.4271
  1.4349   1.4364   1.4395   1.4460   1.4524   1.4619   1.4637   1.4703
  1.4834   1.4849   1.4877   1.4943   1.4979   1.5124   1.5138   1.5238
  1.5253   1.5311   1.5321   1.5400   1.5445   1.5485   1.5546   1.5570
  1.5616   1.5647   1.5669   1.5696   1.5785   1.5880   1.5938   1.5993
  1.6071   1.6141   1.6203   1.6210   1.6278   1.6389   1.6454   1.6499
  1.6571   1.6630   1.6658   1.6741   1.6844   1.6923   1.6945   1.7026
  1.7151   1.7217   1.7252   1.7255   1.7289   1.7464   1.7517   1.7602
  1.7632   1.7700   1.7732   1.7830   1.7859   1.7872   1.7932   1.7963
  1.7996   1.8092   1.8149   1.8260   1.8317   1.8333   1.8373   1.8469
  1.8487   1.8494   1.8571   1.8662   1.8710   1.8733   1.8743   1.8782
  1.8799   1.8858   1.8905   1.8987   1.9056   1.9088   1.9115   1.9136
  1.9206   1.9251   1.9272   1.9358   1.9427   1.9446   1.9503   1.9553
  1.9613   1.9641   1.9719   1.9768   1.9771   1.9830   1.9861   1.9888
  1.9940   1.9975   2.0018   2.0042   2.0100   2.0131   2.0173   2.0227
  2.0281   2.0319   2.0356   2.0418   2.0431   2.0475   2.0489   2.0545
  2.0576   2.0596   2.0682   2.0738   2.0775   2.0830   2.0887   2.0918
  2.1002   2.1016   2.1074   2.1117   2.1167   2.1198   2.1263   2.1297
  2.1383   2.1393   2.1469   2.1495   2.1532   2.1566   2.1594   2.1608
  2.1676   2.1717   2.1801   2.1853   2.1874   2.1913   2.2012   2.2051
  2.2085   2.2147   2.2246   2.2327   2.2441   2.2455   2.2531   2.2585
  2.2692   2.2779   2.2806   2.2913   2.2968   2.2986   2.3131   2.3195
  2.3226   2.3266   2.3317   2.3378   2.3443   2.3452   2.3555   2.3612
  2.3637   2.3706   2.3708   2.3799   2.3841   2.3916   2.3969   2.4010
  2.4063   2.4095   2.4159   2.4237   2.4278   2.4349   2.4461   2.4532
  2.4581   2.4628   2.4721   2.4813   2.4884   2.4950   2.4998   2.5171
  2.5223   2.5271   2.5365   2.5448   2.5559   2.5631   2.5694   2.5729
  2.5781   2.5849   2.5906   2.5952   2.6126   2.6173   2.6232   2.6318
  2.6388   2.6451   2.6497   2.6536   2.6552   2.6644   2.6760   2.6765
  2.6860   2.6955   2.7016   2.7122   2.7187   2.7281   2.7332   2.7370
  2.7398   2.7502   2.7525   2.7582   2.7626   2.7687   2.7756   2.7825
  2.7900   2.7989   2.8015   2.8049   2.8169   2.8248   2.8339   2.8415
  2.8422   2.8493   2.8779   2.8957   2.8999   2.9061   2.9132   2.9203
  2.9278   2.9306   2.9358   2.9422   2.9475   2.9535   2.9627   2.9703
  2.9769   2.9803   2.9878   2.9993   3.0071   3.0087   3.0121   3.0182
  3.0301   3.0366   3.0480   3.0531   3.0790   3.0829   3.1135   3.1198
  3.1209   3.1352   3.1397   3.1440   3.1597   3.1622   3.1684   3.1807
  3.1851   3.1912   3.2034   3.2074   3.2223   3.2321   3.2453   3.2564
  3.2653   3.2702   3.2716   3.2792   3.2869   3.2906   3.2989   3.3100
  3.3206   3.3238   3.3349   3.3457   3.3532   3.3569   3.3650   3.3843
  3.3889   3.4118   3.4405   3.4466   3.5111   3.5174   3.5316   3.5797
  3.5905   3.6260   3.7081   3.7194   3.8003   3.9226   3.9561   4.2224
 --------------------------------------------------------------
 
          Ground-State Mulliken Net Atomic Charges

     Atom                 Charge (a.u.)
  ----------------------------------------
      1 N                    -2.412882
      2 C                    -0.025223
      3 C                     0.184830
      4 C                     0.633854
      5 C                     0.398777
      6 C                     0.373152
      7 C                     0.217002
      8 C                     0.169084
      9 C                    -0.111056
     10 C                    -0.174890
     11 C                    -0.117107
     12 C                    -0.074019
     13 C                     0.051831
     14 C                     0.762978
     15 C                     0.607189
     16 C                     1.121170
     17 C                     0.614778
     18 H                    -0.411808
     19 H                    -0.242567
     20 H                    -0.189181
     21 H                     0.005064
     22 H                    -0.310375
     23 H                    -0.272074
     24 H                    -0.077867
     25 H                    -0.251371
     26 H                     0.050576
     27 H                    -0.137243
     28 H                    -0.007183
     29 H                     0.103897
     30 H                    -0.070744
     31 H                     0.060107
     32 H                    -0.010793
     33 H                     0.024479
     34 H                     0.099372
     35 H                     0.075697
     36 H                     0.011818
     37 H                     0.053815
     38 H                    -0.017683
     39 H                     0.001076
     40 H                     0.017361
     41 H                    -0.011656
     42 H                     0.106246
     43 H                     0.091189
     44 H                    -0.012171
     45 H                     0.079119
     46 H                     0.088242
     47 H                     0.002816
     48 H                     0.146028
     49 H                    -0.420964
     50 H                     0.073649
     51 H                     0.101852
     52 H                     0.083694
     53 H                    -0.003425
     54 O                    -0.401760
     55 H                    -0.265615
     56 C                     0.568518
     57 C                     0.139602
     58 C                    -0.340733
     59 H                     0.152696
     60 C                    -0.050035
     61 H                     0.087482
     62 C                     0.340890
     63 C                     0.202982
     64 O                    -0.419440
     65 H                    -0.047306
     66 C                     0.988983
     67 O                    -0.508910
     68 O                    -0.495812
  ----------------------------------------
  Sum of atomic charges =     1.000000

  Building new vdw surfaces
         Merz-Kollman RESP Net Atomic Charges

     Atom                 Charge (a.u.)
  ----------------------------------------
      1 N                     0.781071
      2 C                    -0.031914
      3 C                    -0.337024
      4 C                    -0.254174
      5 C                    -0.637997
      6 C                    -0.174425
      7 C                    -0.048061
      8 C                    -0.048061
      9 C                     0.101796
     10 C                     0.234694
     11 C                     0.177343
     12 C                     0.140660
     13 C                     0.074685
     14 C                    -0.662724
     15 C                    -0.506955
     16 C                    -0.506955
     17 C                    -0.487910
     18 H                    -0.041407
     19 H                     0.023290
     20 H                     0.111298
     21 H                     0.111298
     22 H                     0.085277
     23 H                     0.085277
     24 H                     0.188587
     25 H                     0.188587
     26 H                     0.077709
     27 H                     0.077709
     28 H                     0.066276
     29 H                     0.066276
     30 H                     0.055107
     31 H                     0.055107
     32 H                     0.062145
     33 H                     0.062145
     34 H                     0.034816
     35 H                     0.034816
     36 H                     0.018537
     37 H                     0.018537
     38 H                     0.023753
     39 H                     0.023753
     40 H                     0.043472
     41 H                     0.043472
     42 H                     0.166520
     43 H                     0.166520
     44 H                     0.166520
     45 H                     0.127214
     46 H                     0.127214
     47 H                     0.127214
     48 H                     0.134952
     49 H                     0.134952
     50 H                     0.134952
     51 H                     0.125733
     52 H                     0.125733
     53 H                     0.125733
     54 O                    -0.573374
     55 H                     0.105984
     56 C                    -0.072493
     57 C                     0.687132
     58 C                    -0.383681
     59 H                     0.226520
     60 C                    -0.301917
     61 H                     0.208931
     62 C                     0.688372
     63 C                    -0.232605
     64 O                    -0.535088
     65 H                     0.208907
     66 C                     0.779206
     67 O                    -0.406099
     68 O                    -0.392943
  ----------------------------------------
  Sum of atomic charges =     1.000000

  Related Dipole Moment =     1.8914 (X  1.5806 Y  0.2295 Z -1.0132)

 -----------------------------------------------------------------
                    Cartesian Multipole Moments
 -----------------------------------------------------------------
    Charge (ESU x 10^10)
                 4.8032
    Dipole Moment (Debye)
         X       1.6138      Y       0.1607      Z      -1.0303
       Tot       1.9214
    Quadrupole Moments (Debye-Ang)
        XX    -158.8065     XY      -9.9089     YY    -174.6309
        XZ       4.3242     YZ       6.6394     ZZ    -154.0373
    Octopole Moments (Debye-Ang^2)
       XXX    -167.6058    XXY     295.4040    XYY      29.9129
       YYY    1163.1291    XXZ     178.3084    XYZ     -13.1300
       YYZ     115.9299    XZZ     -58.7071    YZZ     254.5763
       ZZZ     423.5736
    Hexadecapole Moments (Debye-Ang^3)
      XXXX   -5708.8409   XXXY    -393.2321   XXYY   -3145.0771
      XYYY    -952.7208   YYYY  -16518.4329   XXXZ      50.1130
      XXYZ    -742.0843   XYYZ     -15.5328   YYYZ   -2105.1997
      XXZZ   -1737.1448   XYZZ    -144.1896   YYZZ   -2714.3608
      XZZZ     -44.4606   YZZZ   -1968.4918   ZZZZ   -4329.4274
 -----------------------------------------------------------------
 Calculating MO derivatives via CPSCF
 Full subspace dimension requested for CIS/TDDFT

 CIS/TDDFT memory preview:
 --------------------------
	NOV = NOa*NVa + NOb*NVb = 169344
	NRoots = 0, max iter = 30, max vectors = 84672
	Size of each subspace vector: 1.29 Mb
	Davidson algorithm may add up to 2 x NOV x NRoots (= 0.0 Mb) per iteration
	Max memory = 218791.1 Mb (worst case scenario)
	Currently available memory = 96000.0 Mb

	In case of problems:
	(a) increase memory (MEM_TOTAL = 218792 can hold 84672 subspace vectors), or
	(b) request fewer states (CIS_N_ROOTS = 0 will fit in current MEM_TOTAL), or
	(c) reduce MAX_CIS_SUBSPACE (= 37151 will fit in current MEM_TOTAL).
	Reducing MAX_CIS_SUBSPACE may hamper convergence.

 CPSCF will be done in 3 segments to save memory.
 Computing fast CPCM-SWIG hessian.
 Computing fast CPCM-SWIG hessian.
 Computing fast CPCM-SWIG hessian.
   1         0          69      0.232259    0.005433
   2         0          69      0.062286    0.001657
   3         0          69      0.008509    0.000223
   4         0          69      0.001419    0.000041
   5         0          69      0.000207    0.000007
   6         1          68      0.000030    0.000001
   7        57          12      0.000002    0.000000
   8        69           0      0.000000    0.000000    Roots Converged
   1         0          69      0.097123    0.002489
   2         0          69      0.023676    0.000791
   3         0          69      0.003938    0.000141
   4         0          69      0.000656    0.000030
   5         0          69      0.000097    0.000004
   6        23          46      0.000013    0.000001
   7        63           6      0.000001    0.000000
   8        69           0      0.000000    0.000000    Roots Converged
   1         0          69      0.209842    0.017524
   2         0          69      0.048813    0.004242
   3         0          69      0.007386    0.001077
   4         0          69      0.001605    0.000290
   5         0          69      0.000265    0.000050
   6        10          59      0.000037    0.000008
   7        60           9      0.000003    0.000001
   8        68           1      0.000000    0.000000
   9        69           0      0.000000    0.000000    Roots Converged
 Time for AOints: 30556.8 s (CPU) 810.8 s (wall)
 ------------------------------------------------------------------------------
                     AOints        : Timing summary (seconds)
 ------------------------------------------------------------------------------
     job step          cpu (% of tot)      sys (% of tot)     wall (% of tot)
 ------------------------------------------------------------------------------
  cpscf_lag         0.2101E+06 (19.3)   0.2896E-01 (15.8)   0.4013E+05 (37.0)
  iterzp            0.8455E+06 (77.8)   0.1522E+00 (83.2)   0.6746E+05 (62.2)
  make_fx           0.0000E+00 ( 0.0)   0.0000E+00 ( 0.0)   0.0000E+00 ( 0.0)
  AOints            0.3056E+05 ( 2.8)   0.1595E-02 ( 0.9)   0.8108E+03 ( 0.7)
 ------------------------------------------------------------------------------
   Grand Totals     0.1086E+07          0.1830E+00          0.1084E+06
 ------------------------------------------------------------------------------
 Time for AOints: 30113.1 s (CPU) 803.0 s (wall)
 ------------------------------------------------------------------------------
                     AOints        : Timing summary (seconds)
 ------------------------------------------------------------------------------
     job step          cpu (% of tot)      sys (% of tot)     wall (% of tot)
 ------------------------------------------------------------------------------
  cpscf_lag         0.2101E+06 (18.7)   0.2896E-01 (15.3)   0.4013E+05 (36.0)
  iterzp            0.8455E+06 (75.2)   0.1522E+00 (80.2)   0.6746E+05 (60.5)
  make_fx           0.0000E+00 ( 0.0)   0.0000E+00 ( 0.0)   0.0000E+00 ( 0.0)
  AOints            0.6067E+05 ( 5.4)   0.3266E-02 ( 1.7)   0.1614E+04 ( 1.4)
 ------------------------------------------------------------------------------
   Grand Totals     0.1124E+07          0.1897E+00          0.1116E+06
 ------------------------------------------------------------------------------
 Time for AOints: 31598.7 s (CPU) 836.4 s (wall)
 ------------------------------------------------------------------------------
                     AOints        : Timing summary (seconds)
 ------------------------------------------------------------------------------
     job step          cpu (% of tot)      sys (% of tot)     wall (% of tot)
 ------------------------------------------------------------------------------
  cpscf_lag         0.2101E+06 (18.0)   0.2896E-01 (14.7)   0.4013E+05 (35.0)
  iterzp            0.8455E+06 (72.6)   0.1522E+00 (77.3)   0.6746E+05 (58.8)
  make_fx           0.0000E+00 ( 0.0)   0.0000E+00 ( 0.0)   0.0000E+00 ( 0.0)
  AOints            0.9227E+05 ( 7.9)   0.5381E-02 ( 2.7)   0.2450E+04 ( 2.1)
 ------------------------------------------------------------------------------
   Grand Totals     0.1164E+07          0.1968E+00          0.1147E+06
 ------------------------------------------------------------------------------
 Calculating analytic Hessian of the SCF energy
 Polarizability Matrix (a.u.)
            1           2           3
    1-369.8792979 -44.6294331  -3.3726208
    2 -44.6294331-417.7635531  21.0293685
    3  -3.3726208  21.0293685-354.1133697

 Q-Chem warning in module drvman/find_multipole_der.C, line 187:

 Net Molecular Charges From Derivative of Dipole Moment are Inconsistent

 Derivative of Dipole Moment Matrix (a.u.)
            1           2           3
    1  -0.6930684  -0.0136108  -0.0160250
    2  -0.0337005  -0.6019658   0.0170380
    3  -0.0169196  -0.0290186  -0.5765079
    4   0.3659993  -0.1978426   0.2192848
    5  -0.1979353   0.2488050  -0.1473541
    6   0.2316267  -0.1392349   0.2090879
    7   0.4391940  -0.1285123  -0.2294771
    8  -0.1312683   0.1742383   0.0941088
    9  -0.2547074   0.1017789   0.3179669
   10   0.2182469   0.1323154   0.1838381
   11   0.1552362   0.2968387   0.2025234
   12   0.2152314   0.2376104   0.3440799
   13   0.2767301   0.2079395  -0.1047034
   14   0.2469661   0.4600591  -0.1590673
   15  -0.1161258  -0.1687253   0.2152683
   16  -0.0159157   0.1052732  -0.1386965
   17   0.1134067   0.0261393   0.0108509
   18  -0.1005134  -0.0199726   0.0582028
   19  -0.0385573   0.1142489   0.0616782
   20   0.0996404   0.1164404  -0.0069394
   21   0.1034901  -0.0353890  -0.0143679
   22   0.0543960  -0.1271300  -0.0882778
   23  -0.1001647   0.0367134  -0.0094417
   24  -0.0933063  -0.0712247  -0.0354888
   25   0.0370204  -0.0477115   0.1067120
   26  -0.0924788  -0.0640286   0.0718835
   27   0.1193484   0.0627804   0.0630085
   28   0.1572955  -0.0101491  -0.0209076
   29  -0.0570339   0.1631959  -0.0681074
   30  -0.0576864  -0.0250841   0.1000111
   31   0.1185278   0.0310289  -0.0174090
   32   0.0367941   0.1621599   0.0058587
   33  -0.0824342   0.0458889   0.1744743
   34   0.1493639  -0.0197739   0.0031273
   35  -0.0305135   0.0734356   0.0144448
   36   0.0327866   0.0811094   0.1685127
   37   0.1061763  -0.0000376   0.0503893
   38   0.0613855   0.1991695  -0.0380054
   39   0.0360667  -0.0076627   0.1624901
   40   0.0500445   0.0286290  -0.0570519
   41   0.0422123   0.0824097   0.0116192
   42  -0.0404440  -0.0053712   0.0766654
   43   0.0348159   0.0424819   0.0179505
   44   0.0431792   0.1032477  -0.0072022
   45   0.0476144  -0.0258157   0.0649379
   46   0.0724182  -0.0394651  -0.0234098
   47  -0.0714377   0.0382178   0.0000714
   48  -0.0091955  -0.0244117   0.0580013
   49   0.0681930  -0.0132640   0.0412553
   50  -0.0453009   0.0460922   0.0420708
   51   0.0493804   0.0227623   0.0860616
   52   0.0217383   0.0556941  -0.0043075
   53   0.0578812   0.1652969   0.0264541
   54  -0.0003847   0.0550122   0.0179306
   55   0.0069126  -0.0760091  -0.0089448
   56  -0.0388810  -0.0251701   0.0424563
   57   0.0194094   0.0857507   0.0931728
   58   0.0053532  -0.0366212  -0.0405215
   59  -0.0624009   0.0470678  -0.0955474
   60  -0.0256264  -0.0506849   0.0169519
   61   0.0334491   0.0036116   0.0594168
   62   0.0060493  -0.0649039   0.0762844
   63   0.0509553   0.0474298   0.0619635
   64   0.0037713  -0.0349253   0.0673563
   65   0.0169685   0.1293754  -0.0579352
   66   0.0269748  -0.0305456   0.0123361
   67   0.0345786   0.0547216  -0.0953793
   68   0.0357530  -0.0482854   0.0235418
   69  -0.0733964   0.0058773   0.0727946
   70   0.0697484  -0.0686842   0.0013292
   71  -0.0516917   0.0244617  -0.0370359
   72   0.0092649  -0.0711442  -0.0576125
   73  -0.0232545   0.0464428  -0.0486235
   74   0.0202813   0.0362672   0.0350560
   75  -0.0793267   0.0756839   0.0610702
   76  -0.0234905   0.0233558   0.0955551
   77  -0.0003561   0.0574196  -0.0205917
   78   0.0843147  -0.0575054  -0.0754262
   79   0.0344920  -0.0836788   0.0096625
   80  -0.0654126  -0.1258307   0.0262011
   81  -0.0004315   0.0447524   0.0577870
   82  -0.0051398  -0.0578603  -0.0873723
   83  -0.0560807  -0.0037163  -0.0924963
   84  -0.0756032  -0.0638794  -0.0353105
   85   0.0383576  -0.0375353   0.0399326
   86  -0.0411624  -0.0661370   0.1096341
   87   0.0229297   0.0865925  -0.0035376
   88  -0.0086223   0.0193233   0.1115837
   89   0.0055999   0.0560526  -0.0320891
   90   0.0889205  -0.0115658  -0.0729074
   91  -0.0446619   0.0707233  -0.0616914
   92   0.0696097  -0.0858882   0.0617745
   93  -0.0376890   0.0468761   0.0444173
   94   0.0467787  -0.0436584  -0.0220632
   95  -0.0179683   0.0046220  -0.0860281
   96  -0.0365969  -0.1277215  -0.0301758
   97  -0.0683181   0.0903355  -0.0699373
   98   0.0699403   0.0276896   0.0372779
   99  -0.0733390   0.0615808   0.0084538
  100  -0.0252010   0.0505570   0.0848447
  101   0.0361962   0.0610363  -0.0033831
  102   0.1041416  -0.0533881  -0.1533770
  103  -0.0172263  -0.1188450  -0.0244583
  104  -0.0671423  -0.1666059   0.0208966
  105  -0.0021599   0.0347711   0.0605955
  106  -0.0686012  -0.0607648  -0.1035768
  107  -0.0571188  -0.0129341  -0.1125937
  108  -0.0559077  -0.0917223  -0.0495264
  109   0.0249580  -0.0004951   0.0348460
  110  -0.0083734  -0.1282001   0.1439342
  111   0.0421198   0.0891317  -0.0212356
  112  -0.0537071  -0.0500635   0.1468826
  113  -0.0411141   0.0546318  -0.0247175
  114   0.0977025  -0.0357343  -0.0972151
  115  -0.0450381   0.1025836  -0.0728743
  116   0.1120046  -0.1205089   0.0613344
  117  -0.0377115   0.0030301   0.0535184
  118   0.0443214  -0.0375849   0.0041543
  119  -0.0376370  -0.0647548  -0.0862237
  120   0.0110208  -0.1430499  -0.1153010
  121  -0.1301119   0.0938864  -0.0774867
  122   0.0395614   0.0004435   0.0645784
  123  -0.0736164   0.0829301  -0.0035975
  124  -0.0255153   0.0082065   0.1384694
  125  -0.0109405   0.0825691  -0.0333310
  126   0.0635279  -0.0334221  -0.1232349
  127   0.0277165  -0.0908737  -0.0180898
  128  -0.1309777  -0.1324365   0.0010009
  129   0.0054330   0.0588748   0.0384255
  130  -0.0858434   0.1110126  -0.0904244
  131   0.1330874  -0.0267773   0.0333420
  132  -0.0729538   0.0116394   0.0310233
  133  -0.0301307  -0.0372829  -0.0797359
  134  -0.0912172  -0.0279138  -0.1043656
  135  -0.1212629  -0.0734320  -0.0079148
  136   0.0317965  -0.0553240   0.0356365
  137   0.0025154  -0.1124429   0.1177300
  138  -0.0077762   0.1318390   0.0156927
  139  -0.0549569   0.0747082   0.0983639
  140   0.0718743   0.0590886  -0.0415570
  141   0.1265084  -0.0561443  -0.0862786
  142  -0.0463603  -0.0292210   0.1186179
  143   0.0282025   0.0526333  -0.0405769
  144   0.1473225   0.0104952  -0.0637426
  145  -0.0429910   0.1460116  -0.0495215
  146   0.0837418  -0.0852964   0.0408118
  147  -0.0488461   0.0577944   0.0642631
  148  -0.0040739  -0.0823802  -0.1006752
  149  -0.0664212   0.0226484  -0.0468301
  150  -0.1228826  -0.0683438  -0.0814650
  151   0.0364781  -0.0466375  -0.0350644
  152  -0.0027024  -0.0078058  -0.1496146
  153   0.0139011  -0.1149790  -0.0931425
  154  -0.1020504   0.0655998  -0.0515640
  155   0.1010310   0.0518775   0.0433880
  156  -0.1142920   0.0637007  -0.0126038
  157   0.0152461  -0.0637946   0.0654851
  158  -0.0879811  -0.1321036   0.0995639
  159   0.0706154   0.0832191   0.0318767
  160  -0.8626282  -0.5537500   0.0870534
  161  -0.5423354  -1.6604059   0.1275184
  162   0.0916433   0.1605842  -0.7207409
  163   0.1020670  -0.0533465  -0.0543492
  164  -0.0661326   0.1158833   0.0104854
  165  -0.0579329   0.0076536   0.0604070
  166  -0.0242126   0.1212529   0.0673775
  167   0.0670898  -0.2695727   0.2294344
  168   0.1399605   0.3792722  -0.3457256
  169   0.9364587   0.7339080   0.1149128
  170   0.6687898   1.7723591  -0.2162526
  171   0.0986061  -0.2955313   0.9987212
  172  -0.2990961  -0.1676510  -0.1234209
  173  -0.0974852  -0.1076214  -0.2140484
  174  -0.1876123  -0.3485330  -0.0667024
  175   0.1298492  -0.0210234  -0.0365314
  176  -0.0212182   0.0971311   0.0452401
  177  -0.0319957   0.0515850   0.0257435
  178  -0.3047251  -0.2017525  -0.1274036
  179  -0.1432319  -0.1968709  -0.2065749
  180  -0.2182731  -0.3374306  -0.0624429
  181   0.1328841  -0.0185995  -0.0391612
  182  -0.0257092   0.0912623   0.0479894
  183  -0.0348807   0.0468946   0.0291514
  184   0.9833400   0.7514034   0.0834131
  185   0.7250951   1.6686746  -0.2767320
  186   0.0548324  -0.3138663   0.9894613
  187   0.0056765   0.1102597   0.0580357
  188   0.0528022  -0.1807672   0.2191218
  189   0.1246044   0.3444239  -0.3411104
  190  -0.9315349  -0.6778901   0.0433223
  191  -0.6175511  -1.5128077   0.1937803
  192   0.0450558   0.2207240  -0.6575736
  193   0.1353684  -0.0093201  -0.0560288
  194  -0.0118690   0.1336400  -0.0081970
  195  -0.0466334   0.0027538   0.0636416
  196   0.7836556   0.0397541   0.1033748
  197   0.0547487   2.4602768  -1.1574515
  198   0.0975430  -1.2051336   1.5486131
  199  -0.4041910  -0.0199710  -0.0580471
  200  -0.0124376  -1.2291403   0.5831774
  201  -0.0563476   0.6082008  -0.7999997
  202  -0.3541152  -0.0024475  -0.0215920
  203  -0.0245209  -1.2392032   0.5872775
  204  -0.0081867   0.6243510  -0.7531309
 -----------------------------------------
 Net:   0.99967   0.99894   0.99791
 -----------------------------------------

 Call libqints based aoints job 221
atom: 0 element: 7
atom: 1 element: 6
atom: 2 element: 6
atom: 3 element: 6
atom: 4 element: 6
atom: 5 element: 6
atom: 6 element: 6
atom: 7 element: 6
atom: 8 element: 6
atom: 9 element: 6
atom: 10 element: 6
atom: 11 element: 6
atom: 12 element: 6
atom: 13 element: 6
atom: 14 element: 6
atom: 15 element: 6
atom: 16 element: 6
atom: 17 element: 1
atom: 18 element: 1
atom: 19 element: 1
atom: 20 element: 1
atom: 21 element: 1
atom: 22 element: 1
atom: 23 element: 1
atom: 24 element: 1
atom: 25 element: 1
atom: 26 element: 1
atom: 27 element: 1
atom: 28 element: 1
atom: 29 element: 1
atom: 30 element: 1
atom: 31 element: 1
atom: 32 element: 1
atom: 33 element: 1
atom: 34 element: 1
atom: 35 element: 1
atom: 36 element: 1
atom: 37 element: 1
atom: 38 element: 1
atom: 39 element: 1
atom: 40 element: 1
atom: 41 element: 1
atom: 42 element: 1
atom: 43 element: 1
atom: 44 element: 1
atom: 45 element: 1
atom: 46 element: 1
atom: 47 element: 1
atom: 48 element: 1
atom: 49 element: 1
atom: 50 element: 1
atom: 51 element: 1
atom: 52 element: 1
atom: 53 element: 8
atom: 54 element: 1
atom: 55 element: 6
atom: 56 element: 6
atom: 57 element: 6
atom: 58 element: 1
atom: 59 element: 6
atom: 60 element: 1
atom: 61 element: 6
atom: 62 element: 6
atom: 63 element: 8
atom: 64 element: 1
atom: 65 element: 6
atom: 66 element: 8
atom: 67 element: 8
 
 Direct stationary perturbation theory relativistic correction:
 
 rels  =       0.338662984256
 relv  =      -2.063401498625
 rel2e =       0.000000000000
 E_rel =      -1.724738514369
 
 Computing fast CPCM-SWIG hessian
 Gradient time:  CPU 1547285.03 s  wall 127585.06 s
 **********************************************************************
 **                                                                  **
 **                       VIBRATIONAL ANALYSIS                       **
 **                       --------------------                       **
 **                                                                  **
 **        VIBRATIONAL FREQUENCIES (CM**-1) AND NORMAL MODES         **
 **     FORCE CONSTANTS (mDYN/ANGSTROM) AND REDUCED MASSES (AMU)     **
 **                  INFRARED INTENSITIES (KM/MOL)                   **
 **                                                                  **
 **********************************************************************
 

 Mode:                 1                      2                      3
 Frequency:       -18.57                  30.71                  37.35
 Force Cnst:      0.0027                 0.0037                 0.0091
 Red. Mass:      13.4149                 6.7190                11.1301
 IR Active:          YES                    YES                    YES
 IR Intens:        0.087                  0.033                  1.695
 Raman Active:       YES                    YES                    YES
               X      Y      Z        X      Y      Z        X      Y      Z
 N          0.010  0.026 -0.003    0.003  0.002 -0.006   -0.000 -0.047 -0.013
 C         -0.005  0.009 -0.004   -0.011 -0.019 -0.018   -0.001 -0.055 -0.024
 C          0.008  0.031 -0.007   -0.012 -0.022 -0.013    0.004 -0.049 -0.005
 C          0.008  0.042 -0.011    0.016  0.040 -0.035   -0.006 -0.039 -0.015
 C          0.029  0.020  0.007    0.017  0.011  0.040    0.000 -0.043 -0.004
 C         -0.005 -0.008  0.004   -0.030 -0.062  0.014   -0.003 -0.070 -0.016
 C          0.017  0.045 -0.010   -0.002 -0.005 -0.011    0.004 -0.042  0.006
 C         -0.014  0.053 -0.023    0.004  0.037 -0.082   -0.016 -0.036 -0.021
 C          0.030  0.006  0.010    0.030  0.028  0.055   -0.003 -0.032 -0.010
 C         -0.020 -0.025  0.006   -0.054 -0.089  0.016   -0.014 -0.082 -0.012
 C          0.015  0.050 -0.013   -0.019 -0.035 -0.014    0.012 -0.047  0.013
 C         -0.015  0.077 -0.030    0.031  0.069 -0.111   -0.043 -0.008 -0.014
 C          0.049  0.001  0.013    0.045  0.040  0.097   -0.011 -0.025  0.000
 C         -0.022 -0.041  0.014   -0.089 -0.144  0.060   -0.027 -0.100  0.003
 C          0.024  0.063 -0.017   -0.012 -0.023 -0.015    0.011 -0.042  0.026
 C         -0.046  0.095 -0.038    0.019  0.069 -0.158   -0.084  0.014 -0.013
 C          0.050 -0.015  0.016    0.061  0.057  0.118   -0.015 -0.009 -0.007
 H         -0.004  0.005 -0.002    0.002  0.005 -0.015    0.001 -0.044 -0.026
 H         -0.018  0.014 -0.012   -0.019 -0.027 -0.056   -0.001 -0.059 -0.036
 H          0.010  0.023 -0.002   -0.021 -0.044  0.011    0.010 -0.052 -0.007
 H         -0.004  0.032 -0.013   -0.023 -0.033 -0.041    0.004 -0.049 -0.006
 H          0.009  0.033 -0.007    0.026  0.055 -0.028   -0.007 -0.040 -0.017
 H          0.022  0.054 -0.011    0.027  0.055 -0.023   -0.001 -0.031 -0.011
 H          0.034  0.011  0.011    0.007 -0.016  0.060    0.005 -0.052  0.001
 H          0.039  0.033  0.007    0.029  0.031  0.043   -0.002 -0.036  0.006
 H         -0.009 -0.003  0.000   -0.050 -0.076  0.002   -0.007 -0.067 -0.019
 H          0.010 -0.013  0.011   -0.010 -0.063  0.052    0.008 -0.072 -0.007
 H          0.014  0.053 -0.015    0.005  0.015 -0.037   -0.003 -0.034  0.004
 H          0.029  0.044 -0.006    0.010  0.009  0.017    0.004 -0.038  0.012
 H         -0.016  0.057 -0.026   -0.014  0.020 -0.095   -0.000 -0.040 -0.008
 H         -0.029  0.039 -0.026   -0.006  0.027 -0.085   -0.019 -0.046 -0.045
 H          0.024  0.009  0.009    0.041  0.050  0.035   -0.002 -0.026 -0.016
 H          0.023 -0.006  0.012    0.019  0.010  0.058    0.002 -0.032 -0.016
 H         -0.016 -0.029  0.010   -0.026 -0.065  0.034   -0.004 -0.077 -0.004
 H         -0.035 -0.020 -0.001   -0.074 -0.090 -0.035   -0.024 -0.080 -0.028
 H          0.019  0.042 -0.008   -0.027 -0.052  0.011    0.018 -0.050  0.012
 H          0.004  0.050 -0.017   -0.029 -0.049 -0.040    0.014 -0.048  0.012
 H         -0.011  0.064 -0.026    0.052  0.085 -0.096   -0.055 -0.023 -0.022
 H          0.005  0.094 -0.032    0.042  0.079 -0.111   -0.022  0.014 -0.001
 H          0.055 -0.002  0.014    0.031  0.018  0.118   -0.011 -0.032  0.006
 H          0.056  0.012  0.011    0.057  0.057  0.093   -0.016 -0.023  0.009
 H         -0.027 -0.037  0.010   -0.118 -0.169  0.042   -0.037 -0.104 -0.004
 H         -0.008 -0.046  0.021   -0.070 -0.143  0.113   -0.017 -0.101  0.020
 H         -0.033 -0.052  0.016   -0.105 -0.162  0.060   -0.034 -0.107  0.006
 H          0.020  0.070 -0.021   -0.004 -0.006 -0.040    0.005 -0.038  0.027
 H          0.036  0.062 -0.015   -0.003 -0.009  0.011    0.008 -0.040  0.029
 H          0.023  0.068 -0.019   -0.025 -0.044 -0.017    0.018 -0.045  0.031
 H         -0.048  0.108 -0.040   -0.007  0.057 -0.179   -0.075  0.036 -0.008
 H         -0.066  0.078 -0.039    0.008  0.061 -0.152   -0.113 -0.012 -0.020
 H         -0.049  0.111 -0.041    0.046  0.088 -0.181   -0.100  0.038 -0.010
 H          0.044 -0.012  0.015    0.074  0.082  0.097   -0.015 -0.001 -0.013
 H          0.043 -0.027  0.018    0.048  0.038  0.123   -0.009 -0.009 -0.015
 H          0.064 -0.019  0.017    0.072  0.066  0.151   -0.023 -0.003  0.002
 O         -0.050 -0.006 -0.017   -0.056  0.071 -0.120    0.189 -0.032 -0.096
 H         -0.032  0.007 -0.011    0.056  0.063 -0.136    0.185 -0.027 -0.093
 C         -0.040  0.004 -0.002    0.041  0.052 -0.115    0.106  0.026 -0.051
 C         -0.050 -0.003 -0.005   -0.021  0.055 -0.106    0.123  0.009 -0.062
 C         -0.040  0.007  0.011    0.076  0.035 -0.097   -0.009  0.112  0.013
 H         -0.032  0.013  0.013    0.120  0.032 -0.103   -0.030  0.124  0.022
 C         -0.062 -0.007  0.007   -0.040  0.037 -0.079    0.061  0.042 -0.031
 H         -0.070 -0.012  0.006   -0.084  0.041 -0.073    0.109  0.000 -0.058
 C         -0.045 -0.001  0.021    0.058  0.016 -0.069   -0.162  0.222  0.090
 C         -0.061 -0.005  0.020   -0.004  0.019 -0.062   -0.059  0.130  0.034
 O         -0.032 -0.007  0.029    0.096 -0.004 -0.051   -0.397  0.406  0.214
 H         -0.069 -0.007  0.028   -0.018  0.005 -0.041   -0.115  0.160  0.065
 C          0.080 -0.131  0.011   -0.044 -0.070  0.233    0.119 -0.057 -0.005
 O         -0.306  0.125  0.382   -0.064 -0.119  0.171    0.027 -0.148 -0.116
 O          0.465 -0.391 -0.366   -0.026 -0.022  0.298    0.212  0.026  0.102
 TransDip   0.002  0.009 -0.000    0.002  0.004 -0.004    0.029 -0.028 -0.010

 Mode:                 4                      5                      6
 Frequency:        44.88                  48.04                  54.36
 Force Cnst:      0.0080                 0.0061                 0.0065
 Red. Mass:       6.7723                 4.4604                 3.7439
 IR Active:          YES                    YES                    YES
 IR Intens:        0.381                  0.190                  0.198
 Raman Active:       YES                    YES                    YES
               X      Y      Z        X      Y      Z        X      Y      Z
 N         -0.014  0.023  0.013   -0.005 -0.021  0.009   -0.033 -0.015  0.007
 C         -0.031  0.001  0.007   -0.009 -0.012  0.034   -0.036 -0.010  0.022
 C          0.004  0.049  0.021   -0.003  0.018  0.001   -0.036 -0.000  0.000
 C         -0.042  0.034  0.022   -0.011 -0.057  0.033   -0.029 -0.030  0.013
 C          0.012  0.007  0.004   -0.001 -0.035 -0.024   -0.029 -0.021 -0.006
 C         -0.017 -0.022  0.008   -0.021  0.006  0.033   -0.018  0.016 -0.002
 C          0.024  0.089  0.030   -0.003  0.002 -0.027   -0.022  0.012 -0.018
 C         -0.051  0.041  0.030    0.008 -0.059  0.085   -0.017 -0.033  0.030
 C          0.004 -0.023 -0.003   -0.006 -0.054 -0.028    0.008 -0.030  0.048
 C         -0.052 -0.060  0.012   -0.070 -0.026  0.104    0.064  0.084 -0.076
 C          0.064  0.151  0.039    0.003  0.066 -0.043   -0.030  0.042 -0.034
 C         -0.063  0.040  0.038   -0.062 -0.086  0.141   -0.042 -0.045  0.050
 C          0.028 -0.035 -0.016   -0.004 -0.062 -0.049    0.067 -0.026  0.105
 C         -0.057 -0.102  0.031   -0.121 -0.038  0.144    0.129  0.143 -0.143
 C          0.102  0.229  0.049    0.018  0.076 -0.075   -0.009  0.066 -0.062
 C         -0.056  0.037  0.043   -0.017 -0.102  0.204   -0.025 -0.051  0.074
 C          0.016 -0.069 -0.030   -0.013 -0.077 -0.060    0.143 -0.024  0.216
 H         -0.039 -0.009  0.003   -0.003 -0.029  0.044   -0.047 -0.033  0.021
 H         -0.048  0.011  0.006   -0.014 -0.004  0.049   -0.038 -0.001  0.048
 H          0.028  0.030  0.019   -0.002  0.046 -0.023   -0.033 -0.004  0.002
 H         -0.022  0.055  0.019   -0.002  0.036  0.038   -0.051  0.005  0.002
 H         -0.056  0.028  0.008   -0.017 -0.068  0.029   -0.028 -0.027  0.013
 H         -0.041  0.042  0.036   -0.022 -0.075  0.020   -0.036 -0.039  0.008
 H          0.030  0.005  0.001    0.007 -0.017 -0.038   -0.068  0.006 -0.013
 H          0.022  0.022  0.006   -0.002 -0.043 -0.031   -0.012 -0.041 -0.050
 H         -0.016 -0.002  0.006   -0.041  0.063  0.010    0.013 -0.043  0.029
 H          0.015 -0.037  0.009    0.021 -0.018  0.006   -0.090  0.049  0.001
 H         -0.012  0.097  0.055   -0.009 -0.028  0.006   -0.024  0.010 -0.015
 H          0.050  0.067  0.006   -0.002 -0.026 -0.072   -0.004  0.000 -0.029
 H         -0.044  0.047  0.035    0.054 -0.054  0.122   -0.000 -0.034  0.043
 H         -0.056  0.036  0.027    0.028 -0.050  0.057   -0.007 -0.028  0.020
 H         -0.017 -0.024  0.003   -0.014 -0.064 -0.019    0.032 -0.008  0.024
 H         -0.001 -0.036 -0.006   -0.005 -0.050 -0.027   -0.027 -0.059  0.076
 H         -0.041 -0.068  0.021   -0.026 -0.059  0.140    0.005  0.116 -0.124
 H         -0.085 -0.049 -0.007   -0.112 -0.009  0.093    0.137  0.059 -0.037
 H          0.113  0.120  0.025    0.014  0.082 -0.068   -0.026  0.037 -0.033
 H          0.015  0.168  0.048   -0.015  0.093 -0.007   -0.057  0.053 -0.028
 H         -0.072  0.044  0.030   -0.116 -0.080  0.098   -0.062 -0.042  0.034
 H         -0.068  0.038  0.046   -0.095 -0.104  0.180   -0.055 -0.052  0.065
 H          0.054 -0.034 -0.022    0.009 -0.053 -0.058    0.001 -0.041  0.132
 H          0.032 -0.020 -0.009   -0.007 -0.064 -0.045    0.122 -0.007  0.041
 H         -0.068 -0.098  0.023   -0.166 -0.014  0.110    0.192  0.122 -0.098
 H         -0.026 -0.113  0.054   -0.084 -0.053  0.162    0.064  0.166 -0.192
 H         -0.081 -0.128  0.032   -0.151 -0.058  0.192    0.182  0.187 -0.191
 H          0.055  0.262  0.061    0.008  0.063 -0.052   -0.013  0.071 -0.065
 H          0.155  0.211  0.039    0.038  0.050 -0.110    0.020  0.055 -0.070
 H          0.129  0.274  0.054    0.019  0.122 -0.088   -0.018  0.089 -0.075
 H         -0.042  0.029  0.055    0.046 -0.114  0.260   -0.002 -0.055  0.094
 H         -0.048  0.038  0.028    0.020 -0.085  0.154   -0.012 -0.045  0.057
 H         -0.070  0.040  0.050   -0.081 -0.119  0.250   -0.048 -0.058  0.091
 H         -0.009 -0.071 -0.024   -0.024 -0.087 -0.051    0.216 -0.010  0.191
 H          0.014 -0.084 -0.038   -0.008 -0.072 -0.064    0.088 -0.039  0.287
 H          0.034 -0.078 -0.041   -0.013 -0.083 -0.075    0.184 -0.022  0.256
 O         -0.161  0.040 -0.048    0.068  0.038 -0.055    0.013  0.004  0.010
 H         -0.051  0.048 -0.055    0.076  0.009 -0.074   -0.024 -0.029 -0.006
 C         -0.058  0.028 -0.035    0.067  0.022 -0.074   -0.021 -0.013 -0.019
 C         -0.121  0.023 -0.030    0.053  0.044 -0.061   -0.005  0.009 -0.010
 C         -0.014  0.006 -0.015    0.071  0.017 -0.086   -0.030 -0.013 -0.043
 H          0.029  0.009 -0.017    0.085 -0.002 -0.098   -0.040 -0.029 -0.051
 C         -0.135 -0.001 -0.001    0.025  0.072 -0.055   -0.009  0.037 -0.024
 H         -0.183  0.002  0.004    0.007  0.091 -0.043   -0.002  0.055 -0.015
 C         -0.011 -0.033  0.006    0.055  0.038 -0.084   -0.026  0.010 -0.061
 C         -0.087 -0.025  0.016    0.026  0.069 -0.065   -0.020  0.038 -0.047
 O          0.061 -0.078  0.011    0.063  0.030 -0.096   -0.028  0.005 -0.085
 H         -0.094 -0.044  0.037    0.009  0.086 -0.060   -0.023  0.057 -0.057
 C          0.199 -0.111 -0.065   -0.028  0.049  0.017    0.006 -0.050  0.013
 O          0.286 -0.169 -0.151   -0.090  0.057  0.033   -0.040 -0.082 -0.026
 O          0.113 -0.055  0.016    0.034  0.043  0.004    0.049 -0.020  0.051
 TransDip  -0.013  0.012  0.010   -0.009 -0.005  0.010   -0.012  0.002  0.007

 Mode:                 7                      8                      9
 Frequency:        62.34                  66.15                  74.75
 Force Cnst:      0.0123                 0.0124                 0.0141
 Red. Mass:       5.3863                 4.8212                 4.2810
 IR Active:          YES                    YES                    YES
 IR Intens:        0.973                  1.629                  1.308
 Raman Active:       YES                    YES                    YES
               X      Y      Z        X      Y      Z        X      Y      Z
 N          0.023  0.008 -0.013   -0.066 -0.054 -0.008    0.044 -0.020  0.023
 C          0.020  0.010 -0.004   -0.065 -0.061 -0.022    0.066  0.005  0.023
 C          0.019  0.017 -0.018   -0.061 -0.060 -0.002    0.021 -0.039  0.009
 C          0.023 -0.005 -0.006   -0.067 -0.038 -0.016    0.069 -0.034  0.017
 C          0.026  0.003 -0.022   -0.066 -0.048  0.006    0.007  0.001  0.040
 C          0.016  0.019 -0.005   -0.051 -0.075 -0.025    0.050  0.019  0.026
 C         -0.002 -0.030 -0.036   -0.031 -0.002  0.008    0.033 -0.038 -0.027
 C          0.031 -0.004  0.021   -0.051 -0.052 -0.037    0.078 -0.039  0.021
 C          0.041 -0.009  0.001   -0.052 -0.028  0.023   -0.004  0.069  0.015
 C          0.012  0.019  0.010   -0.010 -0.052 -0.091    0.041  0.019  0.056
 C         -0.039 -0.070 -0.049    0.011  0.077  0.013    0.012  0.027 -0.064
 C         -0.023 -0.011  0.060   -0.025 -0.055 -0.053    0.083 -0.058  0.025
 C          0.088 -0.012  0.033   -0.061 -0.014  0.052   -0.080  0.117  0.071
 C         -0.004  0.021  0.020    0.025 -0.058 -0.113    0.016  0.023  0.072
 C         -0.094 -0.188 -0.073    0.092  0.231  0.017    0.085  0.126 -0.135
 C         -0.025 -0.002  0.114   -0.014 -0.064 -0.072    0.085 -0.056  0.045
 C          0.136 -0.026  0.103   -0.037  0.022  0.083   -0.108  0.228  0.021
 H          0.020  0.002 -0.002   -0.072 -0.050 -0.031    0.074  0.025  0.022
 H          0.018  0.013  0.003   -0.063 -0.063 -0.027    0.086 -0.009  0.017
 H          0.006  0.052 -0.036   -0.045 -0.098  0.017    0.001 -0.039  0.023
 H          0.043  0.026  0.011   -0.093 -0.065 -0.031    0.017 -0.043 -0.001
 H          0.021 -0.008 -0.007   -0.068 -0.015 -0.024    0.081 -0.031  0.029
 H          0.018 -0.012 -0.011   -0.078 -0.037  0.003    0.066 -0.046  0.001
 H          0.015  0.014 -0.026   -0.085 -0.048  0.011    0.004 -0.012  0.049
 H          0.033 -0.003 -0.039   -0.060 -0.051 -0.005   -0.013 -0.007  0.062
 H          0.010  0.027 -0.010   -0.031 -0.125 -0.003    0.038  0.033  0.016
 H          0.017  0.017 -0.010   -0.086 -0.053 -0.000    0.057  0.014  0.017
 H          0.030 -0.052 -0.043   -0.073  0.018  0.027    0.036 -0.049 -0.018
 H         -0.030 -0.020 -0.033    0.011 -0.025 -0.011    0.053 -0.059 -0.051
 H          0.066 -0.004  0.049   -0.065 -0.065 -0.046    0.073 -0.040  0.017
 H          0.040 -0.004 -0.004   -0.042 -0.044 -0.035    0.083 -0.031  0.033
 H          0.045  0.006 -0.012   -0.032 -0.018  0.011    0.004  0.097 -0.009
 H          0.019 -0.034  0.014   -0.055 -0.026  0.030    0.024  0.077 -0.018
 H          0.023  0.019  0.018   -0.039 -0.009 -0.118    0.059  0.011  0.070
 H          0.010  0.019  0.004    0.026 -0.069 -0.098    0.034  0.021  0.050
 H         -0.095 -0.009 -0.060    0.083  0.006  0.019    0.029 -0.011 -0.042
 H          0.031 -0.075 -0.030   -0.090  0.095  0.002   -0.083  0.047 -0.070
 H         -0.062 -0.028  0.032   -0.007 -0.045 -0.041    0.083 -0.068  0.027
 H         -0.027 -0.008  0.080   -0.028 -0.060 -0.064    0.081 -0.064  0.013
 H          0.052 -0.020  0.047   -0.093 -0.023  0.067   -0.084  0.079  0.102
 H          0.126  0.004 -0.010   -0.053 -0.019  0.038   -0.121  0.109  0.123
 H         -0.015  0.019  0.012    0.059 -0.095 -0.086   -0.004  0.027  0.058
 H         -0.003  0.021  0.026   -0.006 -0.042 -0.108    0.020  0.022  0.078
 H         -0.005  0.022  0.030    0.052 -0.043 -0.160    0.010  0.023  0.091
 H         -0.039 -0.254 -0.057    0.022  0.310  0.003    0.071  0.174 -0.170
 H         -0.170 -0.185 -0.097    0.203  0.215  0.033    0.189  0.111 -0.122
 H         -0.119 -0.213 -0.082    0.116  0.285  0.018    0.055  0.171 -0.168
 H          0.012  0.018  0.143   -0.029 -0.074 -0.084    0.069 -0.036  0.029
 H         -0.021 -0.003  0.098   -0.008 -0.056 -0.063    0.081 -0.049  0.080
 H         -0.066 -0.013  0.143    0.006 -0.067 -0.082    0.102 -0.081  0.042
 H          0.177 -0.022  0.092   -0.003  0.034  0.067   -0.108  0.271 -0.011
 H          0.097 -0.037  0.151   -0.044  0.029  0.098   -0.067  0.234 -0.035
 H          0.169 -0.029  0.122   -0.046  0.034  0.107   -0.170  0.265  0.069
 O         -0.160  0.042 -0.164    0.046  0.002 -0.063   -0.068 -0.001 -0.038
 H          0.108  0.077 -0.169    0.110  0.060 -0.037    0.016 -0.020 -0.055
 C          0.055  0.045 -0.099    0.096  0.036 -0.008   -0.000 -0.020 -0.040
 C         -0.082  0.014 -0.100    0.062  0.001 -0.023   -0.035 -0.018 -0.035
 C          0.097  0.041 -0.010    0.107  0.041  0.040   -0.001 -0.016 -0.022
 H          0.185  0.067 -0.004    0.129  0.067  0.052    0.017 -0.012 -0.022
 C         -0.127 -0.050 -0.020    0.049 -0.037  0.011   -0.033 -0.035 -0.024
 H         -0.201 -0.083 -0.032    0.027 -0.066 -0.003   -0.041 -0.042 -0.027
 C          0.009  0.005  0.092    0.084  0.011  0.080   -0.038 -0.007  0.006
 C         -0.082 -0.056  0.068    0.063 -0.035  0.058   -0.034 -0.030 -0.007
 O          0.007  0.032  0.194    0.079  0.027  0.131   -0.079  0.028  0.041
 H         -0.119 -0.098  0.130    0.056 -0.063  0.083   -0.043 -0.035  0.005
 C          0.012  0.061 -0.038   -0.015  0.083  0.007   -0.065 -0.093 -0.039
 O          0.106  0.113  0.023    0.047  0.149  0.087   -0.039 -0.088 -0.035
 O         -0.077  0.012 -0.098   -0.072  0.025 -0.070   -0.094 -0.101 -0.048
 TransDip   0.018 -0.022 -0.013   -0.028 -0.029 -0.008    0.032 -0.017 -0.001

 Mode:                10                     11                     12
 Frequency:        77.22                  80.30                  82.43
 Force Cnst:      0.0136                 0.0139                 0.0283
 Red. Mass:       3.8630                 3.6462                 7.0758
 IR Active:          YES                    YES                    YES
 IR Intens:        1.354                  1.369                  1.284
 Raman Active:       YES                    YES                    YES
               X      Y      Z        X      Y      Z        X      Y      Z
 N         -0.007  0.020 -0.078   -0.008 -0.025  0.023   -0.001 -0.003 -0.055
 C          0.012  0.036 -0.084   -0.006 -0.012  0.045    0.019  0.015 -0.062
 C          0.022  0.014 -0.050   -0.012 -0.033  0.019    0.014 -0.013 -0.040
 C         -0.029  0.004 -0.058    0.003 -0.022  0.018   -0.009 -0.016 -0.043
 C         -0.029  0.023 -0.100   -0.007 -0.026  0.014   -0.026  0.005 -0.063
 C         -0.018  0.052 -0.071   -0.044  0.032  0.053    0.015  0.023 -0.064
 C         -0.003  0.008  0.013    0.000 -0.002  0.039    0.002 -0.016 -0.010
 C         -0.002 -0.005 -0.028    0.007 -0.029 -0.015    0.025 -0.031 -0.021
 C         -0.010  0.032 -0.074    0.014 -0.049  0.047   -0.022  0.033 -0.061
 C         -0.054  0.041  0.012    0.015  0.115  0.090   -0.033 -0.014 -0.010
 C          0.089  0.004  0.082    0.027 -0.017  0.063    0.057  0.007  0.022
 C         -0.031 -0.034  0.002    0.087 -0.026 -0.071    0.054 -0.095 -0.018
 C          0.016  0.044 -0.023    0.013 -0.083 -0.037   -0.017  0.061  0.014
 C         -0.144  0.039  0.076   -0.029  0.223  0.083   -0.083 -0.048  0.036
 C          0.046 -0.011  0.204    0.050  0.053  0.113    0.050  0.024  0.076
 C         -0.016 -0.036  0.050    0.089 -0.037 -0.145    0.094 -0.112  0.019
 C          0.120  0.077  0.124    0.005 -0.148 -0.044    0.058  0.127  0.117
 H          0.022  0.051 -0.080    0.012 -0.013  0.059    0.017  0.020 -0.065
 H          0.028  0.025 -0.090    0.002 -0.017  0.046    0.034  0.010 -0.053
 H          0.043  0.018 -0.069   -0.009 -0.056  0.035    0.021 -0.011 -0.048
 H          0.047  0.012 -0.039   -0.028 -0.040 -0.005    0.028 -0.015 -0.036
 H         -0.045  0.014 -0.079    0.008 -0.007  0.020   -0.018  0.001 -0.057
 H         -0.054 -0.008 -0.040   -0.000 -0.022  0.023   -0.035 -0.031 -0.028
 H         -0.048  0.043 -0.108   -0.036 -0.002  0.006   -0.032  0.009 -0.064
 H         -0.033 -0.002 -0.118    0.003 -0.045 -0.019   -0.036 -0.009 -0.061
 H         -0.049  0.088 -0.099   -0.064  0.003  0.042    0.004  0.072 -0.079
 H          0.007  0.039 -0.082   -0.100  0.057  0.052    0.056  0.000 -0.084
 H         -0.043  0.003  0.053   -0.017  0.025  0.029   -0.026 -0.024  0.021
 H         -0.038  0.007 -0.006    0.014  0.007  0.060   -0.015 -0.026 -0.033
 H          0.019 -0.006 -0.010   -0.043 -0.034 -0.054    0.010 -0.025 -0.033
 H          0.016  0.007 -0.039    0.001 -0.022  0.022    0.043 -0.004  0.011
 H          0.010  0.049 -0.093    0.040 -0.103  0.084   -0.017  0.070 -0.092
 H         -0.027  0.019 -0.059    0.009 -0.005  0.088   -0.027  0.008 -0.072
 H          0.011  0.026  0.062    0.030  0.127  0.100    0.008 -0.037  0.023
 H         -0.080  0.048 -0.013    0.079  0.092  0.120   -0.077  0.001 -0.032
 H          0.140  0.010  0.032    0.061 -0.067  0.082    0.095  0.005 -0.009
 H          0.149  0.002  0.103   -0.001 -0.032  0.029    0.068  0.016  0.041
 H         -0.054 -0.047 -0.014    0.143 -0.002 -0.030    0.067 -0.102 -0.006
 H         -0.044 -0.045  0.005    0.093 -0.031 -0.104    0.032 -0.126 -0.054
 H         -0.093  0.044  0.000    0.025 -0.032 -0.082   -0.102  0.038  0.052
 H          0.071  0.026 -0.113    0.012 -0.114 -0.058    0.017  0.057 -0.036
 H         -0.214  0.046  0.027   -0.047  0.221  0.071   -0.127 -0.036  0.004
 H         -0.123  0.036  0.111   -0.092  0.246  0.044   -0.044 -0.060  0.069
 H         -0.165  0.035  0.140    0.016  0.284  0.125   -0.115 -0.073  0.072
 H         -0.007 -0.017  0.260    0.014  0.106  0.093    0.011  0.029  0.108
 H         -0.018 -0.008  0.186    0.080  0.070  0.152    0.040  0.017  0.059
 H          0.128 -0.018  0.261    0.074  0.037  0.134    0.096  0.041  0.101
 H          0.010 -0.025  0.071    0.013 -0.052 -0.209    0.063 -0.097 -0.009
 H         -0.003 -0.027  0.043    0.077 -0.029 -0.086    0.114 -0.076  0.084
 H         -0.042 -0.056  0.073    0.175 -0.040 -0.197    0.135 -0.177  0.014
 H          0.242  0.067  0.107   -0.012 -0.195 -0.005    0.154  0.143  0.086
 H          0.063  0.106  0.227    0.005 -0.126 -0.028    0.022  0.141  0.179
 H          0.134  0.084  0.153    0.015 -0.173 -0.104    0.055  0.146  0.167
 O          0.091 -0.043 -0.013   -0.080  0.038 -0.059   -0.146 -0.022  0.020
 H         -0.000 -0.003  0.022    0.031  0.022 -0.075   -0.069 -0.028  0.009
 C          0.006 -0.001  0.015    0.018  0.014 -0.059   -0.056 -0.050  0.011
 C          0.045 -0.016  0.002   -0.029  0.013 -0.054   -0.079 -0.058  0.009
 C         -0.013  0.010  0.015    0.032  0.010 -0.038   -0.034 -0.062  0.016
 H         -0.033  0.018  0.021    0.057  0.014 -0.038   -0.030 -0.052  0.021
 C          0.032 -0.002  0.004   -0.017 -0.020 -0.044   -0.027 -0.103 -0.006
 H          0.043 -0.005  0.002   -0.031 -0.030 -0.048   -0.019 -0.113 -0.012
 C          0.001  0.005  0.004   -0.001  0.009 -0.007   -0.025 -0.078  0.018
 C          0.012  0.009  0.004   -0.001 -0.024 -0.024   -0.003 -0.115 -0.002
 O          0.006 -0.001 -0.006   -0.037  0.043  0.033   -0.047 -0.060  0.035
 H          0.009  0.018  0.002   -0.003 -0.042 -0.011    0.021 -0.141 -0.008
 C         -0.047 -0.086 -0.018   -0.027 -0.004 -0.018    0.067  0.181  0.009
 O          0.020 -0.059  0.013   -0.053 -0.011 -0.025   -0.157  0.091 -0.092
 O         -0.115 -0.115 -0.052   -0.001  0.002 -0.012    0.295  0.275  0.117
 TransDip  -0.022  0.022 -0.021    0.023 -0.030 -0.001    0.028 -0.013 -0.019

 Mode:                13                     14                     15
 Frequency:        93.06                 101.85                 102.97
 Force Cnst:      0.0201                 0.0099                 0.0360
 Red. Mass:       3.9423                 1.6118                 5.7609
 IR Active:          YES                    YES                    YES
 IR Intens:        1.817                  0.104                  0.939
 Raman Active:       YES                    YES                    YES
               X      Y      Z        X      Y      Z        X      Y      Z
 N         -0.024  0.052  0.010   -0.002 -0.014  0.008   -0.002 -0.011 -0.004
 C         -0.032  0.041  0.004   -0.007 -0.019  0.011    0.000 -0.005  0.006
 C         -0.015  0.062  0.013   -0.004 -0.007  0.005   -0.001 -0.005 -0.005
 C         -0.036  0.045  0.019   -0.004 -0.004  0.005   -0.003 -0.021  0.003
 C         -0.009  0.041 -0.003    0.005 -0.016  0.015   -0.002 -0.016 -0.012
 C          0.010  0.008 -0.011   -0.005 -0.010  0.005    0.039  0.027 -0.035
 C         -0.024  0.047  0.013   -0.025 -0.049 -0.010   -0.000 -0.001  0.001
 C          0.018  0.016  0.029    0.008 -0.014 -0.011    0.000 -0.019  0.015
 C         -0.009  0.006  0.002   -0.004 -0.010  0.003   -0.033 -0.019 -0.054
 C         -0.020 -0.052 -0.078   -0.020 -0.016  0.038   -0.052 -0.044  0.061
 C         -0.002  0.084  0.016    0.086  0.163  0.003   -0.008 -0.034  0.006
 C          0.098 -0.076  0.009   -0.005  0.016 -0.013    0.054 -0.066 -0.005
 C          0.029 -0.020 -0.033    0.002  0.004  0.043    0.030  0.001  0.049
 C          0.024 -0.165 -0.069    0.017  0.044 -0.009    0.018  0.026 -0.013
 C         -0.066 -0.035  0.016   -0.029 -0.057 -0.000    0.012  0.011  0.021
 C          0.198 -0.133  0.014   -0.010  0.014 -0.043    0.082 -0.081 -0.004
 C          0.042 -0.082 -0.009   -0.028  0.021 -0.003   -0.003  0.003  0.001
 H         -0.053  0.023 -0.006   -0.010 -0.026  0.011   -0.023 -0.043 -0.001
 H         -0.043  0.054  0.019   -0.012 -0.014  0.017   -0.005  0.015  0.054
 H         -0.011  0.069  0.005   -0.012  0.024 -0.015    0.000 -0.005 -0.006
 H         -0.011  0.064  0.021    0.017  0.001  0.033   -0.003 -0.004 -0.003
 H         -0.049  0.074 -0.001   -0.008  0.013 -0.003   -0.003 -0.028  0.006
 H         -0.070  0.027  0.042   -0.015 -0.003  0.023   -0.003 -0.024 -0.004
 H         -0.002  0.046 -0.008    0.015 -0.025  0.018    0.034 -0.030 -0.012
 H         -0.001  0.044 -0.011    0.004 -0.005  0.026   -0.013  0.001  0.020
 H          0.039  0.010  0.010   -0.008  0.023 -0.003    0.046  0.162 -0.049
 H          0.038 -0.003 -0.004    0.013 -0.023 -0.017    0.128 -0.033 -0.123
 H         -0.034  0.018  0.048   -0.086 -0.148  0.136    0.005  0.016 -0.019
 H         -0.039  0.027 -0.028   -0.060 -0.140 -0.177    0.002  0.014  0.026
 H         -0.020  0.008 -0.001    0.021 -0.038  0.003   -0.034  0.001 -0.015
 H          0.049  0.059  0.079    0.016 -0.016 -0.040   -0.001 -0.004  0.065
 H         -0.019 -0.009  0.017   -0.018  0.017 -0.016   -0.093  0.059 -0.103
 H         -0.019  0.001  0.013   -0.003 -0.036 -0.017   -0.040 -0.110 -0.112
 H         -0.041 -0.029 -0.096   -0.040 -0.081  0.031   -0.078 -0.214  0.063
 H         -0.057 -0.045 -0.125   -0.037  0.005  0.106   -0.144  0.022  0.191
 H         -0.017  0.171 -0.056    0.112  0.372 -0.225   -0.003 -0.074  0.041
 H          0.080  0.113  0.094    0.241  0.281  0.252   -0.033 -0.054 -0.036
 H          0.139 -0.045  0.038   -0.012  0.035 -0.021    0.087 -0.067  0.021
 H          0.043 -0.140 -0.041   -0.004  0.025  0.011    0.042 -0.089 -0.048
 H          0.033  0.003 -0.052    0.039 -0.032  0.064    0.097 -0.081  0.103
 H          0.049 -0.019 -0.060   -0.009  0.040  0.086    0.037  0.101  0.113
 H          0.049 -0.199 -0.049    0.038  0.121 -0.001    0.045  0.209 -0.011
 H          0.062 -0.173 -0.013    0.037  0.020 -0.087    0.115 -0.046 -0.152
 H         -0.001 -0.212 -0.135    0.003  0.038  0.023   -0.053 -0.030  0.064
 H         -0.053 -0.133  0.103   -0.065 -0.283  0.264    0.008  0.055 -0.020
 H         -0.154 -0.072 -0.078   -0.192 -0.192 -0.284    0.040  0.035  0.070
 H         -0.040  0.005  0.021    0.077  0.136  0.014    0.005 -0.021  0.025
 H          0.132 -0.158 -0.040   -0.005 -0.004 -0.037    0.033 -0.075 -0.046
 H          0.250 -0.062  0.102   -0.013  0.005 -0.067    0.092 -0.053  0.062
 H          0.288 -0.224 -0.012   -0.016  0.040 -0.047    0.142 -0.129 -0.025
 H          0.040 -0.110  0.012   -0.067  0.061 -0.025   -0.067  0.083 -0.048
 H          0.022 -0.081  0.021   -0.014 -0.016 -0.050   -0.006 -0.090 -0.062
[...]
 H          0.001 -0.001  0.001   -0.136  0.092 -0.094    0.485 -0.332  0.333
 H          0.001 -0.000 -0.001   -0.043  0.010  0.058   -0.009  0.002  0.013
 H         -0.000 -0.000  0.000   -0.013 -0.032  0.007    0.008  0.019 -0.004
 H         -0.001 -0.001 -0.001    0.068  0.066  0.073    0.001 -0.000 -0.000
 H         -0.000 -0.001  0.001    0.028  0.111 -0.066   -0.013 -0.037  0.024
 H          0.005 -0.000 -0.005    0.025 -0.004 -0.032   -0.003 -0.000  0.002
 H          0.008 -0.007  0.004    0.006 -0.006  0.002    0.002 -0.002  0.001
 H          0.000  0.000  0.000   -0.003 -0.013 -0.016    0.019  0.075  0.096
 H          0.000 -0.000  0.000   -0.024  0.012 -0.016    0.084 -0.041  0.054
 H          0.000 -0.000 -0.000   -0.005  0.001  0.006   -0.002  0.000  0.002
 H         -0.000  0.000 -0.000   -0.002 -0.005  0.001    0.000  0.001 -0.000
 H         -0.000 -0.000 -0.000    0.008  0.012  0.013   -0.001 -0.000  0.000
 H         -0.000 -0.000  0.000    0.005  0.014 -0.011   -0.001 -0.002  0.001
 H         -0.019  0.002  0.025    0.002 -0.001 -0.003   -0.000 -0.000  0.000
 H          0.036 -0.041  0.013    0.001 -0.001  0.000   -0.001  0.000 -0.000
 H         -0.000 -0.000 -0.000   -0.001 -0.003 -0.003    0.004  0.014  0.014
 H          0.000 -0.000  0.000   -0.003  0.002 -0.003    0.012 -0.009  0.010
 H         -0.000 -0.000  0.000   -0.001  0.000  0.002    0.000 -0.000 -0.000
 H          0.000  0.000 -0.000   -0.001 -0.001  0.000    0.000  0.000 -0.000
 H         -0.001  0.001 -0.000   -0.001  0.001 -0.000   -0.001  0.001 -0.000
 H         -0.001 -0.001 -0.001    0.001 -0.000  0.000   -0.001 -0.001 -0.001
 H         -0.000 -0.000  0.000   -0.001  0.000  0.000   -0.000 -0.001  0.000
 H          0.001 -0.000 -0.001    0.000  0.000  0.000    0.000 -0.000 -0.000
 H         -0.185  0.026  0.196    0.001  0.000 -0.001    0.000 -0.000 -0.000
 H          0.266 -0.314  0.076    0.000 -0.000  0.000    0.000 -0.000  0.000
 H          0.436  0.224  0.705   -0.001 -0.001 -0.002   -0.001 -0.000 -0.001
 H         -0.000 -0.000 -0.001    0.000 -0.000 -0.000   -0.000 -0.000  0.000
 H          0.000 -0.000  0.000   -0.000 -0.000  0.000    0.000  0.000 -0.001
 H         -0.000 -0.001  0.000   -0.000 -0.001  0.000    0.000  0.001 -0.000
 O         -0.000 -0.000 -0.000    0.000 -0.000 -0.000    0.000 -0.000 -0.000
 H          0.000  0.000  0.000    0.000  0.000  0.000    0.002  0.001  0.002
 C         -0.000 -0.000 -0.000   -0.000 -0.000 -0.000   -0.000 -0.000 -0.000
 C          0.000  0.000  0.000    0.000 -0.000 -0.000   -0.000 -0.000 -0.000
 C          0.000  0.000 -0.000    0.000 -0.000  0.000    0.000 -0.000  0.000
 H          0.000 -0.000  0.001   -0.000  0.000 -0.001   -0.000  0.000 -0.001
 C         -0.000  0.000 -0.000    0.000  0.000 -0.000    0.000  0.000 -0.000
 H          0.000 -0.000  0.000    0.000 -0.000  0.000    0.000 -0.000  0.000
 C         -0.000  0.000  0.000    0.000 -0.000 -0.000   -0.000 -0.000 -0.000
 C         -0.000 -0.000 -0.000   -0.000 -0.000 -0.000   -0.000 -0.000 -0.000
 O         -0.000  0.000 -0.000    0.000 -0.000 -0.000   -0.000 -0.000 -0.000
 H          0.001  0.001  0.001    0.000  0.000  0.000    0.000  0.000  0.000
 C         -0.000  0.000 -0.000   -0.000 -0.000 -0.000   -0.000 -0.000 -0.000
 O          0.000 -0.000  0.000   -0.000 -0.000 -0.000   -0.000 -0.000 -0.000
 O         -0.000 -0.000  0.000   -0.000 -0.000 -0.000   -0.000 -0.000  0.000
 TransDip  -0.109  0.015 -0.173   -0.032 -0.102 -0.002   -0.071 -0.010 -0.100

 Mode:               193                    194                    195
 Frequency:      3183.98                3186.36                3218.12
 Force Cnst:      6.6137                 6.6237                 6.6451
 Red. Mass:       1.1073                 1.1073                 1.0890
 IR Active:          YES                    YES                    YES
 IR Intens:       10.166                 11.065                  0.740
 Raman Active:       YES                    YES                    YES
               X      Y      Z        X      Y      Z        X      Y      Z
 N         -0.000  0.000 -0.000    0.000 -0.000 -0.000    0.000 -0.000 -0.000
 C          0.030  0.016 -0.028    0.055  0.027 -0.054   -0.001 -0.000  0.001
 C         -0.003 -0.004 -0.002    0.003  0.008  0.001    0.000 -0.000  0.000
 C         -0.068  0.043  0.015    0.036 -0.022 -0.009   -0.000  0.000  0.000
 C         -0.002  0.001 -0.001    0.009 -0.001  0.012   -0.000  0.000 -0.000
 C          0.005  0.003 -0.005    0.008  0.006 -0.008   -0.000 -0.000  0.000
 C         -0.002 -0.003 -0.001    0.001  0.001  0.001    0.000  0.000 -0.000
 C         -0.012  0.009  0.005    0.002 -0.000 -0.002    0.000 -0.000  0.000
 C          0.003  0.002  0.006    0.003 -0.000  0.002   -0.000 -0.000 -0.000
 C          0.001  0.001 -0.001    0.001  0.001 -0.001    0.000 -0.000 -0.000
 C         -0.000 -0.000 -0.000    0.000  0.000  0.000    0.000 -0.000  0.000
 C         -0.002  0.001  0.001    0.000 -0.000 -0.000   -0.000 -0.000 -0.000
 C          0.000  0.000  0.001    0.000 -0.000  0.000   -0.000  0.000  0.000
 C         -0.000 -0.000  0.000   -0.000  0.000  0.000   -0.000  0.000 -0.000
 C          0.000 -0.000 -0.000   -0.000 -0.000  0.000   -0.000  0.000  0.000
 C          0.000 -0.000 -0.000   -0.000  0.000 -0.000    0.000 -0.000 -0.000
 C          0.000  0.000  0.000   -0.000 -0.000  0.000    0.000  0.000  0.000
 H         -0.187  0.074  0.242   -0.379  0.148  0.484    0.012 -0.004 -0.015
 H         -0.165 -0.272  0.088   -0.287 -0.475  0.151    0.003  0.006 -0.001
 H          0.023  0.025  0.030   -0.028 -0.030 -0.038   -0.000 -0.000 -0.000
 H          0.005  0.023 -0.010   -0.019 -0.062  0.030    0.000  0.000 -0.000
 H          0.453 -0.099 -0.411   -0.246  0.055  0.224    0.001 -0.000 -0.001
 H          0.365 -0.410  0.230   -0.186  0.207 -0.116    0.001 -0.001  0.000
 H          0.003  0.004  0.006   -0.023 -0.055 -0.088   -0.000 -0.000 -0.000
 H          0.021 -0.016  0.015   -0.089  0.061 -0.061    0.000 -0.000  0.000
 H         -0.031  0.006  0.046   -0.053  0.011  0.082    0.000 -0.000 -0.001
 H         -0.022 -0.046  0.009   -0.037 -0.078  0.015    0.000  0.001 -0.000
 H          0.020  0.021  0.024   -0.010 -0.011 -0.012   -0.000 -0.000 -0.000
 H          0.004  0.013 -0.008   -0.000 -0.005  0.003   -0.000 -0.000  0.000
 H          0.068 -0.008 -0.084   -0.023  0.002  0.026    0.000  0.000 -0.000
 H          0.077 -0.091  0.030    0.003  0.003  0.003   -0.000  0.000 -0.000
 H         -0.013 -0.043 -0.051    0.000 -0.004 -0.006    0.000  0.000  0.000
 H         -0.024  0.013 -0.016   -0.029  0.015 -0.019    0.001 -0.000  0.000
 H         -0.006  0.001  0.006   -0.010  0.002  0.011   -0.004 -0.001  0.004
 H         -0.002 -0.008  0.002   -0.004 -0.014  0.003    0.002  0.004 -0.002
 H          0.002  0.003  0.004   -0.001 -0.001 -0.002   -0.000 -0.000 -0.000
 H          0.000  0.001 -0.001   -0.000 -0.001  0.000   -0.000 -0.000  0.000
 H          0.008 -0.002 -0.014   -0.002  0.001  0.004   -0.000 -0.000  0.000
 H          0.013 -0.012  0.006   -0.002  0.002 -0.001    0.000 -0.000  0.000
 H         -0.001 -0.004 -0.004   -0.000 -0.001 -0.001   -0.000 -0.000 -0.000
 H         -0.003  0.002 -0.003   -0.004  0.003 -0.004    0.000 -0.000  0.000
 H          0.000  0.000  0.000    0.001 -0.000  0.000   -0.000  0.000  0.001
 H         -0.000  0.000 -0.000   -0.000  0.000 -0.000    0.000  0.001 -0.000
 H          0.000 -0.000  0.000    0.001 -0.001  0.001    0.001 -0.001  0.000
 H          0.000  0.000  0.000    0.000  0.000  0.000   -0.000 -0.000 -0.000
 H          0.000  0.000 -0.000    0.000  0.000 -0.000   -0.000 -0.000  0.000
 H         -0.001  0.001  0.001    0.000 -0.000 -0.001    0.000 -0.000 -0.000
 H          0.000  0.000  0.000    0.000 -0.000 -0.001   -0.000  0.000  0.000
 H         -0.000 -0.001 -0.000    0.001 -0.001  0.001   -0.000  0.000 -0.000
 H          0.001  0.000  0.001    0.000  0.000  0.001    0.000  0.000  0.000
 H          0.000 -0.001 -0.001    0.000 -0.000 -0.000   -0.000 -0.000 -0.000
 H         -0.001  0.000 -0.000   -0.000  0.000  0.000   -0.000 -0.000  0.000
 H          0.000  0.000 -0.000    0.001  0.002 -0.001   -0.000 -0.000  0.000
 O         -0.000  0.000 -0.000    0.000  0.000 -0.000    0.000  0.000 -0.000
 H          0.005  0.003  0.005    0.011  0.007  0.012    0.523  0.343  0.553
 C         -0.000 -0.000 -0.000   -0.001 -0.001 -0.001   -0.046 -0.030 -0.048
 C         -0.000 -0.000 -0.000   -0.000 -0.001 -0.000   -0.000 -0.001  0.002
 C          0.000  0.000  0.000    0.000 -0.000  0.000    0.006 -0.019  0.040
 H         -0.000  0.000 -0.001   -0.000  0.002 -0.004   -0.046  0.253 -0.465
 C          0.000 -0.000  0.000    0.000  0.000  0.000    0.001 -0.004  0.007
 H         -0.000  0.002 -0.003   -0.000  0.000 -0.001   -0.007  0.043 -0.081
 C         -0.000 -0.000 -0.000   -0.000 -0.000  0.000   -0.000 -0.000 -0.001
 C         -0.000  0.000 -0.000   -0.000 -0.000 -0.000   -0.003 -0.002 -0.004
 O          0.000  0.000 -0.000    0.000  0.000 -0.000    0.000  0.000  0.000
 H          0.000  0.000  0.000    0.000  0.000 -0.000    0.041  0.028  0.045
 C          0.000  0.000  0.000    0.000  0.000  0.000   -0.000 -0.000  0.000
 O          0.000  0.000  0.000    0.000  0.000  0.000   -0.000 -0.000 -0.000
 O          0.000  0.000  0.000    0.000  0.000  0.000   -0.000  0.000 -0.000
 TransDip  -0.039  0.094  0.008    0.075  0.076  0.000   -0.012 -0.017  0.018

 Mode:               196                    197                    198
 Frequency:      3222.39                3235.59                3239.87
 Force Cnst:      6.6662                 6.7923                 6.8107
 Red. Mass:       1.0896                 1.1012                 1.1012
 IR Active:          YES                    YES                    YES
 IR Intens:        0.269                  0.455                  1.948
 Raman Active:       YES                    YES                    YES
               X      Y      Z        X      Y      Z        X      Y      Z
 N          0.000 -0.000  0.000   -0.000 -0.000 -0.000   -0.000 -0.000 -0.000
 C         -0.000  0.000  0.000   -0.000 -0.000  0.001    0.000 -0.000 -0.000
 C          0.000 -0.000  0.000   -0.000 -0.000  0.000    0.000  0.000  0.000
 C         -0.000  0.000  0.000    0.000 -0.000  0.000   -0.000  0.000  0.000
 C          0.000  0.000  0.000    0.000  0.000  0.000    0.000  0.000  0.000
 C         -0.000 -0.000  0.000   -0.000 -0.000  0.000   -0.000  0.000 -0.000
 C         -0.000 -0.000 -0.000   -0.000 -0.000  0.000    0.000 -0.000 -0.000
 C         -0.000  0.000  0.000   -0.000  0.000 -0.000    0.000 -0.000  0.000
 C         -0.000  0.000 -0.000   -0.000  0.000 -0.000    0.000 -0.000  0.000
 C          0.000 -0.000 -0.000    0.000 -0.000 -0.000   -0.000  0.000  0.000
 C          0.000 -0.000  0.000   -0.000 -0.000  0.000    0.000 -0.000 -0.000
 C          0.000  0.000 -0.000    0.000 -0.000 -0.000    0.000 -0.000 -0.000
 C          0.000  0.000  0.000    0.000  0.000  0.000   -0.000 -0.000  0.000
 C         -0.000  0.000 -0.000   -0.000 -0.000 -0.000    0.000 -0.000 -0.000
 C         -0.000 -0.000  0.000   -0.000 -0.000  0.000    0.000 -0.000 -0.000
 C         -0.000  0.000  0.000    0.000 -0.000  0.000    0.000 -0.000  0.000
 C          0.000 -0.000  0.000    0.000  0.000 -0.000   -0.000 -0.000  0.000
 H          0.001  0.000 -0.000    0.005 -0.002 -0.006   -0.001  0.000  0.002
 H         -0.000  0.000  0.000    0.001  0.002 -0.000   -0.000 -0.001  0.000
 H         -0.000 -0.000 -0.000    0.000  0.000  0.000   -0.000 -0.000 -0.000
 H          0.000  0.000 -0.000    0.000  0.000 -0.000   -0.000 -0.000 -0.000
 H          0.002 -0.001 -0.002    0.000 -0.000 -0.000    0.000 -0.000 -0.001
 H          0.001 -0.001  0.000   -0.001  0.001 -0.000    0.000 -0.001  0.000
 H         -0.000 -0.000 -0.000    0.000  0.000  0.000   -0.000 -0.000 -0.001
 H          0.000 -0.000  0.000   -0.000  0.000 -0.000   -0.000 -0.000 -0.000
 H          0.000 -0.000 -0.000   -0.000  0.000 -0.000    0.000 -0.000 -0.000
 H          0.000  0.000 -0.000    0.000  0.001 -0.000   -0.000 -0.000  0.000
 H          0.000  0.000  0.000   -0.000  0.000  0.000   -0.000 -0.000 -0.000
 H          0.000  0.000 -0.000    0.000  0.000 -0.000   -0.000 -0.000  0.000
 H          0.000 -0.000 -0.000   -0.000  0.000  0.000    0.000 -0.000 -0.000
 H          0.001 -0.001  0.000    0.002 -0.002  0.000   -0.001  0.001  0.000
 H         -0.000  0.000 -0.000    0.000  0.000  0.000   -0.000 -0.000 -0.000
 H          0.000 -0.000  0.000    0.000 -0.000  0.000   -0.000  0.000 -0.000
 H         -0.000 -0.000  0.000   -0.002 -0.001  0.002    0.000  0.000 -0.001
 H          0.000  0.001 -0.000    0.001  0.003 -0.001   -0.000 -0.000  0.000
 H          0.000 -0.000 -0.000    0.000  0.000  0.000   -0.000 -0.000 -0.000
 H          0.000  0.000 -0.000    0.000  0.000 -0.000    0.000 -0.000 -0.000
 H          0.001 -0.000  0.000    0.000 -0.000 -0.000    0.000 -0.000  0.000
 H         -0.000  0.000  0.000   -0.001  0.001 -0.000   -0.001  0.001  0.000
 H         -0.000 -0.000 -0.000    0.000  0.000  0.000   -0.000 -0.000 -0.000
 H         -0.000  0.000  0.000   -0.000  0.000 -0.000    0.000 -0.000  0.000
 H          0.000 -0.000 -0.000   -0.000  0.000  0.001    0.000 -0.000 -0.000
 H          0.000  0.000 -0.000    0.000  0.001 -0.000   -0.000 -0.000 -0.000
 H          0.000 -0.000  0.000    0.000 -0.000  0.000   -0.000  0.000 -0.000
 H         -0.000 -0.000 -0.000   -0.000  0.000  0.000    0.000 -0.000 -0.000
 H          0.000  0.000 -0.000    0.000  0.000 -0.000   -0.000 -0.000  0.000
 H          0.000 -0.000 -0.000   -0.000  0.000  0.000    0.000 -0.000  0.000
 H          0.001 -0.000 -0.001   -0.000  0.000  0.000   -0.001  0.000  0.001
 H          0.001 -0.001  0.001   -0.000  0.001 -0.000   -0.002  0.002 -0.001
 H          0.000  0.000  0.000   -0.001 -0.000 -0.001   -0.000 -0.000 -0.001
 H          0.000  0.000  0.000    0.000  0.000 -0.000   -0.000 -0.000 -0.000
 H         -0.000  0.000 -0.000   -0.000  0.000 -0.000   -0.000 -0.000 -0.000
 H          0.000  0.000 -0.000    0.000  0.000 -0.000   -0.000 -0.000  0.000
 O         -0.000 -0.000 -0.000    0.000  0.001 -0.000   -0.000 -0.001  0.000
 H          0.070  0.046  0.074    0.327  0.217  0.344   -0.052 -0.035 -0.055
 C         -0.006 -0.004 -0.006   -0.032 -0.025 -0.028    0.005  0.004  0.005
 C          0.001  0.001  0.002   -0.000 -0.001  0.002    0.001  0.002  0.001
 C          0.001 -0.001  0.003   -0.002  0.041 -0.065    0.000 -0.006  0.009
 H         -0.003  0.017 -0.031    0.068 -0.402  0.730   -0.009  0.054 -0.099
 C         -0.005  0.035 -0.065    0.000  0.003 -0.003    0.001  0.027 -0.040
 H          0.063 -0.399  0.750    0.003 -0.022  0.040    0.035 -0.238  0.441
 C         -0.000  0.000 -0.001    0.002  0.001  0.002   -0.000 -0.002  0.002
 C          0.025  0.015  0.030   -0.008 -0.006 -0.007   -0.049 -0.037 -0.048
 O          0.000 -0.000  0.000   -0.000 -0.001 -0.000    0.000  0.001 -0.000
 H         -0.309 -0.210 -0.336    0.084  0.058  0.091    0.523  0.358  0.564
 C         -0.000  0.000 -0.000   -0.000 -0.000  0.000    0.000 -0.000  0.000
 O          0.000 -0.000  0.000   -0.000 -0.000 -0.000   -0.000  0.000 -0.000
 O          0.000 -0.000  0.000   -0.000  0.000 -0.000    0.000  0.000 -0.000
 TransDip  -0.015  0.002 -0.007    0.004  0.021  0.005    0.033  0.029  0.010

 STANDARD THERMODYNAMIC QUANTITIES AT   298.15 K  AND     1.00 ATM

   This Molecule has  1 Imaginary Frequencies
   Zero point vibrational energy:      383.301 kcal/mol

   Atom    1 Element N  Has Mass   14.00307
   Atom    2 Element C  Has Mass   12.00000
   Atom    3 Element C  Has Mass   12.00000
   Atom    4 Element C  Has Mass   12.00000
   Atom    5 Element C  Has Mass   12.00000
   Atom    6 Element C  Has Mass   12.00000
   Atom    7 Element C  Has Mass   12.00000
   Atom    8 Element C  Has Mass   12.00000
   Atom    9 Element C  Has Mass   12.00000
   Atom   10 Element C  Has Mass   12.00000
   Atom   11 Element C  Has Mass   12.00000
   Atom   12 Element C  Has Mass   12.00000
   Atom   13 Element C  Has Mass   12.00000
   Atom   14 Element C  Has Mass   12.00000
   Atom   15 Element C  Has Mass   12.00000
   Atom   16 Element C  Has Mass   12.00000
   Atom   17 Element C  Has Mass   12.00000
   Atom   18 Element H  Has Mass    1.00783
   Atom   19 Element H  Has Mass    1.00783
   Atom   20 Element H  Has Mass    1.00783
   Atom   21 Element H  Has Mass    1.00783
   Atom   22 Element H  Has Mass    1.00783
   Atom   23 Element H  Has Mass    1.00783
   Atom   24 Element H  Has Mass    1.00783
   Atom   25 Element H  Has Mass    1.00783
   Atom   26 Element H  Has Mass    1.00783
   Atom   27 Element H  Has Mass    1.00783
   Atom   28 Element H  Has Mass    1.00783
   Atom   29 Element H  Has Mass    1.00783
   Atom   30 Element H  Has Mass    1.00783
   Atom   31 Element H  Has Mass    1.00783
   Atom   32 Element H  Has Mass    1.00783
   Atom   33 Element H  Has Mass    1.00783
   Atom   34 Element H  Has Mass    1.00783
   Atom   35 Element H  Has Mass    1.00783
   Atom   36 Element H  Has Mass    1.00783
   Atom   37 Element H  Has Mass    1.00783
   Atom   38 Element H  Has Mass    1.00783
   Atom   39 Element H  Has Mass    1.00783
   Atom   40 Element H  Has Mass    1.00783
   Atom   41 Element H  Has Mass    1.00783
   Atom   42 Element H  Has Mass    1.00783
   Atom   43 Element H  Has Mass    1.00783
   Atom   44 Element H  Has Mass    1.00783
   Atom   45 Element H  Has Mass    1.00783
   Atom   46 Element H  Has Mass    1.00783
   Atom   47 Element H  Has Mass    1.00783
   Atom   48 Element H  Has Mass    1.00783
   Atom   49 Element H  Has Mass    1.00783
   Atom   50 Element H  Has Mass    1.00783
   Atom   51 Element H  Has Mass    1.00783
   Atom   52 Element H  Has Mass    1.00783
   Atom   53 Element H  Has Mass    1.00783
   Atom   54 Element O  Has Mass   15.99491
   Atom   55 Element H  Has Mass    1.00783
   Atom   56 Element C  Has Mass   12.00000
   Atom   57 Element C  Has Mass   12.00000
   Atom   58 Element C  Has Mass   12.00000
   Atom   59 Element H  Has Mass    1.00783
   Atom   60 Element C  Has Mass   12.00000
   Atom   61 Element H  Has Mass    1.00783
   Atom   62 Element C  Has Mass   12.00000
   Atom   63 Element C  Has Mass   12.00000
   Atom   64 Element O  Has Mass   15.99491
   Atom   65 Element H  Has Mass    1.00783
   Atom   66 Element C  Has Mass   12.00000
   Atom   67 Element O  Has Mass   15.99491
   Atom   68 Element O  Has Mass   15.99491
   Molecular Mass:   394.295910 amu
   Principal axes and moments of inertia in amu*Bohr^2:
                             1           2           3
    Eigenvalues --     9813.29791 20171.22531 23506.59250
          X               0.24043     0.96891     0.05832
          Y               0.92062    -0.20858    -0.33008
          Z               0.30766    -0.13305     0.94215
   Rotational Symmetry Number is   1
   The Molecule is an Asymmetric Top
   Translational Enthalpy:        0.889 kcal/mol
   Rotational Enthalpy:           0.889 kcal/mol
   Vibrational Enthalpy:        402.195 kcal/mol
   gas constant (RT):             0.592 kcal/mol
   Translational Entropy:        43.807  cal/mol.K
   Rotational Entropy:           36.785  cal/mol.K
   Vibrational Entropy:         128.228  cal/mol.K

   Total Enthalpy:              404.565 kcal/mol
   Total Entropy:               208.820  cal/mol.K
 Total job time:  129019.31s(wall), 1573842.47s(cpu) 
 Fri Jun  3 05:56:18 2022

        *************************************************************
        *                                                           *
        *  Thank you very much for using Q-Chem.  Have a nice day.  *
        *                                                           *
        *************************************************************


