
Running Job 1 of 1 mol.qin
qchem mol.qin_66621.0 /tmp/scratch/ 0
/clusterfs/mp/software/qchem5.4/exe/qcprog.exe_s mol.qin_66621.0 /tmp/scratch/
                  Welcome to Q-Chem
     A Quantum Leap Into The Future Of Chemistry


 Q-Chem 5.4, Q-Chem, Inc., Pleasanton, CA (2021)

 E. Epifanovsky,  A. T. B. Gilbert,  Xintian Feng,  Joonho Lee,  Yuezhi Mao,  
 N. Mardirossian,  P. Pokhilko,  A. White,  M. Wormit,  M. P. Coons,  
 A. L. Dempwolff,  Zhengting Gan,  D. Hait,  P. R. Horn,  L. D. Jacobson,  
 I. Kaliman,  J. Kussmann,  A. W. Lange,  Ka Un Lao,  D. S. Levine,  Jie Liu,  
 S. C. McKenzie,  A. F. Morrison,  K. Nanda,  F. Plasser,  D. R. Rehn,  
 M. L. Vidal,  Zhi-Qiang You,  Ying Zhu,  B. Alam,  B. Albrecht,  
 A. Aldossary,  E. Alguire,  J. H. Andersen,  D. Barton,  K. Begam,  A. Behn,  
 Y. A. Bernard,  E. J. Berquist,  H. Burton,  A. Carreras,  K. Carter-Fenk,  
 Romit Chakraborty,  A. D. Chien,  K. D. Closser,  V. Cofer-Shabica,  
 S. Dasgupta,  Jia Deng,  M. de Wergifosse,  M. Diedenhofen,  Hainam Do,  
 S. Ehlert,  Po-Tung Fang,  S. Fatehi,  Qingguo Feng,  T. Friedhoff,  
 J. Gayvert,  Qinghui Ge,  G. Gidofalvi,  M. Goldey,  J. Gomes,  
 C. Gonzalez-Espinoza,  S. Gulania,  A. Gunina,  M. W. D. Hanson-Heine,  
 P. H. P. Harbach,  A. W. Hauser,  M. F. Herbst,  M. Hernandez Vera,  
 M. Hodecker,  Z. C. Holden,  S. Houck,  Xunkun Huang,  Kerwin Hui,  
 B. C. Huynh,  M. Ivanov,  Hyunjun Ji,  Hanjie Jiang,  B. Kaduk,  S. Kaehler,  
 K. Khistyaev,  Jaehoon Kim,  P. Klunzinger,  Z. Koczor-Benda,  
 Joong Hoon Koh,  D. Kosenkov,  L. Koulias,  T. Kowalczyk,  C. M. Krauter,  
 K. Kue,  A. Kunitsa,  T. Kus,  A. Landau,  K. V. Lawler,  D. Lefrancois,  
 S. Lehtola,  Rain Li,  Yi-Pei Li,  Jiashu Liang,  M. Liebenthal,  
 Hung-Hsuan Lin,  You-Sheng Lin,  Fenglai Liu,  Kuan-Yu Liu,  
 M. Loipersberger,  A. Luenser,  A. Manjanath,  P. Manohar,  E. Mansoor,  
 S. F. Manzer,  Shan-Ping Mao,  A. V. Marenich,  T. Markovich,  S. Mason,  
 S. A. Maurer,  P. F. McLaughlin,  M. F. S. J. Menger,  J.-M. Mewes,  
 S. A. Mewes,  P. Morgante,  J. W. Mullinax,  K. J. Oosterbaan,  G. Paran,  
 Alexander C. Paul,  Suranjan K. Paul,  F. Pavosevic,  Zheng Pei,  S. Prager,  
 E. I. Proynov,  E. Ramos,  B. Rana,  A. E. Rask,  A. Rettig,  R. M. Richard,  
 F. Rob,  E. Rossomme,  T. Scheele,  M. Scheurer,  M. Schneider,  
 N. Sergueev,  S. M. Sharada,  W. Skomorowski,  D. W. Small,  C. J. Stein,  
 Yu-Chuan Su,  E. J. Sundstrom,  Zhen Tao,  J. Thirman,  T. Tsuchimochi,  
 N. M. Tubman,  S. P. Veccham,  O. Vydrov,  J. Wenzel,  J. Witte,  A. Yamada,  
 Kun Yao,  S. Yeganeh,  S. R. Yost,  A. Zech,  Igor Ying Zhang,  Xing Zhang,  
 Yu Zhang,  D. Zuev,  A. Aspuru-Guzik,  A. T. Bell,  N. A. Besley,  
 K. B. Bravaya,  B. R. Brooks,  D. Casanova,  Jeng-Da Chai,  S. Coriani,  
 C. J. Cramer,  A. E. DePrince, III,  R. A. DiStasio Jr.,  A. Dreuw,  
 B. D. Dunietz,  T. R. Furlani,  W. A. Goddard III,  S. Grimme,  
 S. Hammes-Schiffer,  T. Head-Gordon,  W. J. Hehre,  Chao-Ping Hsu,  
 T.-C. Jagau,  Yousung Jung,  A. Klamt,  Jing Kong,  D. S. Lambrecht,  
 WanZhen Liang,  N. J. Mayhall,  C. W. McCurdy,  J. B. Neaton,  T. Neudecker,  
 C. Ochsenfeld,  J. A. Parkhill,  R. Peverati,  V. A. Rassolov,  Yihan Shao,  
 L. V. Slipchenko,  R. P. Steele,  J. E. Subotnik,  A. J. W. Thom,  
 A. Tkatchenko,  D. G. Truhlar,  T. Van Voorhis,  T. A. Wesolowski,  
 K. B. Whaley,  H. L. Woodcock III,  P. M. Zimmerman,  S. Faraji,  
 P. M. W. Gill,  M. Head-Gordon,  J. M. Herbert,  A. I. Krylov

 Additional authors since Version 5.4.0: 
 Chandrima Chakravarty,  L. Cunha,  R. Kang,  Yongbin Kim,  S. Kotaru,  
 Shaozhi Li,  Xiangyuan Li,  F. Matz,  A. Molle,  V. Parravicini,  
 Haisheng Ren,  Hengyuan Shen,  Yingli Su,  Hung-Yi Tsai,  C. Utku,  
 Fang Wang,  Jeff Yang,  F. Zeller

 Contributors to earlier versions of Q-Chem not listed above: 
 R. D. Adamson,  B. Austin,  R. Baer,  J. Baker,  G. J. O. Beran,  
 K. Brandhorst,  S. T. Brown,  E. F. C. Byrd,  Arup K. Chakraborty,  
 G. K. L. Chan,  Chun-Min Chang,  Yunqing Chen,  C.-L. Cheng,  
 Siu Hung Chien,  D. M. Chipman,  D. L. Crittenden,  H. Dachsel,  
 R. J. Doerksen,  A. D. Dutoi,  R. G. Edgar,  J. Fosso-Tande,  
 L. Fusti-Molnar,  D. Ghosh,  A. Ghysels,  A. Golubeva-Zadorozhnaya,  
 J. Gonthier,  M. S. Gordon,  S. R. Gwaltney,  G. Hawkins,  J. E. Herr,  
 A. Heyden,  S. Hirata,  E. G. Hohenstein,  G. Kedziora,  F. J. Keil,  
 C. Kelley,  Jihan Kim,  R. A. King,  R. Z. Khaliullin,  P. P. Korambath,  
 W. Kurlancheek,  A. Laurent,  A. M. Lee,  M. S. Lee,  S. V. Levchenko,  
 Ching Yeh Lin,  D. Liotard,  E. Livshits,  R. C. Lochan,  I. Lotan,  
 L. A. Martinez-Martinez,  P. E. Maslen,  N. Nair,  D. P. O'Neill,  
 D. Neuhauser,  E. Neuscamman,  C. M. Oana,  R. Olivares-Amaya,  R. Olson,  
 T. M. Perrine,  B. Peters,  P. A. Pieniazek,  A. Prociuk,  Y. M. Rhee,  
 J. Ritchie,  M. A. Rohrdanz,  E. Rosta,  N. J. Russ,  H. F. Schaefer III,  
 M. W. Schmidt,  N. E. Schultz,  S. Sharma,  N. Shenvi,  C. D. Sherrill,  
 A. C. Simmonett,  A. Sodt,  T. Stein,  D. Stuck,  K. S. Thanthiriwatte,  
 V. Vanovschi,  L. Vogt,  Tao Wang,  A. Warshel,  M. A. Watson,  
 C. F. Williams,  Q. Wu,  X. Xu,  Jun Yang,  W. Zhang,  Yan Zhao

   Please cite Q-Chem as follows:
  "Software for the frontiers of quantum chemistry:
   An overview of developments in the Q-Chem 5 package"
   J. Chem. Phys. 155, 084801 (2021)
   https://doi.org/10.1063/5.0055522 (open access)

 Q-Chem 5.4.2 for Intel X86 EM64T Linux

 Parts of Q-Chem use Armadillo 9.900.5 (Nocturnal Misbehaviour).
 http://arma.sourceforge.net/

 Q-Chem begins on Sun May 29 07:08:18 2022  

 Host: 
0

     Scratch files written to /tmp/scratch//
 Dec1321 |scratch|qcdevops|jenkins|workspace|build_RNUM 7600   
 Processing $rem in /clusterfs/mp/software/qchem5.4/config/preferences:
 Processing $rem in /global/home/users/smblau/.qchemrc:
 Symmetry turned off for PCM/SM12/SMD calculation

 Checking the input file for inconsistencies... 	...done.

--------------------------------------------------------------
User input:
--------------------------------------------------------------
$molecule
1 1
N      0.2807978485      0.1673092048     -0.1723753950
C      1.3143164919     -0.7795126321      0.3887582722
C     -0.7276144450      0.4860983746      0.9085395177
C     -0.3807620610     -0.4890895214     -1.3600895213
C      0.9216766775      1.4577268499     -0.6293668364
C      2.2082255723     -0.2254760655      1.4845844693
C     -1.9839758831      1.2116359608      0.4558385523
C     -1.1481884475     -1.7686280264     -1.0697657266
C      2.0592387452      1.3209868759     -1.6284370301
C      3.1886410282     -1.3071176322      1.9400369849
C     -2.8393403515      1.5801373853      1.6685158974
C     -1.8977232038     -2.2238799907     -2.3218111998
C      2.6786947604      2.6918080596     -1.9018830596
C      4.1264665933     -0.8179459022      3.0370114112
C     -4.1378296662      2.2718877988      1.2713754190
C     -2.6553191937     -3.5268073267     -2.1035107100
C      3.7935815418      2.6244906077     -2.9387284647
H      1.9192674482     -1.1094558933     -0.4609635394
H      0.7620332610     -1.6449023466      0.7677587710
H     -0.1964517785      1.0876367077      1.6522071946
H     -0.9908605952     -0.4644586163      1.3838542535
H      0.4137732575     -0.6908414859     -2.0838893694
H     -1.0420798171      0.2631817048     -1.8014269614
H      1.2663065920      1.9690864729      0.2749749415
H      0.1199622717      2.0632459007     -1.0620819705
H      1.6146586490      0.1088395254      2.3457461958
H      2.7803130689      0.6399515432      1.1242814155
H     -2.5777528177      0.5775499725     -0.2163968322
H     -1.7350200100      2.1278847283     -0.0964694931
H     -1.8722445279     -1.6242628312     -0.2569609643
H     -0.4662401567     -2.5669001276     -0.7457221821
H      1.6961935422      0.8981707664     -2.5744653118
H      2.8412597006      0.6480400136     -1.2527055487
H      3.7794719350     -1.6436107768      1.0739196431
H      2.6244610766     -2.1824432503      2.2969319002
H     -2.2568858504      2.2333760625      2.3357444236
H     -3.0646753814      0.6684367558      2.2429450668
H     -1.1860373072     -2.3397821119     -3.1531068238
H     -2.6002981213     -1.4334795974     -2.6254452613
H      3.0712352876      3.1033721814     -0.9594395280
H      1.8947996434      3.3855534263     -2.2423153837
H      3.5615971857     -0.5039033049      3.9261314577
H      4.7177943238      0.0422582017      2.6924800057
H      4.8246752310     -1.6085250694      3.3396809989
H     -4.7476543635      1.6230319358      0.6264680325
H     -3.9360358770      3.2009841837      0.7191803925
H     -4.7355209157      2.5269963100      2.1558617817
H     -3.4077243337     -3.4144206497     -1.3102946732
H     -1.9759711255     -4.3364483864     -1.8028857005
H     -3.1686551119     -3.8440790713     -3.0195177580
H      3.4130968540      2.2492876704     -3.8995917029
H      4.5967290445      1.9498444599     -2.6089514332
H      4.2325382106      3.6155731889     -3.1110273628
O      2.4788588477     -2.2522111821     -2.4151175275
H      2.7085057790     -3.5436518905     -0.1643732208
C      2.0634478743     -4.0148561029     -0.9060228394
C      1.9378131112     -3.3267194434     -2.2161257046
C      1.3958570020     -5.1473872070     -0.6533739122
H      1.4592854114     -5.6602659460      0.3062829403
C      1.1018912999     -3.9681710566     -3.2603546534
H      1.0471087017     -3.4582077264     -4.2221785235
C      0.5254404672     -5.7690510121     -1.6857263533
C      0.4355673827     -5.1023683298     -3.0110971056
O     -0.0984712866     -6.7868742909     -1.4487473268
H     -0.2063191412     -5.5776016965     -3.7521738537
C     -2.0583380177     -8.1178289017     -3.1542982527
O     -2.4406225438     -7.0923638535     -3.5376585995
O     -1.6912393875     -9.1543735741     -2.7893663225
$end

$rem
job_type = opt
basis = def2-svpd
max_scf_cycles = 500
gen_scfman = true
xc_grid = 3
thresh = 14
s2thresh = 16
scf_algorithm = gdm
resp_charges = true
symmetry = false
sym_ignore = true
method = wb97xd
geom_opt_max_cycles = 200
solvent_method = pcm
geom_opt2 = 3
$end

$pcm
heavypoints 194
hpoints 194
radii uff
theory cpcm
vdwscale 1.1
$end

$solvent
dielectric 38.88
$end

$geom_opt
maxiter = 200
$end
--------------------------------------------------------------
 ----------------------------------------------------------------
             Standard Nuclear Orientation (Angstroms)
    I     Atom           X                Y                Z
 ----------------------------------------------------------------
    1      N       0.2807978485     0.1673092048    -0.1723753950
    2      C       1.3143164919    -0.7795126321     0.3887582722
    3      C      -0.7276144450     0.4860983746     0.9085395177
    4      C      -0.3807620610    -0.4890895214    -1.3600895213
    5      C       0.9216766775     1.4577268499    -0.6293668364
    6      C       2.2082255723    -0.2254760655     1.4845844693
    7      C      -1.9839758831     1.2116359608     0.4558385523
    8      C      -1.1481884475    -1.7686280264    -1.0697657266
    9      C       2.0592387452     1.3209868759    -1.6284370301
   10      C       3.1886410282    -1.3071176322     1.9400369849
   11      C      -2.8393403515     1.5801373853     1.6685158974
   12      C      -1.8977232038    -2.2238799907    -2.3218111998
   13      C       2.6786947604     2.6918080596    -1.9018830596
   14      C       4.1264665933    -0.8179459022     3.0370114112
   15      C      -4.1378296662     2.2718877988     1.2713754190
   16      C      -2.6553191937    -3.5268073267    -2.1035107100
   17      C       3.7935815418     2.6244906077    -2.9387284647
   18      H       1.9192674482    -1.1094558933    -0.4609635394
   19      H       0.7620332610    -1.6449023466     0.7677587710
   20      H      -0.1964517785     1.0876367077     1.6522071946
   21      H      -0.9908605952    -0.4644586163     1.3838542535
   22      H       0.4137732575    -0.6908414859    -2.0838893694
   23      H      -1.0420798171     0.2631817048    -1.8014269614
   24      H       1.2663065920     1.9690864729     0.2749749415
   25      H       0.1199622717     2.0632459007    -1.0620819705
   26      H       1.6146586490     0.1088395254     2.3457461958
   27      H       2.7803130689     0.6399515432     1.1242814155
   28      H      -2.5777528177     0.5775499725    -0.2163968322
   29      H      -1.7350200100     2.1278847283    -0.0964694931
   30      H      -1.8722445279    -1.6242628312    -0.2569609643
   31      H      -0.4662401567    -2.5669001276    -0.7457221821
   32      H       1.6961935422     0.8981707664    -2.5744653118
   33      H       2.8412597006     0.6480400136    -1.2527055487
   34      H       3.7794719350    -1.6436107768     1.0739196431
   35      H       2.6244610766    -2.1824432503     2.2969319002
   36      H      -2.2568858504     2.2333760625     2.3357444236
   37      H      -3.0646753814     0.6684367558     2.2429450668
   38      H      -1.1860373072    -2.3397821119    -3.1531068238
   39      H      -2.6002981213    -1.4334795974    -2.6254452613
   40      H       3.0712352876     3.1033721814    -0.9594395280
   41      H       1.8947996434     3.3855534263    -2.2423153837
   42      H       3.5615971857    -0.5039033049     3.9261314577
   43      H       4.7177943238     0.0422582017     2.6924800057
   44      H       4.8246752310    -1.6085250694     3.3396809989
   45      H      -4.7476543635     1.6230319358     0.6264680325
   46      H      -3.9360358770     3.2009841837     0.7191803925
   47      H      -4.7355209157     2.5269963100     2.1558617817
   48      H      -3.4077243337    -3.4144206497    -1.3102946732
   49      H      -1.9759711255    -4.3364483864    -1.8028857005
   50      H      -3.1686551119    -3.8440790713    -3.0195177580
   51      H       3.4130968540     2.2492876704    -3.8995917029
   52      H       4.5967290445     1.9498444599    -2.6089514332
   53      H       4.2325382106     3.6155731889    -3.1110273628
   54      O       2.4788588477    -2.2522111821    -2.4151175275
   55      H       2.7085057790    -3.5436518905    -0.1643732208
   56      C       2.0634478743    -4.0148561029    -0.9060228394
   57      C       1.9378131112    -3.3267194434    -2.2161257046
   58      C       1.3958570020    -5.1473872070    -0.6533739122
   59      H       1.4592854114    -5.6602659460     0.3062829403
   60      C       1.1018912999    -3.9681710566    -3.2603546534
   61      H       1.0471087017    -3.4582077264    -4.2221785235
   62      C       0.5254404672    -5.7690510121    -1.6857263533
   63      C       0.4355673827    -5.1023683298    -3.0110971056
   64      O      -0.0984712866    -6.7868742909    -1.4487473268
   65      H      -0.2063191412    -5.5776016965    -3.7521738537
   66      C      -2.0583380177    -8.1178289017    -3.1542982527
   67      O      -2.4406225438    -7.0923638535    -3.5376585995
   68      O      -1.6912393875    -9.1543735741    -2.7893663225
 ----------------------------------------------------------------
 Nuclear Repulsion Energy =        2776.55175773 hartrees
 There are      108 alpha and      108 beta electrons
 Requested basis set is def2-SVPD
 There are 388 shells and 892 basis functions

 Total QAlloc Memory Limit  96000 MB
 Mega-Array Size       188 MB
 MEM_STATIC part       192 MB
 -----------------------------------------------------------------------
                STARTING GEOMETRY OPTIMIZER USING LIBOPT3
                by Peter F. McLaughlin, Yu Zhang, Evgeny Epifanovsky
 -----------------------------------------------------------------------
  Checking Topology for Ill-Behaving Coordinates
  Done Checking Topology
              Initial Energy and Gradient Calculation

	Performing Iterative Coordinate Back-Transformation

	  Starting from Previous Position
	  iter:	0	rms: 0.000000	maxdev: 0.000000	 Success!

	Finished Iterative Coordinate Back-Transformation
 ----------------------------------------------------------------
             Standard Nuclear Orientation (Angstroms)
    I     Atom           X                Y                Z
 ----------------------------------------------------------------
    1      N       0.2807978485     0.1673092048    -0.1723753950
    2      C       1.3143164919    -0.7795126321     0.3887582722
    3      C      -0.7276144450     0.4860983746     0.9085395177
    4      C      -0.3807620610    -0.4890895214    -1.3600895213
    5      C       0.9216766775     1.4577268499    -0.6293668364
    6      C       2.2082255723    -0.2254760655     1.4845844693
    7      C      -1.9839758831     1.2116359608     0.4558385523
    8      C      -1.1481884475    -1.7686280264    -1.0697657266
    9      C       2.0592387452     1.3209868759    -1.6284370301
   10      C       3.1886410282    -1.3071176322     1.9400369849
   11      C      -2.8393403515     1.5801373853     1.6685158974
   12      C      -1.8977232038    -2.2238799907    -2.3218111998
   13      C       2.6786947604     2.6918080596    -1.9018830596
   14      C       4.1264665933    -0.8179459022     3.0370114112
   15      C      -4.1378296662     2.2718877988     1.2713754190
   16      C      -2.6553191937    -3.5268073267    -2.1035107100
   17      C       3.7935815418     2.6244906077    -2.9387284647
   18      H       1.9192674482    -1.1094558933    -0.4609635394
   19      H       0.7620332610    -1.6449023466     0.7677587710
   20      H      -0.1964517785     1.0876367077     1.6522071946
   21      H      -0.9908605952    -0.4644586163     1.3838542535
   22      H       0.4137732575    -0.6908414859    -2.0838893694
   23      H      -1.0420798171     0.2631817048    -1.8014269614
   24      H       1.2663065920     1.9690864729     0.2749749415
   25      H       0.1199622717     2.0632459007    -1.0620819705
   26      H       1.6146586490     0.1088395254     2.3457461958
   27      H       2.7803130689     0.6399515432     1.1242814155
   28      H      -2.5777528177     0.5775499725    -0.2163968322
   29      H      -1.7350200100     2.1278847283    -0.0964694931
   30      H      -1.8722445279    -1.6242628312    -0.2569609643
   31      H      -0.4662401567    -2.5669001276    -0.7457221821
   32      H       1.6961935422     0.8981707664    -2.5744653118
   33      H       2.8412597006     0.6480400136    -1.2527055487
   34      H       3.7794719350    -1.6436107768     1.0739196431
   35      H       2.6244610766    -2.1824432503     2.2969319002
   36      H      -2.2568858504     2.2333760625     2.3357444236
   37      H      -3.0646753814     0.6684367558     2.2429450668
   38      H      -1.1860373072    -2.3397821119    -3.1531068238
   39      H      -2.6002981213    -1.4334795974    -2.6254452613
   40      H       3.0712352876     3.1033721814    -0.9594395280
   41      H       1.8947996434     3.3855534263    -2.2423153837
   42      H       3.5615971857    -0.5039033049     3.9261314577
   43      H       4.7177943238     0.0422582017     2.6924800057
   44      H       4.8246752310    -1.6085250694     3.3396809989
   45      H      -4.7476543635     1.6230319358     0.6264680325
   46      H      -3.9360358770     3.2009841837     0.7191803925
   47      H      -4.7355209157     2.5269963100     2.1558617817
   48      H      -3.4077243337    -3.4144206497    -1.3102946732
   49      H      -1.9759711255    -4.3364483864    -1.8028857005
   50      H      -3.1686551119    -3.8440790713    -3.0195177580
   51      H       3.4130968540     2.2492876704    -3.8995917029
   52      H       4.5967290445     1.9498444599    -2.6089514332
   53      H       4.2325382106     3.6155731889    -3.1110273628
   54      O       2.4788588477    -2.2522111821    -2.4151175275
   55      H       2.7085057790    -3.5436518905    -0.1643732208
   56      C       2.0634478743    -4.0148561029    -0.9060228394
   57      C       1.9378131112    -3.3267194434    -2.2161257046
   58      C       1.3958570020    -5.1473872070    -0.6533739122
   59      H       1.4592854114    -5.6602659460     0.3062829403
   60      C       1.1018912999    -3.9681710566    -3.2603546534
   61      H       1.0471087017    -3.4582077264    -4.2221785235
   62      C       0.5254404672    -5.7690510121    -1.6857263533
   63      C       0.4355673827    -5.1023683298    -3.0110971056
   64      O      -0.0984712866    -6.7868742909    -1.4487473268
   65      H      -0.2063191412    -5.5776016965    -3.7521738537
   66      C      -2.0583380177    -8.1178289017    -3.1542982527
   67      O      -2.4406225438    -7.0923638535    -3.5376585995
   68      O      -1.6912393875    -9.1543735741    -2.7893663225
 ----------------------------------------------------------------
 Nuclear Repulsion Energy =        2776.55175773 hartrees
 There are      108 alpha and      108 beta electrons
 Discretize the solute cavity surface with Lebedev spheres
	Using 194 Lebedev grid points for each H atom
	Using 194 Lebedev grid points for other atoms
	Atomic van der Waals radii will be scaled by 1.10
 Remove points where switching function is < 1.0e-08
 Keep 4781 surface tesserae and discard 8411 interior tesserae
 Molecular Surface Area = 547.677 Angst**2
 Requested basis set is def2-SVPD
 There are 388 shells and 892 basis functions
 A cutoff of  1.0D-16 yielded  62478 shell pairs
 There are    326800 function pairs (    368667 Cartesian)
 Smallest overlap matrix eigenvalue = 5.91E-06

 Scale SEOQF with 1.000000e-01/1.000000e-02/1.000000e-01

 Standard Electronic Orientation quadrupole field applied
 Nucleus-field energy     =    -0.0000000371 hartrees
 Guess from superposition of atomic densities
 Warning:  Energy on first SCF cycle will be non-variational
 SAD guess density has 217.000000 electrons

 -----------------------------------------------------------------------
  General SCF calculation program by
  Eric Jon Sundstrom, Paul Horn, Yuezhi Mao, Dmitri Zuev, Alec White,
  David Stuck, Shaama M.S., Shane Yost, Joonho Lee, David Small,
  Daniel Levine, Susi Lehtola, Hugh Burton, Evgeny Epifanovsky,
  Bang C. Huynh
 -----------------------------------------------------------------------
 Exchange:     0.2220 Hartree-Fock + 1.0000 wB97X-D + LR-HF
 Correlation:  1.0000 wB97X-D
 Using SG-3 standard quadrature grid
 Dispersion:   Grimme D
 using 40 threads for integral computing
 -------------------------------------------------------
 OpenMP Integral computing Module                
 Release: version 1.0, May 2013, Q-Chem Inc. Pittsburgh 
 -------------------------------------------------------
 A restricted SCF calculation will be
 performed using Roothaan-Hall, GDM, DIIS
 SCF converges when DIIS error is below 1.0e-08
 ---------------------------------------
  Cycle       Energy         DIIS error
 ---------------------------------------
    1   -1262.4477766302      2.05e-02  Roothaan Step
 ---------------------------------------
  Cycle       Energy        RMS Gradient
 ---------------------------------------
    1   -1254.4213168050      1.71e-01   Descent step
    2   -1254.7963735948      2.79e-02   Normal BFGS step
    3   -1254.8389459486      3.35e-02   Normal BFGS step
    4   -1254.8477148164      1.94e-02   Normal BFGS step
    5   -1254.8497392571      4.09e-03   Normal BFGS step
    6   -1254.8500205882      2.12e-03   Normal BFGS step
    7   -1254.8501079210      2.23e-04   Normal BFGS step
    8   -1254.8501092183      1.18e-04   Normal BFGS step
    9   -1254.8501096000      7.76e-05  Done GDM. Switching to DIIS
 ---------------------------------------
  Cycle       Energy         DIIS error
 ---------------------------------------
    1   -1254.8501096000      5.66e-07  
    2   -1254.8501098127      7.76e-07  
    3   -1254.8501096169      8.37e-08  
    4   -1254.8501100288      1.30e-08  
    5   -1254.8501096307      6.53e-09  Convergence criterion met
 ---------------------------------------
 SCF time:   CPU 26138.23s  wall 1406.00s 

************** Final PCM Free Energy Summary **************
 G_electrostatic  =      -0.07334266 hartree =     -46.02321079 kcal/mol
 G_cavitation     =       0.00000000 hartree =       0.00000000 kcal/mol
 G_dispersion     =       0.00000000 hartree =       0.00000000 kcal/mol
 G_repulsion      =       0.00000000 hartree =       0.00000000 kcal/mol
 --------------------------------------------------
 Non-electrostatic Free Energy =       0.00000000 hartree =       0.00000000 kcal/mol
 Total                         =      -0.07334266 hartree =     -46.02321079 kcal/mol
 --------------------------------------------------
 SCF Energy (H0 + V/2)                       =   -1254.85010963 
 Solute Internal Energy (H0)                 =   -1254.77676698 
 Total Free Energy (H0 + V/2 + non-elec)     =   -1254.85010963 hartree
                                             = -787430.32847863 kcal/mol
***********************************************************

 SCF   energy in the final basis set =    -1254.8501096307
 Total energy in the final basis set =    -1254.8501096307
 
 --------------------------------------------------------------
 
                    Orbital Energies (a.u.)
 --------------------------------------------------------------
 
 Alpha MOs
 -- Occupied --
-19.3462 -19.3460 -19.2982 -19.2962 -14.5925 -10.4992 -10.4312 -10.4291
-10.3663 -10.3662 -10.3658 -10.3642 -10.3515 -10.3506 -10.3503 -10.3494
-10.3210 -10.3177 -10.3177 -10.3165 -10.3089 -10.3083 -10.3065 -10.3061
-10.2946 -10.2931 -10.2926 -10.2923  -1.2576  -1.2169  -1.1770  -1.1742
 -1.1294  -0.9689  -0.9280  -0.9217  -0.9207  -0.9024  -0.8967  -0.8531
 -0.8521  -0.8492  -0.8102  -0.8090  -0.7679  -0.7667  -0.7464  -0.7452
 -0.7087  -0.6963  -0.6923  -0.6897  -0.6889  -0.6774  -0.6538  -0.6376
 -0.6266  -0.6184  -0.6159  -0.6146  -0.6136  -0.6130  -0.6095  -0.6035
 -0.5876  -0.5834  -0.5728  -0.5688  -0.5592  -0.5517  -0.5465  -0.5392
 -0.5350  -0.5276  -0.5259  -0.5247  -0.5222  -0.5177  -0.5160  -0.5110
 -0.5089  -0.5016  -0.5005  -0.4895  -0.4796  -0.4786  -0.4689  -0.4634
 -0.4628  -0.4584  -0.4579  -0.4488  -0.4438  -0.4401  -0.4390  -0.4354
 -0.4343  -0.4287  -0.4270  -0.4269  -0.4238  -0.4209  -0.4201  -0.4175
 -0.4006  -0.3935  -0.3887  -0.3743
 -- Virtual --
 -0.0820   0.0296   0.0575   0.0645   0.0767   0.0825   0.0830   0.0877
  0.1010   0.1020   0.1034   0.1065   0.1078   0.1089   0.1125   0.1143
  0.1187   0.1228   0.1244   0.1259   0.1305   0.1376   0.1409   0.1428
  0.1460   0.1470   0.1529   0.1545   0.1563   0.1599   0.1649   0.1678
  0.1693   0.1716   0.1748   0.1779   0.1788   0.1813   0.1839   0.1860
  0.1866   0.1903   0.1927   0.1946   0.1960   0.1980   0.1993   0.2005
  0.2019   0.2069   0.2079   0.2116   0.2126   0.2141   0.2165   0.2194
  0.2225   0.2239   0.2264   0.2274   0.2313   0.2330   0.2345   0.2386
  0.2423   0.2436   0.2470   0.2489   0.2513   0.2523   0.2545   0.2554
  0.2589   0.2609   0.2627   0.2645   0.2701   0.2713   0.2739   0.2767
  0.2776   0.2798   0.2813   0.2840   0.2874   0.2905   0.2927   0.2942
  0.2957   0.3009   0.3042   0.3055   0.3063   0.3106   0.3113   0.3147
  0.3206   0.3225   0.3253   0.3302   0.3317   0.3338   0.3355   0.3382
  0.3425   0.3447   0.3491   0.3532   0.3561   0.3567   0.3593   0.3622
  0.3633   0.3652   0.3696   0.3713   0.3738   0.3741   0.3806   0.3818
  0.3827   0.3852   0.3884   0.3910   0.3922   0.3938   0.3969   0.3981
  0.3997   0.4036   0.4054   0.4073   0.4097   0.4116   0.4138   0.4156
  0.4165   0.4180   0.4195   0.4196   0.4232   0.4247   0.4257   0.4283
  0.4293   0.4301   0.4326   0.4356   0.4375   0.4383   0.4432   0.4459
  0.4464   0.4468   0.4477   0.4496   0.4504   0.4521   0.4539   0.4574
  0.4582   0.4601   0.4637   0.4642   0.4677   0.4690   0.4705   0.4715
  0.4741   0.4748   0.4786   0.4791   0.4815   0.4833   0.4848   0.4875
  0.4900   0.4913   0.4936   0.4967   0.5023   0.5031   0.5045   0.5050
  0.5085   0.5111   0.5136   0.5158   0.5165   0.5216   0.5241   0.5254
  0.5262   0.5272   0.5286   0.5307   0.5338   0.5379   0.5405   0.5422
  0.5434   0.5454   0.5472   0.5507   0.5530   0.5545   0.5583   0.5590
  0.5591   0.5618   0.5641   0.5652   0.5681   0.5721   0.5740   0.5755
  0.5769   0.5804   0.5829   0.5864   0.5884   0.5904   0.5938   0.5958
  0.5960   0.6001   0.6018   0.6037   0.6062   0.6085   0.6095   0.6119
  0.6126   0.6165   0.6177   0.6186   0.6215   0.6231   0.6263   0.6298
  0.6303   0.6340   0.6362   0.6390   0.6424   0.6437   0.6465   0.6482
  0.6511   0.6526   0.6543   0.6573   0.6612   0.6621   0.6661   0.6678
  0.6709   0.6718   0.6749   0.6793   0.6801   0.6817   0.6842   0.6879
  0.6891   0.6911   0.6929   0.6976   0.7043   0.7060   0.7069   0.7081
  0.7095   0.7114   0.7150   0.7160   0.7175   0.7234   0.7259   0.7302
  0.7321   0.7328   0.7353   0.7377   0.7411   0.7434   0.7478   0.7490
  0.7512   0.7541   0.7575   0.7589   0.7636   0.7658   0.7694   0.7726
  0.7739   0.7775   0.7804   0.7825   0.7863   0.7871   0.7901   0.7948
  0.7970   0.7979   0.8052   0.8074   0.8089   0.8131   0.8173   0.8186
  0.8216   0.8254   0.8279   0.8314   0.8345   0.8365   0.8396   0.8444
  0.8459   0.8497   0.8516   0.8562   0.8614   0.8646   0.8669   0.8677
  0.8726   0.8736   0.8775   0.8812   0.8841   0.8901   0.8934   0.8943
  0.8977   0.9007   0.9042   0.9067   0.9133   0.9155   0.9174   0.9204
  0.9258   0.9271   0.9303   0.9351   0.9392   0.9397   0.9433   0.9464
  0.9507   0.9629   0.9648   0.9674   0.9716   0.9780   0.9802   0.9875
  0.9899   0.9927   0.9959   1.0031   1.0089   1.0110   1.0246   1.0258
  1.0303   1.0317   1.0361   1.0396   1.0420   1.0517   1.0530   1.0586
  1.0654   1.0710   1.0732   1.0756   1.0821   1.0880   1.0888   1.0929
  1.0954   1.0996   1.1036   1.1082   1.1103   1.1142   1.1162   1.1207
  1.1246   1.1271   1.1298   1.1347   1.1372   1.1397   1.1461   1.1493
  1.1530   1.1565   1.1584   1.1626   1.1650   1.1726   1.1739   1.1791
  1.1854   1.1883   1.1958   1.1994   1.2029   1.2089   1.2119   1.2197
  1.2233   1.2303   1.2344   1.2381   1.2430   1.2465   1.2525   1.2567
  1.2629   1.2703   1.2721   1.2799   1.2890   1.2894   1.2935   1.3072
  1.3125   1.3165   1.3188   1.3236   1.3282   1.3304   1.3371   1.3393
  1.3482   1.3514   1.3520   1.3591   1.3660   1.3673   1.3728   1.3832
  1.3890   1.3932   1.3977   1.4046   1.4085   1.4185   1.4212   1.4268
  1.4324   1.4361   1.4368   1.4428   1.4572   1.4593   1.4631   1.4695
  1.4762   1.4787   1.4924   1.4947   1.5044   1.5069   1.5146   1.5168
  1.5205   1.5291   1.5314   1.5388   1.5402   1.5482   1.5526   1.5541
  1.5589   1.5597   1.5661   1.5686   1.5711   1.5785   1.5853   1.5904
  1.6043   1.6136   1.6168   1.6204   1.6250   1.6350   1.6440   1.6487
  1.6540   1.6624   1.6689   1.6745   1.6818   1.6903   1.6935   1.7061
  1.7070   1.7176   1.7204   1.7228   1.7310   1.7375   1.7469   1.7522
  1.7570   1.7652   1.7701   1.7762   1.7821   1.7839   1.7898   1.7974
  1.8009   1.8051   1.8108   1.8192   1.8251   1.8316   1.8342   1.8372
  1.8470   1.8501   1.8567   1.8591   1.8618   1.8689   1.8705   1.8782
  1.8790   1.8907   1.8919   1.8984   1.9056   1.9078   1.9085   1.9176
  1.9196   1.9213   1.9237   1.9285   1.9368   1.9444   1.9502   1.9554
  1.9591   1.9612   1.9648   1.9710   1.9736   1.9775   1.9813   1.9847
  1.9910   1.9967   2.0000   2.0028   2.0047   2.0061   2.0218   2.0263
  2.0289   2.0317   2.0335   2.0349   2.0400   2.0463   2.0479   2.0523
  2.0551   2.0566   2.0633   2.0664   2.0760   2.0839   2.0867   2.0923
  2.0993   2.1019   2.1039   2.1072   2.1153   2.1174   2.1215   2.1298
  2.1330   2.1364   2.1397   2.1444   2.1482   2.1505   2.1574   2.1647
  2.1663   2.1692   2.1767   2.1797   2.1819   2.1873   2.1929   2.2017
  2.2111   2.2184   2.2268   2.2316   2.2422   2.2466   2.2504   2.2626
  2.2694   2.2770   2.2841   2.2898   2.2967   2.3062   2.3079   2.3148
  2.3187   2.3232   2.3264   2.3314   2.3383   2.3468   2.3493   2.3564
  2.3629   2.3672   2.3702   2.3822   2.3834   2.3953   2.3981   2.4040
  2.4078   2.4134   2.4149   2.4170   2.4240   2.4349   2.4402   2.4424
  2.4657   2.4729   2.4752   2.4787   2.4882   2.4918   2.5044   2.5122
  2.5202   2.5248   2.5319   2.5396   2.5528   2.5616   2.5656   2.5676
  2.5771   2.5859   2.5898   2.5952   2.6069   2.6187   2.6199   2.6345
  2.6371   2.6387   2.6545   2.6571   2.6603   2.6668   2.6726   2.6781
  2.6835   2.6857   2.7007   2.7078   2.7158   2.7254   2.7291   2.7375
  2.7426   2.7457   2.7522   2.7562   2.7646   2.7681   2.7721   2.7813
  2.7885   2.7953   2.8013   2.8073   2.8158   2.8226   2.8313   2.8364
  2.8500   2.8517   2.8787   2.8877   2.8972   2.9019   2.9111   2.9175
  2.9240   2.9307   2.9340   2.9357   2.9445   2.9506   2.9517   2.9690
  2.9709   2.9759   2.9823   2.9958   3.0026   3.0043   3.0100   3.0131
  3.0187   3.0322   3.0381   3.0622   3.0768   3.0785   3.1115   3.1189
  3.1267   3.1326   3.1392   3.1456   3.1567   3.1598   3.1713   3.1771
  3.1839   3.1927   3.2010   3.2105   3.2187   3.2317   3.2452   3.2565
  3.2626   3.2677   3.2702   3.2816   3.2858   3.2906   3.2998   3.3130
  3.3214   3.3257   3.3355   3.3445   3.3486   3.3544   3.3685   3.3761
  3.3970   3.4108   3.4404   3.4477   3.5110   3.5202   3.5342   3.5788
  3.5894   3.6267   3.7065   3.7198   3.7925   3.9222   3.9554   4.2223
 --------------------------------------------------------------
 
          Ground-State Mulliken Net Atomic Charges

     Atom                 Charge (a.u.)
  ----------------------------------------
      1 N                    -2.265299
      2 C                    -0.222495
      3 C                     0.306626
      4 C                     0.449351
      5 C                     0.441685
      6 C                     0.437426
      7 C                     0.202204
      8 C                     0.138177
      9 C                    -0.035484
     10 C                    -0.111060
     11 C                    -0.118427
     12 C                    -0.093602
     13 C                    -0.018923
     14 C                     0.739466
     15 C                     0.599507
     16 C                     1.078881
     17 C                     0.622319
     18 H                    -0.412299
     19 H                    -0.158783
     20 H                    -0.244819
     21 H                    -0.009185
     22 H                    -0.256599
     23 H                    -0.248893
     24 H                    -0.082713
     25 H                    -0.317974
     26 H                     0.016697
     27 H                    -0.137618
     28 H                     0.004224
     29 H                     0.055858
     30 H                    -0.076561
     31 H                     0.094346
     32 H                     0.116387
     33 H                    -0.129931
     34 H                     0.100728
     35 H                     0.020172
     36 H                    -0.000129
     37 H                     0.053248
     38 H                    -0.011047
     39 H                     0.024834
     40 H                     0.061689
     41 H                     0.014813
     42 H                     0.092840
     43 H                     0.101775
     44 H                    -0.014270
     45 H                     0.076255
     46 H                     0.089501
     47 H                     0.005319
     48 H                     0.136143
     49 H                    -0.337612
     50 H                     0.049737
     51 H                     0.103265
     52 H                     0.086984
     53 H                    -0.003539
     54 O                    -0.384773
     55 H                    -0.268659
     56 C                     0.660415
     57 C                     0.123080
     58 C                    -0.415739
     59 H                     0.187449
     60 C                    -0.002001
     61 H                     0.124513
     62 C                     0.316768
     63 C                     0.101400
     64 O                    -0.437193
     65 H                     0.004893
     66 C                     0.970281
     67 O                    -0.494077
     68 O                    -0.499551
  ----------------------------------------
  Sum of atomic charges =     1.000000

  Building new vdw surfaces
         Merz-Kollman RESP Net Atomic Charges

     Atom                 Charge (a.u.)
  ----------------------------------------
      1 N                     0.813647
      2 C                    -0.230052
      3 C                    -0.396062
      4 C                    -0.116474
      5 C                    -0.589208
      6 C                    -0.140819
      7 C                    -0.058993
      8 C                    -0.230285
      9 C                     0.089593
     10 C                     0.238962
     11 C                     0.144903
     12 C                     0.144903
     13 C                     0.123693
     14 C                    -0.658995
     15 C                    -0.514502
     16 C                    -0.514502
     17 C                    -0.514502
     18 H                     0.059769
     19 H                     0.062032
     20 H                     0.133212
     21 H                     0.133212
     22 H                     0.058539
     23 H                     0.058539
     24 H                     0.169030
     25 H                     0.169030
     26 H                     0.077852
     27 H                     0.077852
     28 H                     0.080168
     29 H                     0.080168
     30 H                     0.099318
     31 H                     0.099318
     32 H                     0.051850
     33 H                     0.051850
     34 H                     0.033692
     35 H                     0.032386
     36 H                     0.029972
     37 H                     0.029972
     38 H                     0.031702
     39 H                     0.031702
     40 H                     0.031702
     41 H                     0.031702
     42 H                     0.164802
     43 H                     0.164802
     44 H                     0.164802
     45 H                     0.130885
     46 H                     0.130885
     47 H                     0.130885
     48 H                     0.139716
     49 H                     0.139716
     50 H                     0.139716
     51 H                     0.130315
     52 H                     0.130315
     53 H                     0.130315
     54 O                    -0.588978
     55 H                     0.111307
     56 C                    -0.095594
     57 C                     0.726283
     58 C                    -0.385336
     59 H                     0.227691
     60 C                    -0.339397
     61 H                     0.214655
     62 C                     0.684205
     63 C                    -0.202583
     64 O                    -0.533328
     65 H                     0.199682
     66 C                     0.781979
     67 O                    -0.409779
     68 O                    -0.393835
  ----------------------------------------
  Sum of atomic charges =     1.000000

  Related Dipole Moment =     1.9125 (X  1.5951 Y  0.4808 Z -0.9391)

 -----------------------------------------------------------------
                    Cartesian Multipole Moments
 -----------------------------------------------------------------
    Charge (ESU x 10^10)
                 4.8032
    Dipole Moment (Debye)
         X       1.6295      Y       0.4094      Z      -0.9498
       Tot       1.9300
    Quadrupole Moments (Debye-Ang)
        XX    -159.2241     XY      -8.5612     YY    -176.2640
        XZ       3.5790     YZ       5.1144     ZZ    -152.9110
    Octopole Moments (Debye-Ang^2)
       XXX    -163.3340    XXY     302.8623    XYY      11.6656
       YYY    1217.7636    XXZ     180.1003    XYZ     -11.3678
       YYZ     137.2575    XZZ     -58.1444    YZZ     255.7846
       ZZZ     417.0037
    Hexadecapole Moments (Debye-Ang^3)
      XXXX   -5557.0690   XXXY    -373.2716   XXYY   -3215.9931
      XYYY    -736.2954   YYYY  -17934.2838   XXXZ      -5.6688
      XXYZ    -804.9688   XYYZ     -32.1705   YYYZ   -2520.1391
      XXZZ   -1721.4146   XYZZ    -140.6600   YYZZ   -2868.2983
      XZZZ     -55.1519   YZZZ   -2039.7536   ZZZZ   -4302.2020
 -----------------------------------------------------------------
 Calculating analytic gradient of the SCF energy
 Gradient of SCF Energy
            1           2           3           4           5           6
    1   0.0007277   0.0028957  -0.0020324   0.0097099   0.0173048   0.0124417
    2  -0.0227391   0.0194859  -0.0045984  -0.0018828  -0.0262234  -0.0569749
    3  -0.0013502  -0.0026386  -0.0259871   0.0322033   0.0080793   0.0095264
            7           8           9          10          11          12
    1  -0.0108839  -0.0052779  -0.0079124  -0.0048209  -0.0021354  -0.0032653
    2   0.0118953   0.0086736   0.0631990   0.0196427   0.0064835  -0.0160121
    3   0.0575941  -0.0688026  -0.0020336  -0.0045145  -0.0242486   0.0279319
           13          14          15          16          17          18
    1   0.0111564   0.0257532  -0.0236476  -0.0334009   0.0181120   0.0245617
    2  -0.0255202  -0.0074325   0.0138063  -0.0231228   0.0162155   0.0032031
    3  -0.0044648   0.0245384   0.0143284  -0.0260259  -0.0131402  -0.0202301
           19          20          21          22          23          24
    1  -0.0212419   0.0148374  -0.0200573  -0.0016746  -0.0140259   0.0156929
    2  -0.0255811   0.0333287  -0.0467241  -0.0193143   0.0253949   0.0186116
    3   0.0126656   0.0264887   0.0052431  -0.0144054  -0.0190280   0.0376420
           25          26          27          28          29          30
    1  -0.0206500  -0.0429286   0.0316448  -0.0284577   0.0208470  -0.0299258
    2   0.0183044   0.0016385   0.0307929  -0.0481793   0.0510181   0.0034951
    3  -0.0434182   0.0336414  -0.0240618  -0.0178595  -0.0073207   0.0284464
           31          32          33          34          35          36
    1   0.0591859  -0.0364001   0.0361809   0.0216317  -0.0377826   0.0314316
    2  -0.0335995  -0.0067160  -0.0147138   0.0106196  -0.0258278   0.0252415
    3   0.0010363  -0.0381723   0.0179644  -0.0328073   0.0112113   0.0175757
           37          38          39          40          41          42
    1  -0.0019227   0.0386211  -0.0192092   0.0101240  -0.0363384  -0.0189248
    2  -0.0412044   0.0043975   0.0390696   0.0029290   0.0175519   0.0091344
    3   0.0142681  -0.0260735  -0.0001602   0.0405134  -0.0121849   0.0237937
           43          44          45          46          47          48
    1   0.0161551   0.0199317  -0.0164095   0.0111240  -0.0169129  -0.0225675
    2   0.0257662  -0.0284225  -0.0248902   0.0292838   0.0069066   0.0056651
    3  -0.0152936   0.0095439  -0.0180636  -0.0162278   0.0284993   0.0185486
           49          50          51          52          53          54
    1   0.0367535  -0.0177112  -0.0156330   0.0200694   0.0118252   0.0112900
    2  -0.0192845  -0.0038023  -0.0094512  -0.0190862   0.0296484   0.0428960
    3   0.0192822  -0.0240080  -0.0253649   0.0142077  -0.0030726  -0.0000696
           55          56          57          58          59          60
    1   0.0414858   0.0217676  -0.0164814  -0.0219916   0.0080685   0.0165578
    2  -0.0109198   0.0868075  -0.0299405  -0.0506037  -0.0244871   0.0507610
    3   0.0308712   0.0292774   0.0213328  -0.0556168   0.0556215   0.0006352
           61          62          63          64          65          66
    1   0.0023508  -0.0025597  -0.0333927  -0.0212106  -0.0109669  -0.0017672
    2   0.0274018   0.0273889  -0.0604402  -0.0353358  -0.0225859  -0.0076402
    3  -0.0610478   0.0132672   0.0045234   0.0041457  -0.0462496  -0.0019322
           67          68
    1  -0.0155511   0.0158319
    2   0.0460153  -0.0394168
    3  -0.0142406   0.0156673
 Max gradient component =       8.681E-02
 RMS gradient           =       2.630E-02
 Computing fast CPCM-SWIG gradient
 Updating gradient with PCM contributions...
 -- total gradient after adding PCM contribution --
---------------------------------------------------
  Atom         X              Y              Z     
---------------------------------------------------
   1       0.000105      -0.000062       0.000052
   2      -0.000053      -0.000206       0.000204
   3      -0.000085       0.000127      -0.000004
   4       0.000137      -0.000088      -0.000021
   5       0.000021       0.000014      -0.000064
   6       0.000036       0.000020       0.000020
   7       0.000038       0.000024      -0.000035
   8       0.000094      -0.000025      -0.000035
   9       0.000003       0.000016      -0.000042
  10      -0.000008       0.000025      -0.000005
  11       0.000005       0.000012       0.000010
  12       0.000089      -0.000048      -0.000002
  13       0.000007      -0.000004       0.000002
  14      -0.000008      -0.000014      -0.000012
  15       0.000006       0.000008      -0.000008
  16      -0.000020      -0.000027      -0.000011
  17      -0.000004       0.000006      -0.000002
  18      -0.000011       0.000203      -0.000280
  19      -0.000022       0.000006      -0.000049
  20       0.000007      -0.000069       0.000044
  21      -0.000035      -0.000031      -0.000057
  22      -0.000078       0.000113      -0.000074
  23      -0.000117      -0.000017       0.000124
  24       0.000029      -0.000007      -0.000009
  25      -0.000009      -0.000016       0.000026
  26      -0.000017       0.000008      -0.000024
  27       0.000020      -0.000023       0.000003
  28      -0.000006      -0.000040       0.000020
  29      -0.000015      -0.000015      -0.000025
  30      -0.000053       0.000082      -0.000045
  31      -0.000072       0.000005       0.000111
  32       0.000015       0.000021      -0.000002
  33      -0.000007      -0.000007       0.000016
  34      -0.000003      -0.000004       0.000010
  35      -0.000004      -0.000004       0.000026
  36       0.000006      -0.000005      -0.000004
  37      -0.000012       0.000003      -0.000002
  38       0.000000       0.000046      -0.000025
  39      -0.000028      -0.000018       0.000018
  40       0.000010      -0.000009       0.000002
  41       0.000000       0.000001       0.000014
  42      -0.000003      -0.000004       0.000003
  43      -0.000003       0.000003       0.000008
  44       0.000001       0.000004       0.000004
  45       0.000003       0.000001      -0.000008
  46      -0.000001       0.000004       0.000006
  47      -0.000005      -0.000009      -0.000003
  48       0.000019       0.000002      -0.000001
  49      -0.000013       0.000036      -0.000000
  50      -0.000014       0.000010      -0.000000
  51       0.000004      -0.000001       0.000005
  52       0.000002       0.000002       0.000006
  53       0.000003       0.000000       0.000005
  54      -0.000016       0.000085       0.000111
  55      -0.000073      -0.000097       0.000079
  56       0.000124       0.000117      -0.000156
  57      -0.000005      -0.000095       0.000104
  58      -0.000138      -0.000199       0.000031
  59       0.000041       0.000072      -0.000027
  60      -0.000004       0.000112       0.000080
  61       0.000015      -0.000120      -0.000039
  62       0.000231      -0.000004      -0.000099
  63       0.000126       0.000016      -0.000215
  64      -0.000206       0.000121       0.000111
  65      -0.000093       0.000036       0.000188
  66      -0.000308       0.000054       0.000293
  67       0.000127      -0.000084      -0.000144
  68       0.000223      -0.000061      -0.000205
---------------------------------------------------
 Number of fixed atoms: 0
 Gradient time:  CPU 5061.93 s  wall 330.53 s
Initial Energy: -1.25485011e+03

 *****************************************************
             Starting BFGS Algorithm
 *****************************************************
            LIBOPT3 RUN PARAMETERS

  Geometry Optimization Coordinates :
	Internal Coordinates

  Step Length Selection Method :
	Eigenvector Following Algorithm

  Convergence Criteria :
	Max Gradient Component    	3.00000000e-04
	Max Displacement Component	1.20000000e-03
	Absolute Energy Difference	1.00000000e-06

  Initial Hessian :
	Approximate Hessian - Simple Internal Coordinate Scaled

  Type of Verification :
	Verify with final updated Hessian
 *****************************************************

	OPTIMIZATION CYCLE:	1

 All Eigenvalues from Projected Hessian
   0.10000000   0.10000000   0.10000000   0.10000000   0.10000000
   0.10000000   0.10000000   0.10000000   0.10000000   0.10000000
   0.10000000   0.10000000   0.10000000   0.10000000   0.10000000
   0.10000000   0.10000000   0.10000000   0.10000000   0.10000000
   0.10000000   0.10000000   0.10000000   0.10000000   0.10000000
   0.10000000   0.10000000   0.10000000   0.10000000   0.10000000
   0.10000000   0.10000000   0.10000000   0.10000000   0.10000000
   0.10000000   0.10000000   0.10000000   0.10000000   0.10000000
   0.10000000   0.10000000   0.10000000   0.10000000   0.10000000
   0.10000000   0.10000000   0.10000000   0.10000000   0.10000000
   0.10000000   0.10000000   0.10000000   0.10000000   0.10000000
   0.10000000   0.10000000   0.10000000   0.10000000   0.10000000
   0.10000000   0.10000000   0.10000000   0.10000000   0.10000000
   0.10000000   0.10000000   0.10000000   0.10000000   0.10000000
   0.10000000   0.10000000   0.10000000   0.10000000   0.10000000
   0.10000000   0.10000000   0.10000000   0.10000000   0.10000000
   0.10000000   0.10000000   0.10000000   0.10000000   0.10000000
   0.10000000   0.10000000   0.10000000   0.10000000   0.10000000
   0.10000000   0.10000000   0.10000000   0.10000000   0.10000000
   0.10000000   0.10000000   0.10000000   0.10000000   0.10000000
   0.10000000   0.10000000   0.10000000   0.10000000   0.10000000
   0.10000000   0.10000000   0.10000000   0.10000000   0.10000000
   0.10000000   0.10000000   0.10000000   0.10000000   0.10000000
   0.10000000   0.10000000   0.10000000   0.10000000   0.10000000
   0.10000000   0.10000000   0.10000000   0.10000000   0.10000000
   0.10000000   0.10000000   0.10000000   0.10000000   0.10000000
   0.10000000   0.10000000   0.10000000   0.10000000   0.10000000
   0.10000000   0.10000000   0.10000000   0.10000000   0.10000000
   0.10000000   0.10000000   0.10000000   0.10000000   0.10000000
   0.10000000   0.10000000   0.10000000   0.10000000   0.10000000
   0.10000000   0.10000000   0.10000000   0.10000000   0.10000000
   0.10000000   0.10000000   0.10000000   0.10000000   0.10000000
   0.10000000   0.10000000   0.10000000   0.10000000   0.10000000
   0.10000000   0.10000000   0.10000000   0.10000000   0.10000000
   0.10000000   0.10000000   0.10000000   0.10000000   0.10000000
   0.10000000   0.10000000   0.10000000   0.10000000   0.10000000
   0.10000000   0.10000000   0.10000000   0.10000000   0.10000000
   0.10000000   0.10000000   0.10000000   0.10000000   0.20000000
   0.20000000   0.20000000   0.20000000   0.20000000   0.20000000
   0.20000000   0.20000000   0.20000000   0.20000000   0.20000000
   0.20000000   0.20000000   0.20000000   0.20000000   0.20000000
   0.20000000   0.20000000   0.20000000   0.20000000   0.20000000
   0.20000000   0.20000000   0.20000000   0.20000000   0.20000000
   0.20000000   0.20000000   0.20000000   0.20000000   0.20000000
   0.20000000   0.20000000   0.20000000   0.20000000   0.20000000
   0.20000000   0.20000000   0.20000000   0.20000000   0.20000000
   0.20000000   0.20000000   0.20000000   0.20000000   0.20000000
   0.20000000   0.20000000   0.20000000   0.20000000   0.20000000
   0.20000000   0.20000000   0.20000000   0.20000000   0.20000000
   0.20000000   0.20000000   0.20000000   0.20000000   0.20000000
   0.20000000   0.20000000   0.20000000   0.20000000   0.20000000
   0.20000000   0.20000000   0.20000000   0.20000000   0.20000000
   0.20000000   0.20000000   0.20000000   0.20000000   0.20000000
   0.20000000   0.20000000   0.20000000   0.20000000   0.20000000
   0.20000000   0.20000000   0.20000000   0.20000000   0.20000000
   0.20000000   0.20000000   0.20000000   0.20000000   0.20000000
   0.20000000   0.20000000   0.20000000   0.20000000   0.20000000
   0.20000000   0.20000000   0.20000000   0.20000000   0.20000000
   0.20000000   0.20000000   0.20000000   0.20000000   0.20000000
   0.20000000   0.20000000   0.20000000   0.20000000   0.20000000
   0.20000000   0.20000000   0.20000000   0.20000000   0.20000000
   0.20000000   0.20000000   0.20000000   0.20000000   0.20000000
   0.20000000   0.20000000   0.20000000   0.20000000   0.20000000
   0.20000000   0.20000000   0.20000000   0.20000000   0.50000000
   0.50000000   0.50000000   0.50000000   0.50000000   0.50000000
   0.50000000   0.50000000   0.50000000   0.50000000   0.50000000
   0.50000000   0.50000000   0.50000000   0.50000000   0.50000000
   0.50000000   0.50000000   0.50000000   0.50000000   0.50000000
   0.50000000   0.50000000   0.50000000   0.50000000   0.50000000
   0.50000000   0.50000000   0.50000000   0.50000000   0.50000000
   0.50000000   0.50000000   0.50000000   0.50000000   0.50000000
   0.50000000   0.50000000   0.50000000   0.50000000   0.50000000
   0.50000000   0.50000000   0.50000000   0.50000000   0.50000000
   0.50000000   0.50000000   0.50000000   0.50000000   0.50000000
   0.50000000   0.50000000   0.50000000   0.50000000   0.50000000
   0.50000000   0.50000000   0.50000000   0.50000000   0.50000000
   0.50000000   0.50000000   0.50000000   0.50000000   0.50000000
   0.50000000   0.50000000   0.50000000   0.50000000

 Scaling Magnitute of eigenvalues
 Minimum: -25.00000000
 Maximum: 25.00000000
 389 Hessian Eigenvalues to form next step
   0.10000000   0.10000000   0.10000000   0.10000000   0.10000000
   0.10000000   0.10000000   0.10000000   0.10000000   0.10000000
   0.10000000   0.10000000   0.10000000   0.10000000   0.10000000
   0.10000000   0.10000000   0.10000000   0.10000000   0.10000000
   0.10000000   0.10000000   0.10000000   0.10000000   0.10000000
   0.10000000   0.10000000   0.10000000   0.10000000   0.10000000
   0.10000000   0.10000000   0.10000000   0.10000000   0.10000000
   0.10000000   0.10000000   0.10000000   0.10000000   0.10000000
   0.10000000   0.10000000   0.10000000   0.10000000   0.10000000
   0.10000000   0.10000000   0.10000000   0.10000000   0.10000000
   0.10000000   0.10000000   0.10000000   0.10000000   0.10000000
   0.10000000   0.10000000   0.10000000   0.10000000   0.10000000
   0.10000000   0.10000000   0.10000000   0.10000000   0.10000000
   0.10000000   0.10000000   0.10000000   0.10000000   0.10000000
   0.10000000   0.10000000   0.10000000   0.10000000   0.10000000
   0.10000000   0.10000000   0.10000000   0.10000000   0.10000000
   0.10000000   0.10000000   0.10000000   0.10000000   0.10000000
   0.10000000   0.10000000   0.10000000   0.10000000   0.10000000
   0.10000000   0.10000000   0.10000000   0.10000000   0.10000000
   0.10000000   0.10000000   0.10000000   0.10000000   0.10000000
   0.10000000   0.10000000   0.10000000   0.10000000   0.10000000
   0.10000000   0.10000000   0.10000000   0.10000000   0.10000000
   0.10000000   0.10000000   0.10000000   0.10000000   0.10000000
   0.10000000   0.10000000   0.10000000   0.10000000   0.10000000
   0.10000000   0.10000000   0.10000000   0.10000000   0.10000000
   0.10000000   0.10000000   0.10000000   0.10000000   0.10000000
   0.10000000   0.10000000   0.10000000   0.10000000   0.10000000
   0.10000000   0.10000000   0.10000000   0.10000000   0.10000000
   0.10000000   0.10000000   0.10000000   0.10000000   0.10000000
   0.10000000   0.10000000   0.10000000   0.10000000   0.10000000
   0.10000000   0.10000000   0.10000000   0.10000000   0.10000000
   0.10000000   0.10000000   0.10000000   0.10000000   0.10000000
   0.10000000   0.10000000   0.10000000   0.10000000   0.10000000
   0.10000000   0.10000000   0.10000000   0.10000000   0.10000000
   0.10000000   0.10000000   0.10000000   0.10000000   0.10000000
   0.10000000   0.10000000   0.10000000   0.10000000   0.10000000
   0.10000000   0.10000000   0.10000000   0.10000000   0.10000000
   0.10000000   0.10000000   0.10000000   0.10000000   0.20000000
   0.20000000   0.20000000   0.20000000   0.20000000   0.20000000
   0.20000000   0.20000000   0.20000000   0.20000000   0.20000000
   0.20000000   0.20000000   0.20000000   0.20000000   0.20000000
   0.20000000   0.20000000   0.20000000   0.20000000   0.20000000
   0.20000000   0.20000000   0.20000000   0.20000000   0.20000000
   0.20000000   0.20000000   0.20000000   0.20000000   0.20000000
   0.20000000   0.20000000   0.20000000   0.20000000   0.20000000
   0.20000000   0.20000000   0.20000000   0.20000000   0.20000000
   0.20000000   0.20000000   0.20000000   0.20000000   0.20000000
   0.20000000   0.20000000   0.20000000   0.20000000   0.20000000
   0.20000000   0.20000000   0.20000000   0.20000000   0.20000000
   0.20000000   0.20000000   0.20000000   0.20000000   0.20000000
   0.20000000   0.20000000   0.20000000   0.20000000   0.20000000
   0.20000000   0.20000000   0.20000000   0.20000000   0.20000000
   0.20000000   0.20000000   0.20000000   0.20000000   0.20000000
   0.20000000   0.20000000   0.20000000   0.20000000   0.20000000
   0.20000000   0.20000000   0.20000000   0.20000000   0.20000000
   0.20000000   0.20000000   0.20000000   0.20000000   0.20000000
   0.20000000   0.20000000   0.20000000   0.20000000   0.20000000
   0.20000000   0.20000000   0.20000000   0.20000000   0.20000000
   0.20000000   0.20000000   0.20000000   0.20000000   0.20000000
   0.20000000   0.20000000   0.20000000   0.20000000   0.20000000
   0.20000000   0.20000000   0.20000000   0.20000000   0.20000000
   0.20000000   0.20000000   0.20000000   0.20000000   0.20000000
   0.20000000   0.20000000   0.20000000   0.20000000   0.20000000
   0.20000000   0.20000000   0.20000000   0.20000000   0.50000000
   0.50000000   0.50000000   0.50000000   0.50000000   0.50000000
   0.50000000   0.50000000   0.50000000   0.50000000   0.50000000
   0.50000000   0.50000000   0.50000000   0.50000000   0.50000000
   0.50000000   0.50000000   0.50000000   0.50000000   0.50000000
   0.50000000   0.50000000   0.50000000   0.50000000   0.50000000
   0.50000000   0.50000000   0.50000000   0.50000000   0.50000000
   0.50000000   0.50000000   0.50000000   0.50000000   0.50000000
   0.50000000   0.50000000   0.50000000   0.50000000   0.50000000
   0.50000000   0.50000000   0.50000000   0.50000000   0.50000000
   0.50000000   0.50000000   0.50000000   0.50000000   0.50000000
   0.50000000   0.50000000   0.50000000   0.50000000   0.50000000
   0.50000000   0.50000000   0.50000000   0.50000000   0.50000000
   0.50000000   0.50000000   0.50000000   0.50000000   0.50000000
   0.50000000   0.50000000   0.50000000   0.50000000

 Minimum Search taking a RFO step
 Searching for Lambda that minimizes along all modes
 Value of Lambda  -0.00000507
 Norm of Stepsize  0.00646788

	Performing Iterative Coordinate Back-Transformation

	  Starting from Previous Position
	  iter:	0	rms: 0.00913274	maxdev: 0.03928507
	  iter:	1	rms: 0.00001132	maxdev: 0.00006551
	  iter:	2	rms: 0.00000000	maxdev: 0.00000000	 Success!

	Finished Iterative Coordinate Back-Transformation
 ----------------------------------------------------------------
             Standard Nuclear Orientation (Angstroms)
    I     Atom           X                Y                Z
 ----------------------------------------------------------------
    1      N       0.2823063670     0.1667659803    -0.1724229086
    2      C       1.3166598675    -0.7784618672     0.3898376270
    3      C      -0.7268278599     0.4849874896     0.9079513833
    4      C      -0.3768063531    -0.4919633462    -1.3602726252
    5      C       0.9211024918     1.4579156623    -0.6300550295
    6      C       2.2103170706    -0.2242352658     1.4856651339
    7      C      -1.9843532117     1.2082386555     0.4547320574
    8      C      -1.1418631162    -1.7730794562    -1.0704329128
    9      C       2.0594770466     1.3220338976    -1.6282679934
   10      C       3.1904703715    -1.3064069335     1.9404339139
   11      C      -2.8403659382     1.5762375130     1.6670998463
   12      C      -1.8886633741    -2.2305570871    -2.3233125917
   13      C       2.6767379071     2.6936258922    -1.9028313115
   14      C       4.1288383770    -0.8181357129     3.0373611210
   15      C      -4.1399569043     2.2656209984     1.2694275991
   16      C      -2.6431953037    -3.5353726316    -2.1056808123
   17      C       3.7923686703     2.6270427666    -2.9389250181
   18      H       1.9217560665    -1.1083177794    -0.4596963522
   19      H       0.7647731151    -1.6440642887     0.7689653785
   20      H      -0.1967512524     1.0881507887     1.6510830718
   21      H      -0.9885823090    -0.4655252391     1.3841537517
   22      H       0.4191619247    -0.6930447214    -2.0827302723
   23      H      -1.0386509614     0.2588715038    -1.8032386885
   24      H       1.2642148332     1.9707352223     0.2740401667
   25      H       0.1186470240     2.0616798798    -1.0638793654
   26      H       1.6170469186     0.1099381524     2.3470992749
   27      H       2.7822358433     0.6413227136     1.1253854610
   28      H      -2.5771670980     0.5728372542    -0.2170890294
   29      H      -1.7367707471     2.1244914298    -0.0981933746
   30      H      -1.8672333174    -1.6304256511    -0.2585172559
   31      H      -0.4582516571    -2.5695963183    -0.7455219677
   32      H       1.6976673454     0.8975539662    -2.5740363398
   33      H       2.8424317820     0.6508189372    -1.2513955214
   34      H       3.7807310077    -1.6430470215     1.0739725667
   35      H       2.6258903231    -2.1815721989     2.2970526710
   36      H      -2.2589931403     2.2308801452     2.3338952059
   37      H      -3.0642581231     0.6645799956     2.2421621823
   38      H      -1.1755390716    -2.3451031995    -3.1535468821
   39      H      -2.5926889325    -1.4419426812    -2.6282288757
   40      H       3.0679863716     3.1069236967    -0.9606075305
   41      H       1.8918701035     3.3856528024    -2.2445253738
   42      H       3.5643717128    -0.5041169744     3.9267471419
   43      H       4.7205315783     0.0418729874     2.6929737691
   44      H       4.8266872381    -1.6092214674     3.3395395621
   45      H      -4.7487411146     1.6153215269     0.6249911111
   46      H      -3.9396341211     3.1946227636     0.7165370859
   47      H      -4.7380734016     2.5204436141     2.1537093070
   48      H      -3.3970773317    -3.4247579340    -1.3136043245
   49      H      -1.9622111116    -4.3432562743    -1.8038982864
   50      H      -3.1543445902    -3.8542247492    -3.0223590373
   51      H       3.4130999706     2.2501233996    -3.8995982822
   52      H       4.5964663191     1.9541323760    -2.6079176164
   53      H       4.2297335043     3.6186817590    -3.1120692692
   54      O       2.4799498043    -2.2515139410    -2.4140593686
   55      H       2.7058302544    -3.5417535754    -0.1630513351
   56      C       2.0595488591    -4.0120481897    -0.9043305752
   57      C       1.9359467597    -3.3243150169    -2.2148446524
   58      C       1.3888400463    -5.1426040847    -0.6513508096
   59      H       1.4504735108    -5.6555053620     0.3084771345
   60      C       1.0983031160    -3.9637005284    -3.2588716239
   61      H       1.0451185840    -3.4534009821    -4.2206347956
   62      C       0.5165166364    -5.7622942666    -1.6834803914
   63      C       0.4286200897    -5.0958241968    -3.0091552379
   64      O      -0.1103488627    -6.7781951897    -1.4462174248
   65      H      -0.2144080191    -5.5691260094    -3.7505432164
   66      C      -2.0753554112    -8.1026822897    -3.1508940049
   67      O      -2.4538693713    -7.0760072449    -3.5348930965
   68      O      -1.7120168052    -9.1402240940    -2.7852421438
 ----------------------------------------------------------------
 Nuclear Repulsion Energy =        2777.89859397 hartrees
 There are      108 alpha and      108 beta electrons
 Discretize the solute cavity surface with Lebedev spheres
	Using 194 Lebedev grid points for each H atom
	Using 194 Lebedev grid points for other atoms
	Atomic van der Waals radii will be scaled by 1.10
 Remove points where switching function is < 1.0e-08
 Keep 4772 surface tesserae and discard 8420 interior tesserae
 Molecular Surface Area = 546.794 Angst**2
 Applying Cartesian multipole field
    Component          Value
    ---------          -----
     (2,0,0)        1.00000E-11
     (0,2,0)        2.00000E-12
     (0,0,2)       -3.00000E-11
 Nucleus-field energy     =    -0.0000000371 hartrees
 Requested basis set is def2-SVPD
 There are 388 shells and 892 basis functions
 A cutoff of  1.0D-16 yielded  62496 shell pairs
 There are    326890 function pairs (    368768 Cartesian)
 Smallest overlap matrix eigenvalue = 5.91E-06
 Guess MOs from SCF MO coefficient file

 -----------------------------------------------------------------------
  General SCF calculation program by
  Eric Jon Sundstrom, Paul Horn, Yuezhi Mao, Dmitri Zuev, Alec White,
  David Stuck, Shaama M.S., Shane Yost, Joonho Lee, David Small,
  Daniel Levine, Susi Lehtola, Hugh Burton, Evgeny Epifanovsky,
  Bang C. Huynh
 -----------------------------------------------------------------------
 Exchange:     0.2220 Hartree-Fock + 1.0000 wB97X-D + LR-HF
 Correlation:  1.0000 wB97X-D
 Using SG-3 standard quadrature grid
 Dispersion:   Grimme D
 A restricted SCF calculation will be
 performed using Roothaan-Hall, GDM, DIIS
 SCF converges when DIIS error is below 1.0e-08
 ---------------------------------------
  Cycle       Energy         DIIS error
 ---------------------------------------
    1   -1254.7766164442      1.59e-04  Roothaan Step
 ---------------------------------------
  Cycle       Energy        RMS Gradient
 ---------------------------------------
    1   -1254.8440346157      2.03e-02   Normal BFGS step
    2   -1254.8458974461      1.70e-02   Normal BFGS step
    3   -1254.8498873066      2.91e-03   Normal BFGS step
    4   -1254.8500204969      3.33e-03   Normal BFGS step
    5   -1254.8500997432      6.50e-04   Normal BFGS step
    6   -1254.8501035461      4.87e-04   Normal BFGS step
    7   -1254.8501063634      1.37e-04   Normal BFGS step
    8   -1254.8501064668      1.22e-04   Normal BFGS step
    9   -1254.8501066201      3.33e-05  Done GDM. Switching to DIIS
 ---------------------------------------
  Cycle       Energy         DIIS error
 ---------------------------------------
    1   -1254.8501066201      1.96e-07  
    2   -1254.8501066016      1.76e-07  
    3   -1254.8501070714      4.35e-08  
    4   -1254.8501065334      1.15e-08  
    5   -1254.8501067883      6.33e-09  Convergence criterion met
 ---------------------------------------
 SCF time:   CPU 26453.96s  wall 1422.00s 

************** Final PCM Free Energy Summary **************
 G_electrostatic  =      -0.07332239 hartree =     -46.01049393 kcal/mol
 G_cavitation     =       0.00000000 hartree =       0.00000000 kcal/mol
 G_dispersion     =       0.00000000 hartree =       0.00000000 kcal/mol
 G_repulsion      =       0.00000000 hartree =       0.00000000 kcal/mol
 --------------------------------------------------
 Non-electrostatic Free Energy =       0.00000000 hartree =       0.00000000 kcal/mol
 Total                         =      -0.07332239 hartree =     -46.01049393 kcal/mol
 --------------------------------------------------
 SCF Energy (H0 + V/2)                       =   -1254.85010679 
 Solute Internal Energy (H0)                 =   -1254.77678440 
 Total Free Energy (H0 + V/2 + non-elec)     =   -1254.85010679 hartree
                                             = -787430.32669501 kcal/mol
***********************************************************

 SCF   energy in the final basis set =    -1254.8501067883
 Total energy in the final basis set =    -1254.8501067883
 
 --------------------------------------------------------------
 
                    Orbital Energies (a.u.)
 --------------------------------------------------------------
 
 Alpha MOs
 -- Occupied --
-19.3462 -19.3460 -19.2982 -19.2962 -14.5925 -10.4992 -10.4312 -10.4292
-10.3663 -10.3662 -10.3658 -10.3642 -10.3516 -10.3506 -10.3503 -10.3494
-10.3210 -10.3177 -10.3177 -10.3165 -10.3089 -10.3083 -10.3065 -10.3061
-10.2947 -10.2931 -10.2926 -10.2923  -1.2576  -1.2169  -1.1772  -1.1743
 -1.1294  -0.9689  -0.9279  -0.9218  -0.9207  -0.9025  -0.8967  -0.8532
 -0.8522  -0.8492  -0.8102  -0.8090  -0.7679  -0.7667  -0.7463  -0.7452
 -0.7087  -0.6963  -0.6924  -0.6897  -0.6889  -0.6775  -0.6538  -0.6376
 -0.6267  -0.6185  -0.6159  -0.6146  -0.6137  -0.6130  -0.6096  -0.6035
 -0.5876  -0.5835  -0.5730  -0.5688  -0.5592  -0.5516  -0.5465  -0.5393
 -0.5351  -0.5277  -0.5260  -0.5247  -0.5223  -0.5176  -0.5159  -0.5110
 -0.5089  -0.5016  -0.5005  -0.4895  -0.4796  -0.4786  -0.4690  -0.4634
 -0.4628  -0.4585  -0.4579  -0.4488  -0.4438  -0.4401  -0.4390  -0.4354
 -0.4344  -0.4287  -0.4271  -0.4269  -0.4239  -0.4209  -0.4201  -0.4175
 -0.4006  -0.3935  -0.3887  -0.3744
 -- Virtual --
 -0.0820   0.0296   0.0575   0.0645   0.0767   0.0825   0.0830   0.0878
  0.1010   0.1021   0.1034   0.1066   0.1079   0.1089   0.1125   0.1144
  0.1187   0.1229   0.1245   0.1260   0.1305   0.1376   0.1409   0.1428
  0.1460   0.1470   0.1530   0.1546   0.1564   0.1599   0.1650   0.1678
  0.1694   0.1716   0.1748   0.1779   0.1788   0.1813   0.1839   0.1861
  0.1866   0.1903   0.1927   0.1946   0.1960   0.1981   0.1993   0.2006
  0.2019   0.2069   0.2080   0.2117   0.2126   0.2141   0.2166   0.2195
  0.2225   0.2239   0.2264   0.2274   0.2313   0.2331   0.2346   0.2387
  0.2423   0.2436   0.2471   0.2490   0.2514   0.2524   0.2547   0.2555
  0.2590   0.2609   0.2627   0.2647   0.2703   0.2714   0.2740   0.2768
  0.2776   0.2799   0.2813   0.2841   0.2874   0.2905   0.2929   0.2942
  0.2958   0.3011   0.3042   0.3054   0.3064   0.3106   0.3115   0.3148
  0.3205   0.3225   0.3254   0.3303   0.3318   0.3339   0.3356   0.3383
  0.3425   0.3447   0.3492   0.3533   0.3562   0.3567   0.3594   0.3623
  0.3634   0.3653   0.3698   0.3713   0.3737   0.3742   0.3807   0.3820
  0.3827   0.3853   0.3884   0.3911   0.3922   0.3938   0.3969   0.3981
  0.3998   0.4036   0.4054   0.4073   0.4098   0.4116   0.4140   0.4157
  0.4165   0.4180   0.4194   0.4197   0.4233   0.4247   0.4258   0.4283
  0.4294   0.4302   0.4327   0.4357   0.4376   0.4385   0.4431   0.4461
  0.4466   0.4468   0.4478   0.4497   0.4504   0.4521   0.4540   0.4575
  0.4583   0.4601   0.4639   0.4644   0.4678   0.4691   0.4706   0.4716
  0.4743   0.4749   0.4788   0.4795   0.4817   0.4834   0.4849   0.4877
  0.4901   0.4915   0.4937   0.4968   0.5025   0.5031   0.5047   0.5051
  0.5088   0.5112   0.5139   0.5160   0.5171   0.5217   0.5243   0.5257
  0.5263   0.5273   0.5288   0.5308   0.5339   0.5381   0.5406   0.5424
  0.5435   0.5455   0.5474   0.5508   0.5531   0.5545   0.5584   0.5591
  0.5591   0.5619   0.5642   0.5654   0.5683   0.5724   0.5742   0.5756
  0.5773   0.5806   0.5829   0.5864   0.5885   0.5906   0.5939   0.5957
  0.5962   0.6002   0.6019   0.6039   0.6062   0.6086   0.6099   0.6123
  0.6132   0.6168   0.6181   0.6188   0.6216   0.6232   0.6264   0.6301
  0.6306   0.6343   0.6364   0.6393   0.6426   0.6438   0.6467   0.6485
  0.6515   0.6528   0.6544   0.6573   0.6613   0.6624   0.6664   0.6682
  0.6711   0.6722   0.6750   0.6795   0.6802   0.6819   0.6845   0.6881
  0.6894   0.6911   0.6934   0.6976   0.7045   0.7064   0.7072   0.7082
  0.7097   0.7117   0.7154   0.7161   0.7178   0.7236   0.7265   0.7303
  0.7325   0.7331   0.7354   0.7378   0.7413   0.7436   0.7481   0.7495
  0.7514   0.7548   0.7576   0.7591   0.7637   0.7662   0.7697   0.7730
  0.7741   0.7777   0.7807   0.7827   0.7868   0.7875   0.7908   0.7950
  0.7971   0.7982   0.8054   0.8076   0.8092   0.8133   0.8175   0.8188
  0.8220   0.8257   0.8282   0.8316   0.8347   0.8367   0.8400   0.8448
  0.8464   0.8497   0.8517   0.8567   0.8616   0.8646   0.8673   0.8679
  0.8729   0.8737   0.8782   0.8815   0.8846   0.8905   0.8941   0.8949
  0.8984   0.9010   0.9046   0.9068   0.9136   0.9159   0.9176   0.9209
  0.9261   0.9275   0.9306   0.9354   0.9397   0.9406   0.9439   0.9471
  0.9513   0.9630   0.9651   0.9677   0.9720   0.9784   0.9805   0.9877
  0.9903   0.9932   0.9961   1.0032   1.0092   1.0115   1.0248   1.0260
  1.0307   1.0324   1.0363   1.0399   1.0422   1.0519   1.0533   1.0589
  1.0656   1.0711   1.0736   1.0758   1.0824   1.0882   1.0889   1.0932
  1.0955   1.1000   1.1040   1.1089   1.1106   1.1146   1.1162   1.1208
  1.1248   1.1276   1.1304   1.1348   1.1375   1.1401   1.1466   1.1495
  1.1534   1.1569   1.1590   1.1630   1.1661   1.1730   1.1742   1.1798
  1.1857   1.1889   1.1967   1.1995   1.2032   1.2091   1.2123   1.2201
  1.2234   1.2314   1.2344   1.2383   1.2434   1.2469   1.2531   1.2569
  1.2633   1.2707   1.2723   1.2800   1.2893   1.2901   1.2932   1.3077
  1.3127   1.3168   1.3194   1.3238   1.3283   1.3306   1.3375   1.3394
  1.3486   1.3518   1.3534   1.3595   1.3663   1.3674   1.3732   1.3837
  1.3893   1.3933   1.3981   1.4047   1.4091   1.4187   1.4214   1.4271
  1.4326   1.4364   1.4371   1.4429   1.4578   1.4598   1.4635   1.4699
  1.4763   1.4792   1.4924   1.4946   1.5048   1.5076   1.5149   1.5172
  1.5206   1.5293   1.5319   1.5396   1.5406   1.5486   1.5529   1.5541
  1.5592   1.5599   1.5668   1.5691   1.5719   1.5790   1.5878   1.5911
  1.6049   1.6140   1.6173   1.6215   1.6257   1.6354   1.6443   1.6496
  1.6549   1.6633   1.6696   1.6750   1.6819   1.6904   1.6938   1.7065
  1.7075   1.7178   1.7210   1.7230   1.7316   1.7378   1.7473   1.7525
  1.7576   1.7655   1.7711   1.7770   1.7825   1.7843   1.7898   1.7979
  1.8010   1.8054   1.8106   1.8194   1.8254   1.8320   1.8352   1.8374
  1.8475   1.8506   1.8568   1.8597   1.8620   1.8691   1.8705   1.8784
  1.8801   1.8911   1.8921   1.8988   1.9058   1.9078   1.9088   1.9177
  1.9195   1.9216   1.9240   1.9288   1.9374   1.9448   1.9506   1.9562
  1.9592   1.9621   1.9653   1.9713   1.9742   1.9781   1.9821   1.9853
  1.9913   1.9969   2.0009   2.0033   2.0048   2.0069   2.0225   2.0266
  2.0292   2.0324   2.0341   2.0360   2.0401   2.0468   2.0486   2.0526
  2.0560   2.0575   2.0649   2.0665   2.0764   2.0846   2.0870   2.0934
  2.0995   2.1020   2.1043   2.1080   2.1153   2.1179   2.1219   2.1305
  2.1332   2.1366   2.1402   2.1446   2.1485   2.1510   2.1575   2.1649
  2.1665   2.1693   2.1770   2.1799   2.1826   2.1876   2.1932   2.2022
  2.2113   2.2194   2.2270   2.2317   2.2426   2.2468   2.2509   2.2630
  2.2696   2.2773   2.2847   2.2900   2.2972   2.3062   2.3079   2.3150
  2.3190   2.3233   2.3269   2.3322   2.3388   2.3470   2.3495   2.3566
  2.3632   2.3679   2.3706   2.3827   2.3838   2.3955   2.3984   2.4045
  2.4080   2.4139   2.4151   2.4171   2.4242   2.4352   2.4403   2.4426
  2.4657   2.4730   2.4763   2.4790   2.4883   2.4923   2.5045   2.5124
  2.5208   2.5251   2.5319   2.5399   2.5532   2.5617   2.5656   2.5677
  2.5771   2.5863   2.5900   2.5956   2.6071   2.6193   2.6201   2.6349
  2.6372   2.6391   2.6545   2.6572   2.6605   2.6671   2.6729   2.6787
  2.6839   2.6857   2.7010   2.7081   2.7160   2.7256   2.7293   2.7375
  2.7427   2.7456   2.7527   2.7566   2.7648   2.7681   2.7724   2.7814
  2.7889   2.7952   2.8014   2.8074   2.8160   2.8229   2.8317   2.8368
  2.8505   2.8518   2.8789   2.8879   2.8973   2.9020   2.9113   2.9177
  2.9240   2.9308   2.9342   2.9358   2.9449   2.9506   2.9520   2.9694
  2.9715   2.9764   2.9826   2.9962   3.0028   3.0047   3.0105   3.0136
  3.0192   3.0326   3.0383   3.0633   3.0769   3.0787   3.1115   3.1190
  3.1267   3.1328   3.1393   3.1457   3.1568   3.1601   3.1713   3.1770
  3.1840   3.1926   3.2011   3.2111   3.2196   3.2319   3.2454   3.2567
  3.2628   3.2677   3.2703   3.2820   3.2859   3.2906   3.3000   3.3134
  3.3219   3.3258   3.3356   3.3447   3.3492   3.3548   3.3687   3.3763
  3.3974   3.4107   3.4408   3.4476   3.5113   3.5202   3.5343   3.5791
  3.5895   3.6268   3.7066   3.7199   3.7927   3.9225   3.9558   4.2224
 --------------------------------------------------------------
 
          Ground-State Mulliken Net Atomic Charges

     Atom                 Charge (a.u.)
  ----------------------------------------
      1 N                    -2.266199
      2 C                    -0.235565
      3 C                     0.305501
      4 C                     0.451191
      5 C                     0.440710
      6 C                     0.442021
      7 C                     0.202196
      8 C                     0.141460
      9 C                    -0.036231
     10 C                    -0.112619
     11 C                    -0.118829
     12 C                    -0.091233
     13 C                    -0.018798
     14 C                     0.739610
     15 C                     0.599362
     16 C                     1.098776
     17 C                     0.622261
     18 H                    -0.408701
     19 H                    -0.158209
     20 H                    -0.242090
     21 H                    -0.008957
     22 H                    -0.253627
     23 H                    -0.249999
     24 H                    -0.083306
     25 H                    -0.315189
     26 H                     0.017130
     27 H                    -0.137388
     28 H                     0.004200
     29 H                     0.056084
     30 H                    -0.079367
     31 H                     0.094571
     32 H                     0.117356
     33 H                    -0.129634
     34 H                     0.101081
     35 H                     0.021104
     36 H                    -0.000097
     37 H                     0.053085
     38 H                    -0.012241
     39 H                     0.020811
     40 H                     0.061666
     41 H                     0.014794
     42 H                     0.092841
     43 H                     0.101756
     44 H                    -0.014132
     45 H                     0.076222
     46 H                     0.089385
     47 H                     0.005416
     48 H                     0.137027
     49 H                    -0.357234
     50 H                     0.049783
     51 H                     0.103245
     52 H                     0.087072
     53 H                    -0.003582
     54 O                    -0.383736
     55 H                    -0.274110
     56 C                     0.660052
     57 C                     0.127892
     58 C                    -0.413354
     59 H                     0.187139
     60 C                    -0.004034
     61 H                     0.121733
     62 C                     0.314595
     63 C                     0.105035
     64 O                    -0.437209
     65 H                     0.004303
     66 C                     0.970899
     67 O                    -0.494372
     68 O                    -0.499317
  ----------------------------------------
  Sum of atomic charges =     1.000000

  Building new vdw surfaces
         Merz-Kollman RESP Net Atomic Charges

     Atom                 Charge (a.u.)
  ----------------------------------------
      1 N                     0.816730
      2 C                    -0.228689
      3 C                    -0.397783
      4 C                    -0.114199
      5 C                    -0.590129
[...]
    2  -0.0412711   0.0038605   0.0393551   0.0151163   0.0069728   0.0013013
    3   0.0145868  -0.0268832   0.0026645   0.0345605  -0.0190210   0.0238785
           43          44          45          46          47          48
    1   0.0120279   0.0249703  -0.0165635   0.0110013  -0.0168792  -0.0218437
    2   0.0302091  -0.0259759  -0.0249885   0.0292143   0.0073898   0.0056407
    3  -0.0091511   0.0050952  -0.0176975  -0.0164542   0.0285298   0.0213111
           49          50          51          52          53          54
    1   0.0390904  -0.0189826  -0.0107527   0.0212841   0.0073754   0.0103586
    2  -0.0197351  -0.0040582  -0.0181945  -0.0099313   0.0295677   0.0404191
    3   0.0149780  -0.0236198  -0.0239093   0.0203465  -0.0090983  -0.0039451
           55          56          57          58          59          60
    1   0.0421819   0.0200172  -0.0163935  -0.0233789   0.0121805   0.0175021
    2  -0.0009705   0.0803866  -0.0291605  -0.0572637  -0.0272361   0.0462596
    3   0.0271014   0.0253813   0.0241465  -0.0508385   0.0556646   0.0063842
           61          62          63          64          65          66
    1   0.0009745   0.0045505  -0.0413993  -0.0235752  -0.0083238  -0.0052082
    2   0.0267890   0.0331827  -0.0607563  -0.0337261  -0.0173083  -0.0065132
    3  -0.0613681   0.0125320   0.0036176   0.0059416  -0.0480359   0.0005691
           67          68
    1  -0.0011550   0.0041978
    2   0.0416460  -0.0365531
    3  -0.0290110   0.0281772
 Max gradient component =       8.039E-02
 RMS gradient           =       2.621E-02
 Computing fast CPCM-SWIG gradient
 Updating gradient with PCM contributions...
 -- total gradient after adding PCM contribution --
---------------------------------------------------
  Atom         X              Y              Z     
---------------------------------------------------
   1      -0.000100      -0.000034      -0.000038
   2       0.000060       0.000033       0.000180
   3       0.000097       0.000005      -0.000067
   4      -0.000019       0.000083      -0.000007
   5      -0.000059       0.000098       0.000069
   6      -0.000120      -0.000025      -0.000174
   7       0.000010       0.000011      -0.000004
   8       0.000026       0.000012      -0.000058
   9       0.000007      -0.000025       0.000044
  10      -0.000055      -0.000013      -0.000015
  11      -0.000072       0.000009       0.000030
  12      -0.000032      -0.000067      -0.000017
  13      -0.000065       0.000024      -0.000000
  14       0.000022      -0.000010      -0.000000
  15       0.000034      -0.000004       0.000007
  16       0.000013       0.000033      -0.000003
  17       0.000051       0.000021       0.000019
  18      -0.000029       0.000085      -0.000018
  19       0.000026      -0.000029      -0.000033
  20      -0.000003      -0.000014       0.000013
  21      -0.000013       0.000007       0.000015
  22       0.000004      -0.000027       0.000020
  23      -0.000003      -0.000002       0.000019
  24       0.000050      -0.000045       0.000003
  25       0.000006      -0.000042      -0.000042
  26       0.000019       0.000012       0.000026
  27       0.000033      -0.000005       0.000062
  28       0.000008       0.000001      -0.000005
  29      -0.000004       0.000004       0.000003
  30       0.000004      -0.000025       0.000018
  31      -0.000009      -0.000003       0.000043
  32       0.000024       0.000003      -0.000010
  33      -0.000003       0.000007      -0.000013
  34       0.000074       0.000023      -0.000029
  35       0.000023      -0.000018       0.000024
  36       0.000009      -0.000007       0.000004
  37       0.000008      -0.000013      -0.000017
  38       0.000011       0.000015      -0.000002
  39       0.000008       0.000007       0.000004
  40       0.000022       0.000006      -0.000008
  41       0.000004      -0.000016       0.000003
  42      -0.000003      -0.000008       0.000001
  43      -0.000003       0.000006       0.000005
  44      -0.000002       0.000001      -0.000005
  45      -0.000006      -0.000004       0.000011
  46       0.000000      -0.000008      -0.000007
  47       0.000002       0.000008       0.000001
  48       0.000004      -0.000000       0.000001
  49      -0.000005       0.000003      -0.000001
  50      -0.000001       0.000001       0.000000
  51      -0.000002       0.000015      -0.000014
  52      -0.000015      -0.000032      -0.000015
  53      -0.000006       0.000000       0.000002
  54       0.000022      -0.000060      -0.000030
  55      -0.000028      -0.000093       0.000079
  56      -0.000086       0.000152      -0.000015
  57      -0.000002      -0.000030      -0.000019
  58       0.000087      -0.000091      -0.000056
  59      -0.000017       0.000022       0.000007
  60      -0.000014       0.000076       0.000043
  61      -0.000014      -0.000016      -0.000006
  62      -0.000028       0.000013      -0.000036
  63       0.000054      -0.000043      -0.000018
  64      -0.000029       0.000057       0.000096
  65       0.000074      -0.000041      -0.000052
  66      -0.000671       0.000295       0.000368
  67       0.000257      -0.000143      -0.000109
  68       0.000366      -0.000157      -0.000278
---------------------------------------------------
 Number of fixed atoms: 0
 Gradient time:  CPU 5161.92 s  wall 328.75 s

     Step 86	:	Energy -1254.8504303233
                            Maximum         Tolerance       Converged?
         Gradient           9.51624176e-05	3.00000000e-04	true
         Displacement       5.06173117e-03	1.20000000e-03	false
         Energy change      9.84370217e-07	1.00000000e-06	true

	 Optimization Converged in 86 cycles

 *****************************************************
             End of BFGS Algorithm
 *****************************************************
		----------------------------------
		   Verification of Optimization
		----------------------------------

 Eigenvalues of Hessian in Optimization Verification
   0.00000013   0.00068073   0.00111382   0.00228867   0.00276574
   0.00433099   0.00509406   0.00687171   0.00782605   0.01543267
   0.01746053   0.02258154   0.02549635   0.03184727   0.03291895
   0.04779981   0.04990746   0.06426976   0.08568700   0.09009905
   0.09668568   0.09963712   0.09996941   0.09999918   0.09999999
   0.10000000   0.10000000   0.10000000   0.10000000   0.10000000
   0.10000000   0.10000000   0.10000000   0.10000000   0.10000000
   0.10000000   0.10000000   0.10000000   0.10000000   0.10000000
   0.10000000   0.10000000   0.10000000   0.10000000   0.10000000
   0.10000000   0.10000000   0.10000000   0.10000000   0.10000000
   0.10000000   0.10000000   0.10000000   0.10000000   0.10000000
   0.10000000   0.10000000   0.10000000   0.10000000   0.10000000
   0.10000000   0.10000000   0.10000000   0.10000000   0.10000000
   0.10000000   0.10000000   0.10000000   0.10000000   0.10000000
   0.10000000   0.10000000   0.10000000   0.10000000   0.10000000
   0.10000000   0.10000000   0.10000000   0.10000000   0.10000000
   0.10000000   0.10000000   0.10000000   0.10000000   0.10000000
   0.10000000   0.10000000   0.10000000   0.10000000   0.10000000
   0.10000000   0.10000000   0.10000000   0.10000000   0.10000000
   0.10000000   0.10000000   0.10000000   0.10000000   0.10000000
   0.10000000   0.10000000   0.10000000   0.10000000   0.10000000
   0.10000000   0.10000000   0.10000000   0.10000000   0.10000000
   0.10000000   0.10000000   0.10000000   0.10000000   0.10000000
   0.10000000   0.10000000   0.10000000   0.10000000   0.10000000
   0.10000000   0.10000000   0.10000000   0.10000000   0.10000000
   0.10000000   0.10000000   0.10000001   0.10000002   0.10000003
   0.10000005   0.10000005   0.10000009   0.10000011   0.10000016
   0.10000023   0.10000026   0.10000038   0.10000051   0.10000063
   0.10000073   0.10000091   0.10000105   0.10000138   0.10000157
   0.10000185   0.10000261   0.10000304   0.10000341   0.10000380
   0.10000526   0.10000622   0.10000720   0.10000810   0.10000849
   0.10000970   0.10001343   0.10001548   0.10001825   0.10002224
   0.10002395   0.10002972   0.10003725   0.10004982   0.10005258
   0.10006823   0.10009347   0.10010816   0.10014656   0.10017767
   0.10025702   0.10027186   0.10036701   0.10046278   0.10055375
   0.10093921   0.10098301   0.10176977   0.10184496   0.10226789
   0.10264020   0.10310398   0.10392931   0.10557859   0.10686401
   0.10999063   0.11181263   0.11717876   0.12807548   0.14336192
   0.15289006   0.16032631   0.17558793   0.17884044   0.18364978
   0.18506082   0.18880311   0.19057041   0.19399240   0.19443427
   0.19680031   0.19731060   0.19811212   0.19869700   0.19923174
   0.19962822   0.19980396   0.19987760   0.19992685   0.19993811
   0.19997766   0.19998567   0.19999928   0.19999999   0.20000000
   0.20000000   0.20000000   0.20000000   0.20000000   0.20000000
   0.20000000   0.20000000   0.20000000   0.20000000   0.20000000
   0.20000000   0.20000000   0.20000000   0.20000000   0.20000000
   0.20000000   0.20000000   0.20000000   0.20000000   0.20000000
   0.20000000   0.20000000   0.20000000   0.20000000   0.20000000
   0.20000000   0.20000000   0.20000000   0.20000000   0.20000000
   0.20000000   0.20000000   0.20000000   0.20000000   0.20000000
   0.20000000   0.20000000   0.20000000   0.20000000   0.20000000
   0.20000000   0.20000000   0.20000001   0.20000002   0.20000003
   0.20000005   0.20000007   0.20000009   0.20000015   0.20000020
   0.20000027   0.20000036   0.20000048   0.20000068   0.20000073
   0.20000094   0.20000121   0.20000143   0.20000171   0.20000257
   0.20000299   0.20000424   0.20000453   0.20000544   0.20000841
   0.20000864   0.20001079   0.20001291   0.20001394   0.20002060
   0.20002588   0.20003591   0.20003687   0.20004057   0.20005462
   0.20006780   0.20008909   0.20011849   0.20013157   0.20016225
   0.20022566   0.20026952   0.20028119   0.20038766   0.20062243
   0.20076663   0.20091202   0.20151908   0.20187484   0.20250057
   0.20284930   0.20408584   0.20454598   0.20489891   0.20647470
   0.20938721   0.21047016   0.21870785   0.22803518   0.24641404
   0.29589012   0.30463247   0.32458587   0.35056251   0.39237468
   0.41807699   0.47668490   0.48350696   0.48866773   0.49051878
   0.49243280   0.49363757   0.49556550   0.49691999   0.49863925
   0.49871293   0.49916542   0.49952717   0.49973396   0.49983879
   0.49991221   0.49993026   0.49997888   0.49999361   0.49999558
   0.49999929   0.49999980   0.50000002   0.50000004   0.50000006
   0.50000010   0.50000015   0.50000016   0.50000026   0.50000042
   0.50000044   0.50000063   0.50000106   0.50000171   0.50000259
   0.50000336   0.50000573   0.50000732   0.50000933   0.50001125
   0.50001235   0.50001746   0.50003249   0.50004304   0.50007397
   0.50007796   0.50009826   0.50012255   0.50015036   0.50019041
   0.50020529   0.50029325   0.50043430   0.50077208   0.50100112
   0.50152598   0.50165254   0.50289201   0.50455635   0.50579039
   0.51373453   0.51540649   0.52443702   0.53290540   0.73216216
   0.79249300   0.97333926   1.10433349   1.30819235

 Found a minimum
		---------------------------------
		       End of Verification
		---------------------------------

 Final energy is -1254.850430323345

	******************************
	**  OPTIMIZATION CONVERGED  **
	******************************
 ----------------------------------------------------------------
             Standard Nuclear Orientation (Angstroms)
    I     Atom           X                Y                Z
 ----------------------------------------------------------------
    1      N       0.2766661829     0.1204983345    -0.1783306171
    2      C       1.3150217063    -0.8181827186     0.3815153873
    3      C      -0.7309450261     0.4354298679     0.9026949441
    4      C      -0.3833124961    -0.5385221854    -1.3665813592
    5      C       0.9114366411     1.4125676592    -0.6471978398
    6      C       2.1246706029    -0.2977951372     1.5567828716
    7      C      -1.9840827222     1.1654609448     0.4495500262
    8      C      -1.1353551152    -1.8293486341    -1.0837811992
    9      C       2.1480392787     1.2650345077    -1.5192064489
   10      C       3.2444565494    -1.2878050242     1.8809403012
   11      C      -2.8396637848     1.5356857909     1.6615613102
   12      C      -1.9427147749    -2.2450218088    -2.3133766061
   13      C       2.5772569774     2.6289546278    -2.0598011654
   14      C       4.0769073305    -0.8556441358     3.0817499316
   15      C      -4.1373863411     2.2284797323     1.2640460657
   16      C      -2.6888165152    -3.5553422132    -2.1004942622
   17      C       3.8309317910     2.5364389722    -2.9216071920
   18      H       1.9746394972    -1.0726815980    -0.4531283543
   19      H       0.7822916556    -1.7254366130     0.6818481879
   20      H      -0.1988598383     1.0348303514     1.6473944633
   21      H      -0.9953310032    -0.5158817898     1.3763311561
   22      H       0.4091431576    -0.7213383922    -2.0979012084
   23      H      -1.0561443248     0.2083272921    -1.7982831617
   24      H       1.1473300012     1.9935835616     0.2499711296
   25      H       0.1327574948     1.9537529944    -1.1930706559
   26      H       1.4865250038    -0.1738186378     2.4415391790
   27      H       2.5683745951     0.6823570627     1.3353874119
   28      H      -2.5791205694     0.5342636144    -0.2244094784
   29      H      -1.7281013083     2.0810330860    -0.1011632568
   30      H      -1.8202012783    -1.7155309801    -0.2330052969
   31      H      -0.4384167066    -2.6366085386    -0.8194878359
   32      H       1.9604032586     0.5889558177    -2.3637428537
   33      H       2.9789970965     0.8343211201    -0.9445731996
   34      H       3.8946874283    -1.3956640986     0.9986461738
   35      H       2.8063815510    -2.2796127861     2.0735971912
   36      H      -2.2564584165     2.1886658577     2.3283625825
   37      H      -3.0656625488     0.6244881760     2.2365453820
   38      H      -1.2707583775    -2.3330993319    -3.1803364655
   39      H      -2.6587956135    -1.4464197761    -2.5581195229
   40      H       2.7550263445     3.3146646639    -1.2172929213
   41      H       1.7527026000     3.0619751751    -2.6460694024
   42      H       3.4523845024    -0.7714317010     3.9823673846
   43      H       4.5461031936     0.1223841508     2.9038625518
   44      H       4.8735205919    -1.5811622944     3.2894887733
   45      H      -4.7506133772     1.5775861821     0.6244521482
   46      H      -3.9346276129     3.1539072645     0.7060609050
   47      H      -4.7319725164     2.4901775778     2.1487084020
   48      H      -3.3996917644    -3.4703136628    -1.2665290904
   49      H      -1.9961748265    -4.3743450918    -1.8623848296
   50      H      -3.2485974315    -3.8423620138    -2.9990028859
   51      H       3.6625078112     1.8825728904    -3.7893584651
   52      H       4.6729169587     2.1227759956    -2.3481961136
   53      H       4.1283269244     3.5249794821    -3.2944185921
   54      O       2.6046499313    -2.1540546617    -2.4913248505
   55      H       2.8913864510    -3.4680027343    -0.2615995078
   56      C       2.2070898449    -3.9189418912    -0.9806024246
   57      C       2.0477757154    -3.2179887961    -2.2803960467
   58      C       1.5230665985    -5.0374746994    -0.7104776310
   59      H       1.6089341546    -5.5589352596     0.2428696100
   60      C       1.1590539827    -3.8323549612    -3.2969251132
   61      H       1.0810299385    -3.3137411904    -4.2525248505
   62      C       0.5989602204    -5.6301088444    -1.7132101229
   63      C       0.4789571715    -4.9548207597    -3.0317641872
   64      O      -0.0434917944    -6.6317629442    -1.4577174009
   65      H      -0.1957558786    -5.4138218404    -3.7537705235
   66      C      -2.2780967181    -7.8001449286    -2.9418682540
   67      O      -2.3397236217    -6.8792625550    -3.6440497513
   68      O      -2.2327084328    -8.7328875250    -2.2563225261
 ----------------------------------------------------------------
 Nuclear Repulsion Energy =        2792.41887602 hartrees
 There are      108 alpha and      108 beta electrons

Z-matrix Print:
$molecule
1 1
N 
C  1 1.507558
H  2 1.093844 1 106.072437
H  2 1.094126 1 106.432178 3 -114.927441 0
C  1 1.510569 2 108.747742 3 54.589332 0
H  5 1.093726 1 106.399893 2 -60.628253 0
H  5 1.094008 1 106.336588 2 -174.685811 0
C  1 1.510986 2 108.868627 3 175.948110 0
H  8 1.094063 1 106.072651 2 68.303185 0
H  8 1.095091 1 106.820312 2 -46.034860 0
C  1 1.514006 2 110.953207 3 -64.269987 0
H  11 1.094166 1 106.154585 2 170.200905 0
H  11 1.094595 1 106.829178 2 -75.365354 0
C  2 1.519075 1 116.175032 3 123.085689 0
H  14 1.097904 2 110.631795 1 67.100379 0
H  14 1.098448 2 111.409674 1 -52.100146 0
C  8 1.519421 1 115.897346 2 -169.405183 0
H  17 1.098500 8 110.710754 1 65.275230 0
H  17 1.098674 8 110.960607 1 -53.766152 0
C  11 1.520313 1 115.838534 2 47.898850 0
H  20 1.097967 11 111.218882 1 51.988305 0
H  20 1.098275 11 110.693373 1 -66.664740 0
C  5 1.520453 1 116.115159 2 62.052947 0
H  23 1.098084 5 111.382363 1 49.529573 0
H  23 1.098746 5 110.778304 1 -68.918605 0
C  23 1.528568 5 110.029042 1 170.247790 0
H  26 1.100198 23 108.985417 5 -59.782986 0
H  26 1.100410 23 109.450524 5 56.056180 0
C  26 1.522802 23 112.353645 5 178.441975 0
H  29 1.096838 26 111.143177 23 -179.139249 0
H  29 1.098733 26 111.273885 23 -59.100545 0
H  29 1.099123 26 110.878675 23 60.514801 0
C  20 1.528643 11 110.159900 1 172.942597 0
H  33 1.100503 20 109.213745 11 -59.081085 0
H  33 1.100736 20 109.298763 11 57.041305 0
C  33 1.524129 20 112.133384 11 178.963662 0
H  36 1.097563 33 111.116882 20 -179.573103 0
H  36 1.099480 33 110.968576 20 -59.428683 0
H  36 1.099500 33 110.876688 20 60.302771 0
C  17 1.529071 8 109.963362 1 -174.461293 0
H  40 1.100516 17 109.111145 8 59.969280 0
H  40 1.100892 17 109.174937 8 -56.012351 0
C  40 1.523833 17 112.322661 8 -177.971011 0
H  43 1.097564 40 111.068718 17 -179.657543 0
H  43 1.099450 40 110.952758 17 60.287232 0
H  43 1.099488 40 110.977694 17 -59.557673 0
C  14 1.529418 2 109.418471 1 -172.622506 0
H  47 1.101231 14 109.196742 2 -56.273951 0
H  47 1.101307 14 109.018904 2 59.910301 0
C  47 1.523706 14 112.547255 2 -178.179886 0
H  50 1.097326 47 110.994983 14 -179.815634 0
H  50 1.099196 47 110.918145 14 60.193077 0
H  50 1.099240 47 110.978090 14 -59.706358 0
O  3 2.391762 2 156.103079 1 -74.100102 0
C  54 1.219244 3 97.284559 2 -37.137077 0
C  55 1.483443 54 121.096046 3 130.169834 0
H  56 1.090055 55 116.523791 54 3.466474 0
C  56 1.338944 55 121.049986 54 -175.549673 0
H  58 1.089593 56 122.442589 55 178.692114 0
C  55 1.485321 54 120.944499 3 -47.995187 0
H  60 1.090217 55 116.695797 54 -3.830132 0
C  60 1.338645 55 121.071005 54 175.206463 0
H  62 1.090030 60 122.409267 55 -178.817698 0
C  58 1.486270 56 121.035622 55 -0.477365 0
O  64 1.217100 58 121.167063 56 178.145601 0
O  59 2.599260 58 136.079126 56 -151.314374 0
C  66 1.159690 59 115.430760 58 -49.249478 0
O  67 1.158465 66 178.711311 59 -148.353006 0
$end

 -----------------------------------------------------------------------
                  END OF GEOMETRY OPTIMIZER USING LIBOPT3               
 -----------------------------------------------------------------------
 Total job time:  154370.43s(wall), 2780181.50s(cpu) 
 Tue May 31 02:01:09 2022

        *************************************************************
        *                                                           *
        *  Thank you very much for using Q-Chem.  Have a nice day.  *
        *                                                           *
        *************************************************************


