
Running Job 1 of 1 mol.qin
qchem mol.qin_137893.0 /tmp/scratch/ 0
/clusterfs/mp/software/qchem5.4/exe/qcprog.exe_s mol.qin_137893.0 /tmp/scratch/
                  Welcome to Q-Chem
     A Quantum Leap Into The Future Of Chemistry


 Q-Chem 5.4, Q-Chem, Inc., Pleasanton, CA (2021)

 E. Epifanovsky,  A. T. B. Gilbert,  Xintian Feng,  Joonho Lee,  Yuezhi Mao,  
 N. Mardirossian,  P. Pokhilko,  A. White,  M. Wormit,  M. P. Coons,  
 A. L. Dempwolff,  Zhengting Gan,  D. Hait,  P. R. Horn,  L. D. Jacobson,  
 I. Kaliman,  J. Kussmann,  A. W. Lange,  Ka Un Lao,  D. S. Levine,  Jie Liu,  
 S. C. McKenzie,  A. F. Morrison,  K. Nanda,  F. Plasser,  D. R. Rehn,  
 M. L. Vidal,  Zhi-Qiang You,  Ying Zhu,  B. Alam,  B. Albrecht,  
 A. Aldossary,  E. Alguire,  J. H. Andersen,  D. Barton,  K. Begam,  A. Behn,  
 Y. A. Bernard,  E. J. Berquist,  H. Burton,  A. Carreras,  K. Carter-Fenk,  
 Romit Chakraborty,  A. D. Chien,  K. D. Closser,  V. Cofer-Shabica,  
 S. Dasgupta,  Jia Deng,  M. de Wergifosse,  M. Diedenhofen,  Hainam Do,  
 S. Ehlert,  Po-Tung Fang,  S. Fatehi,  Qingguo Feng,  T. Friedhoff,  
 J. Gayvert,  Qinghui Ge,  G. Gidofalvi,  M. Goldey,  J. Gomes,  
 C. Gonzalez-Espinoza,  S. Gulania,  A. Gunina,  M. W. D. Hanson-Heine,  
 P. H. P. Harbach,  A. W. Hauser,  M. F. Herbst,  M. Hernandez Vera,  
 M. Hodecker,  Z. C. Holden,  S. Houck,  Xunkun Huang,  Kerwin Hui,  
 B. C. Huynh,  M. Ivanov,  Hyunjun Ji,  Hanjie Jiang,  B. Kaduk,  S. Kaehler,  
 K. Khistyaev,  Jaehoon Kim,  P. Klunzinger,  Z. Koczor-Benda,  
 Joong Hoon Koh,  D. Kosenkov,  L. Koulias,  T. Kowalczyk,  C. M. Krauter,  
 K. Kue,  A. Kunitsa,  T. Kus,  A. Landau,  K. V. Lawler,  D. Lefrancois,  
 S. Lehtola,  Rain Li,  Yi-Pei Li,  Jiashu Liang,  M. Liebenthal,  
 Hung-Hsuan Lin,  You-Sheng Lin,  Fenglai Liu,  Kuan-Yu Liu,  
 M. Loipersberger,  A. Luenser,  A. Manjanath,  P. Manohar,  E. Mansoor,  
 S. F. Manzer,  Shan-Ping Mao,  A. V. Marenich,  T. Markovich,  S. Mason,  
 S. A. Maurer,  P. F. McLaughlin,  M. F. S. J. Menger,  J.-M. Mewes,  
 S. A. Mewes,  P. Morgante,  J. W. Mullinax,  K. J. Oosterbaan,  G. Paran,  
 Alexander C. Paul,  Suranjan K. Paul,  F. Pavosevic,  Zheng Pei,  S. Prager,  
 E. I. Proynov,  E. Ramos,  B. Rana,  A. E. Rask,  A. Rettig,  R. M. Richard,  
 F. Rob,  E. Rossomme,  T. Scheele,  M. Scheurer,  M. Schneider,  
 N. Sergueev,  S. M. Sharada,  W. Skomorowski,  D. W. Small,  C. J. Stein,  
 Yu-Chuan Su,  E. J. Sundstrom,  Zhen Tao,  J. Thirman,  T. Tsuchimochi,  
 N. M. Tubman,  S. P. Veccham,  O. Vydrov,  J. Wenzel,  J. Witte,  A. Yamada,  
 Kun Yao,  S. Yeganeh,  S. R. Yost,  A. Zech,  Igor Ying Zhang,  Xing Zhang,  
 Yu Zhang,  D. Zuev,  A. Aspuru-Guzik,  A. T. Bell,  N. A. Besley,  
 K. B. Bravaya,  B. R. Brooks,  D. Casanova,  Jeng-Da Chai,  S. Coriani,  
 C. J. Cramer,  A. E. DePrince, III,  R. A. DiStasio Jr.,  A. Dreuw,  
 B. D. Dunietz,  T. R. Furlani,  W. A. Goddard III,  S. Grimme,  
 S. Hammes-Schiffer,  T. Head-Gordon,  W. J. Hehre,  Chao-Ping Hsu,  
 T.-C. Jagau,  Yousung Jung,  A. Klamt,  Jing Kong,  D. S. Lambrecht,  
 WanZhen Liang,  N. J. Mayhall,  C. W. McCurdy,  J. B. Neaton,  T. Neudecker,  
 C. Ochsenfeld,  J. A. Parkhill,  R. Peverati,  V. A. Rassolov,  Yihan Shao,  
 L. V. Slipchenko,  R. P. Steele,  J. E. Subotnik,  A. J. W. Thom,  
 A. Tkatchenko,  D. G. Truhlar,  T. Van Voorhis,  T. A. Wesolowski,  
 K. B. Whaley,  H. L. Woodcock III,  P. M. Zimmerman,  S. Faraji,  
 P. M. W. Gill,  M. Head-Gordon,  J. M. Herbert,  A. I. Krylov

 Additional authors since Version 5.4.0: 
 Chandrima Chakravarty,  L. Cunha,  R. Kang,  Yongbin Kim,  S. Kotaru,  
 Shaozhi Li,  Xiangyuan Li,  F. Matz,  A. Molle,  V. Parravicini,  
 Haisheng Ren,  Hengyuan Shen,  Yingli Su,  Hung-Yi Tsai,  C. Utku,  
 Fang Wang,  Jeff Yang,  F. Zeller

 Contributors to earlier versions of Q-Chem not listed above: 
 R. D. Adamson,  B. Austin,  R. Baer,  J. Baker,  G. J. O. Beran,  
 K. Brandhorst,  S. T. Brown,  E. F. C. Byrd,  Arup K. Chakraborty,  
 G. K. L. Chan,  Chun-Min Chang,  Yunqing Chen,  C.-L. Cheng,  
 Siu Hung Chien,  D. M. Chipman,  D. L. Crittenden,  H. Dachsel,  
 R. J. Doerksen,  A. D. Dutoi,  R. G. Edgar,  J. Fosso-Tande,  
 L. Fusti-Molnar,  D. Ghosh,  A. Ghysels,  A. Golubeva-Zadorozhnaya,  
 J. Gonthier,  M. S. Gordon,  S. R. Gwaltney,  G. Hawkins,  J. E. Herr,  
 A. Heyden,  S. Hirata,  E. G. Hohenstein,  G. Kedziora,  F. J. Keil,  
 C. Kelley,  Jihan Kim,  R. A. King,  R. Z. Khaliullin,  P. P. Korambath,  
 W. Kurlancheek,  A. Laurent,  A. M. Lee,  M. S. Lee,  S. V. Levchenko,  
 Ching Yeh Lin,  D. Liotard,  E. Livshits,  R. C. Lochan,  I. Lotan,  
 L. A. Martinez-Martinez,  P. E. Maslen,  N. Nair,  D. P. O'Neill,  
 D. Neuhauser,  E. Neuscamman,  C. M. Oana,  R. Olivares-Amaya,  R. Olson,  
 T. M. Perrine,  B. Peters,  P. A. Pieniazek,  A. Prociuk,  Y. M. Rhee,  
 J. Ritchie,  M. A. Rohrdanz,  E. Rosta,  N. J. Russ,  H. F. Schaefer III,  
 M. W. Schmidt,  N. E. Schultz,  S. Sharma,  N. Shenvi,  C. D. Sherrill,  
 A. C. Simmonett,  A. Sodt,  T. Stein,  D. Stuck,  K. S. Thanthiriwatte,  
 V. Vanovschi,  L. Vogt,  Tao Wang,  A. Warshel,  M. A. Watson,  
 C. F. Williams,  Q. Wu,  X. Xu,  Jun Yang,  W. Zhang,  Yan Zhao

   Please cite Q-Chem as follows:
  "Software for the frontiers of quantum chemistry:
   An overview of developments in the Q-Chem 5 package"
   J. Chem. Phys. 155, 084801 (2021)
   https://doi.org/10.1063/5.0055522 (open access)

 Q-Chem 5.4.2 for Intel X86 EM64T Linux

 Parts of Q-Chem use Armadillo 9.900.5 (Nocturnal Misbehaviour).
 http://arma.sourceforge.net/

 Q-Chem begins on Fri May 20 16:37:51 2022  

 Host: 
0

     Scratch files written to /tmp/scratch//
 Dec1321 |scratch|qcdevops|jenkins|workspace|build_RNUM 7600   
 Processing $rem in /clusterfs/mp/software/qchem5.4/config/preferences:
 Processing $rem in /global/home/users/smblau/.qchemrc:
 Symmetry turned off for PCM/SM12/SMD calculation

 Checking the input file for inconsistencies... 	...done.

--------------------------------------------------------------
User input:
--------------------------------------------------------------
$molecule
-1 1
N      0.2885187120      0.0852962035     -0.2308724777
C      1.3303005244     -0.8701363968      0.3088377251
C     -0.7203060971      0.3845508708      0.8516090790
C     -0.3579765372     -0.5600084148     -1.4320809110
C      0.9170279339      1.3879524324     -0.6556668307
C      2.2481845466     -0.3083412900      1.3806060063
C     -2.0196517970      1.0288652917      0.3952511302
C     -1.1276588675     -1.8428685055     -1.1521577188
C      1.9377565971      1.2854604914     -1.7792835103
C      3.1243531945     -1.4249523385      1.9488567900
C     -2.8791023027      1.3966144573      1.6045881227
C     -2.0819126908     -2.1395274349     -2.3069928283
C      2.8713759234      2.4945499952     -1.7697544096
C      4.0946422565     -0.9237031186      3.0117427941
C     -4.2170628626      2.0046089446      1.2012308085
C     -2.8374862597     -3.4472675227     -2.1113274105
C      3.8678848024      2.4651372721     -2.9226048953
H      1.9189556140     -1.2201605729     -0.5510686348
H      0.7719275653     -1.7265507003      0.6995347406
H     -0.2141131493      1.0368423107      1.5702685934
H     -0.9301191691     -0.5603368279      1.3626320762
H      0.4522861389     -0.7742692491     -2.1364005197
H     -1.0080230777      0.2024005928     -1.8756261398
H      1.3715580592      1.8135924807      0.2441785494
H      0.0972221594      2.0523781950     -0.9444408895
H      1.6826882739      0.1549722781      2.2016279909
H      2.9022428071      0.4669662760      0.9570234427
H     -2.5865613153      0.3407397498     -0.2459993853
H     -1.8281689272      1.9346536889     -0.1963662746
H     -1.7106880542     -1.7743847583     -0.2232539893
H     -0.4250833845     -2.6795146157     -1.0420288712
H      1.4178939179      1.2362988795     -2.7465878653
H      2.5206884934      0.3568559259     -1.7039525737
H      3.6826736875     -1.8942803781      1.1253027601
H      2.4792712991     -2.2099449530      2.3722189293
H     -2.3248157112      2.1026765519      2.2415539642
H     -3.0494603546      0.4956597649      2.2141949023
H     -1.5025324391     -2.1840808860     -3.2411831282
H     -2.7933276186     -1.3043166037     -2.4125610023
H      3.4134880230      2.5198269677     -0.8111868072
H      2.2786826010      3.4218471614     -1.8136211470
H      3.5550775564     -0.4777369314      3.8597244830
H      4.7662705838     -0.1562661827      2.6007776449
H      4.7148247635     -1.7424726000      3.3991542429
H     -4.7977059631      1.3035838638      0.5844742648
H     -4.0711141482      2.9241860588      0.6163012281
H     -4.8194592814      2.2572452920      2.0834331673
H     -3.4350634814     -3.4194390667     -1.1877100483
H     -2.1344512130     -4.2886972721     -2.0410851515
H     -3.5221795156     -3.6395104320     -2.9485355802
H      3.3466925237      2.4651380421     -3.8908849800
H      4.4903402542      1.5598361893     -2.8772927451
H      4.5332574543      3.3380678025     -2.8958819088
O      2.8635448624     -1.8969131910     -2.2724828672
H      2.7557579742     -3.6032568754     -0.2528282054
C      2.1029209455     -3.8480612474     -1.0964994945
C      2.1236611702     -2.9818493853     -2.2213566758
C      1.2673385636     -4.9680825379     -1.0098612141
H      1.2940342030     -5.5822246141     -0.1027746025
C      1.2378719308     -3.3662737660     -3.2615576393
H      1.1939928812     -2.7345238477     -4.1556033365
C      0.3756534839     -5.3522041539     -2.0488945009
C      0.4112427065     -4.4917487966     -3.1812052214
O     -0.4106457444     -6.3963640273     -1.9679848999
H     -0.2647150253     -4.7175545370     -4.0130961446
$end

$rem
job_type = freq
basis = def2-svpd
max_scf_cycles = 100
gen_scfman = true
xc_grid = 3
thresh = 14
s2thresh = 16
scf_algorithm = diis
resp_charges = true
symmetry = false
sym_ignore = true
method = wb97xd
geom_opt_max_cycles = 200
solvent_method = pcm
cpscf_nseg = 3
$end

$pcm
heavypoints 194
hpoints 194
radii uff
theory cpcm
vdwscale 1.1
$end

$solvent
dielectric 38.88
$end
--------------------------------------------------------------
 ----------------------------------------------------------------
             Standard Nuclear Orientation (Angstroms)
    I     Atom           X                Y                Z
 ----------------------------------------------------------------
    1      N       0.2885187120     0.0852962035    -0.2308724777
    2      C       1.3303005244    -0.8701363968     0.3088377251
    3      C      -0.7203060971     0.3845508708     0.8516090790
    4      C      -0.3579765372    -0.5600084148    -1.4320809110
    5      C       0.9170279339     1.3879524324    -0.6556668307
    6      C       2.2481845466    -0.3083412900     1.3806060063
    7      C      -2.0196517970     1.0288652917     0.3952511302
    8      C      -1.1276588675    -1.8428685055    -1.1521577188
    9      C       1.9377565971     1.2854604914    -1.7792835103
   10      C       3.1243531945    -1.4249523385     1.9488567900
   11      C      -2.8791023027     1.3966144573     1.6045881227
   12      C      -2.0819126908    -2.1395274349    -2.3069928283
   13      C       2.8713759234     2.4945499952    -1.7697544096
   14      C       4.0946422565    -0.9237031186     3.0117427941
   15      C      -4.2170628626     2.0046089446     1.2012308085
   16      C      -2.8374862597    -3.4472675227    -2.1113274105
   17      C       3.8678848024     2.4651372721    -2.9226048953
   18      H       1.9189556140    -1.2201605729    -0.5510686348
   19      H       0.7719275653    -1.7265507003     0.6995347406
   20      H      -0.2141131493     1.0368423107     1.5702685934
   21      H      -0.9301191691    -0.5603368279     1.3626320762
   22      H       0.4522861389    -0.7742692491    -2.1364005197
   23      H      -1.0080230777     0.2024005928    -1.8756261398
   24      H       1.3715580592     1.8135924807     0.2441785494
   25      H       0.0972221594     2.0523781950    -0.9444408895
   26      H       1.6826882739     0.1549722781     2.2016279909
   27      H       2.9022428071     0.4669662760     0.9570234427
   28      H      -2.5865613153     0.3407397498    -0.2459993853
   29      H      -1.8281689272     1.9346536889    -0.1963662746
   30      H      -1.7106880542    -1.7743847583    -0.2232539893
   31      H      -0.4250833845    -2.6795146157    -1.0420288712
   32      H       1.4178939179     1.2362988795    -2.7465878653
   33      H       2.5206884934     0.3568559259    -1.7039525737
   34      H       3.6826736875    -1.8942803781     1.1253027601
   35      H       2.4792712991    -2.2099449530     2.3722189293
   36      H      -2.3248157112     2.1026765519     2.2415539642
   37      H      -3.0494603546     0.4956597649     2.2141949023
   38      H      -1.5025324391    -2.1840808860    -3.2411831282
   39      H      -2.7933276186    -1.3043166037    -2.4125610023
   40      H       3.4134880230     2.5198269677    -0.8111868072
   41      H       2.2786826010     3.4218471614    -1.8136211470
   42      H       3.5550775564    -0.4777369314     3.8597244830
   43      H       4.7662705838    -0.1562661827     2.6007776449
   44      H       4.7148247635    -1.7424726000     3.3991542429
   45      H      -4.7977059631     1.3035838638     0.5844742648
   46      H      -4.0711141482     2.9241860588     0.6163012281
   47      H      -4.8194592814     2.2572452920     2.0834331673
   48      H      -3.4350634814    -3.4194390667    -1.1877100483
   49      H      -2.1344512130    -4.2886972721    -2.0410851515
   50      H      -3.5221795156    -3.6395104320    -2.9485355802
   51      H       3.3466925237     2.4651380421    -3.8908849800
   52      H       4.4903402542     1.5598361893    -2.8772927451
   53      H       4.5332574543     3.3380678025    -2.8958819088
   54      O       2.8635448624    -1.8969131910    -2.2724828672
   55      H       2.7557579742    -3.6032568754    -0.2528282054
   56      C       2.1029209455    -3.8480612474    -1.0964994945
   57      C       2.1236611702    -2.9818493853    -2.2213566758
   58      C       1.2673385636    -4.9680825379    -1.0098612141
   59      H       1.2940342030    -5.5822246141    -0.1027746025
   60      C       1.2378719308    -3.3662737660    -3.2615576393
   61      H       1.1939928812    -2.7345238477    -4.1556033365
   62      C       0.3756534839    -5.3522041539    -2.0488945009
   63      C       0.4112427065    -4.4917487966    -3.1812052214
   64      O      -0.4106457444    -6.3963640273    -1.9679848999
   65      H      -0.2647150253    -4.7175545370    -4.0130961446
 ----------------------------------------------------------------
 Nuclear Repulsion Energy =        2434.05272938 hartrees
 There are       98 alpha and       98 beta electrons
 Requested basis set is def2-SVPD
 There are 362 shells and 826 basis functions

 Total QAlloc Memory Limit  96000 MB
 Mega-Array Size       188 MB
 MEM_STATIC part       192 MB
 Discretize the solute cavity surface with Lebedev spheres
	Using 194 Lebedev grid points for each H atom
	Using 194 Lebedev grid points for other atoms
	Atomic van der Waals radii will be scaled by 1.10
 Remove points where switching function is < 1.0e-08
 Keep 4315 surface tesserae and discard 8295 interior tesserae
 Molecular Surface Area = 488.635 Angst**2
 A cutoff of  1.0D-16 yielded  57566 shell pairs
 There are    298916 function pairs (    336376 Cartesian)
 Smallest overlap matrix eigenvalue = 5.61E-06
 Guess from superposition of atomic densities
 Warning:  Energy on first SCF cycle will be non-variational
 SAD guess density has 195.000000 electrons

 -----------------------------------------------------------------------
  General SCF calculation program by
  Eric Jon Sundstrom, Paul Horn, Yuezhi Mao, Dmitri Zuev, Alec White,
  David Stuck, Shaama M.S., Shane Yost, Joonho Lee, David Small,
  Daniel Levine, Susi Lehtola, Hugh Burton, Evgeny Epifanovsky,
  Bang C. Huynh
 -----------------------------------------------------------------------
 Exchange:     0.2220 Hartree-Fock + 1.0000 wB97X-D + LR-HF
 Correlation:  1.0000 wB97X-D
 Using SG-3 standard quadrature grid
 Dispersion:   Grimme D
 using 40 threads for integral computing
 -------------------------------------------------------
 OpenMP Integral computing Module                
 Release: version 1.0, May 2013, Q-Chem Inc. Pittsburgh 
 -------------------------------------------------------
 A restricted SCF calculation will be
 performed using DIIS
 SCF converges when DIIS error is below 1.0e-08
 ---------------------------------------
  Cycle       Energy         DIIS error
 ---------------------------------------
    1   -1073.4258006701      2.08e-02  
    2   -1066.2731131183      2.31e-03  
    3   -1066.2508409892      2.66e-03  
    4   -1066.7094042543      4.03e-04  
    5   -1066.7207851199      1.29e-04  
    6   -1066.7220353347      3.63e-05  
    7   -1066.7221303691      1.28e-05  
    8   -1066.7221438937      2.24e-06  
    9   -1066.7221444614      9.86e-07  
   10   -1066.7221445516      2.76e-07  
   11   -1066.7221448023      1.83e-07  
   12   -1066.7221447100      4.48e-08  
   13   -1066.7221447276      1.66e-08  
   14   -1066.7221448122      7.90e-09  Convergence criterion met
 ---------------------------------------
 SCF time:   CPU 20937.11s  wall 1003.00s 

************** Final PCM Free Energy Summary **************
 G_electrostatic  =      -0.16475962 hartree =    -103.38821896 kcal/mol
 G_cavitation     =       0.00000000 hartree =       0.00000000 kcal/mol
 G_dispersion     =       0.00000000 hartree =       0.00000000 kcal/mol
 G_repulsion      =       0.00000000 hartree =       0.00000000 kcal/mol
 --------------------------------------------------
 Non-electrostatic Free Energy =       0.00000000 hartree =       0.00000000 kcal/mol
 Total                         =      -0.16475962 hartree =    -103.38821896 kcal/mol
 --------------------------------------------------
 SCF Energy (H0 + V/2)                       =   -1066.72214481 
 Solute Internal Energy (H0)                 =   -1066.55738520 
 Total Free Energy (H0 + V/2 + non-elec)     =   -1066.72214481 hartree
                                             = -669378.24879510 kcal/mol
***********************************************************

 SCF   energy in the final basis set =    -1066.7221448122
 Total energy in the final basis set =    -1066.7221448122
 
 --------------------------------------------------------------
 
                    Orbital Energies (a.u.)
 --------------------------------------------------------------
 
 Alpha MOs
 -- Occupied --
-19.1530 -19.1499 -14.5731 -10.3538 -10.3505 -10.3433 -10.3340 -10.3094
-10.3033 -10.3011 -10.2969 -10.2966 -10.2964 -10.2941 -10.2922 -10.2915
-10.2893 -10.2887 -10.2862 -10.2859 -10.2758 -10.2499 -10.2499 -10.2490
-10.2487  -1.1107  -1.0085  -1.0032  -0.9139  -0.9048  -0.9042  -0.8882
 -0.8681  -0.8411  -0.8385  -0.8337  -0.7962  -0.7872  -0.7532  -0.7522
 -0.7328  -0.7313  -0.6851  -0.6805  -0.6790  -0.6731  -0.6582  -0.6496
 -0.6222  -0.6138  -0.5996  -0.5942  -0.5825  -0.5685  -0.5558  -0.5530
 -0.5270  -0.5241  -0.5147  -0.5123  -0.5113  -0.5080  -0.5070  -0.5042
 -0.4995  -0.4957  -0.4894  -0.4865  -0.4772  -0.4662  -0.4641  -0.4571
 -0.4533  -0.4476  -0.4438  -0.4408  -0.4379  -0.4348  -0.4295  -0.4271
 -0.4269  -0.4232  -0.4213  -0.4153  -0.4145  -0.4140  -0.4124  -0.4079
 -0.4054  -0.4003  -0.3967  -0.3926  -0.3842  -0.3035  -0.2916  -0.2758
 -0.2726  -0.1899
 -- Virtual --
  0.0820   0.0868   0.0883   0.0915   0.0958   0.1073   0.1081   0.1094
  0.1134   0.1155   0.1239   0.1271   0.1303   0.1350   0.1375   0.1382
  0.1417   0.1484   0.1513   0.1562   0.1581   0.1631   0.1649   0.1712
  0.1733   0.1766   0.1805   0.1834   0.1845   0.1878   0.1906   0.1932
  0.1948   0.1976   0.1998   0.1999   0.2039   0.2065   0.2096   0.2112
  0.2130   0.2159   0.2207   0.2216   0.2231   0.2251   0.2269   0.2310
  0.2334   0.2393   0.2403   0.2410   0.2447   0.2472   0.2496   0.2532
  0.2559   0.2583   0.2625   0.2630   0.2662   0.2711   0.2718   0.2743
  0.2761   0.2782   0.2817   0.2842   0.2884   0.2888   0.2925   0.2949
  0.2981   0.3018   0.3042   0.3066   0.3082   0.3132   0.3153   0.3176
  0.3217   0.3223   0.3250   0.3296   0.3301   0.3358   0.3382   0.3424
  0.3449   0.3456   0.3477   0.3548   0.3580   0.3589   0.3634   0.3651
  0.3667   0.3673   0.3705   0.3743   0.3752   0.3782   0.3801   0.3830
  0.3856   0.3896   0.3917   0.3934   0.3960   0.4007   0.4031   0.4046
  0.4061   0.4083   0.4120   0.4136   0.4158   0.4184   0.4192   0.4206
  0.4229   0.4245   0.4262   0.4272   0.4298   0.4317   0.4348   0.4354
  0.4358   0.4398   0.4404   0.4426   0.4452   0.4484   0.4486   0.4503
  0.4526   0.4535   0.4559   0.4580   0.4591   0.4651   0.4670   0.4688
  0.4700   0.4728   0.4754   0.4756   0.4788   0.4801   0.4821   0.4871
  0.4886   0.4891   0.4942   0.4955   0.4987   0.4997   0.5006   0.5017
  0.5064   0.5071   0.5089   0.5116   0.5145   0.5165   0.5197   0.5232
  0.5241   0.5252   0.5282   0.5293   0.5307   0.5338   0.5354   0.5393
  0.5409   0.5418   0.5435   0.5483   0.5505   0.5549   0.5565   0.5573
  0.5610   0.5620   0.5631   0.5660   0.5679   0.5696   0.5719   0.5759
  0.5771   0.5808   0.5811   0.5844   0.5856   0.5899   0.5923   0.5934
  0.5953   0.6002   0.6014   0.6026   0.6049   0.6105   0.6120   0.6148
  0.6172   0.6197   0.6243   0.6266   0.6279   0.6331   0.6365   0.6377
  0.6398   0.6403   0.6437   0.6469   0.6495   0.6527   0.6544   0.6552
  0.6614   0.6624   0.6632   0.6657   0.6682   0.6723   0.6778   0.6805
  0.6821   0.6839   0.6856   0.6902   0.6922   0.6948   0.6973   0.7016
  0.7054   0.7073   0.7082   0.7107   0.7137   0.7182   0.7185   0.7244
  0.7247   0.7274   0.7326   0.7356   0.7364   0.7412   0.7430   0.7493
  0.7504   0.7522   0.7553   0.7591   0.7617   0.7633   0.7675   0.7696
  0.7711   0.7759   0.7776   0.7811   0.7831   0.7858   0.7908   0.7965
  0.7984   0.8024   0.8042   0.8056   0.8140   0.8152   0.8163   0.8204
  0.8216   0.8244   0.8273   0.8298   0.8345   0.8406   0.8415   0.8429
  0.8479   0.8508   0.8559   0.8577   0.8616   0.8640   0.8659   0.8690
  0.8771   0.8791   0.8833   0.8875   0.8892   0.8926   0.8950   0.8971
  0.9033   0.9095   0.9118   0.9178   0.9218   0.9245   0.9274   0.9307
  0.9354   0.9426   0.9458   0.9482   0.9502   0.9532   0.9611   0.9631
  0.9679   0.9701   0.9764   0.9777   0.9849   0.9889   0.9905   0.9946
  0.9988   1.0073   1.0162   1.0177   1.0228   1.0262   1.0335   1.0374
  1.0471   1.0513   1.0533   1.0589   1.0614   1.0652   1.0683   1.0703
  1.0784   1.0807   1.0911   1.0941   1.0982   1.1011   1.1062   1.1112
  1.1132   1.1165   1.1177   1.1221   1.1226   1.1286   1.1354   1.1392
  1.1432   1.1445   1.1450   1.1490   1.1536   1.1642   1.1660   1.1704
  1.1758   1.1835   1.1887   1.1930   1.1946   1.2001   1.2034   1.2081
  1.2117   1.2140   1.2272   1.2329   1.2367   1.2418   1.2485   1.2550
  1.2557   1.2597   1.2613   1.2663   1.2783   1.2833   1.2864   1.2958
  1.2992   1.3049   1.3084   1.3180   1.3236   1.3270   1.3353   1.3378
  1.3408   1.3476   1.3584   1.3596   1.3683   1.3753   1.3831   1.3850
  1.3867   1.3963   1.3973   1.4055   1.4086   1.4153   1.4206   1.4208
  1.4220   1.4300   1.4350   1.4448   1.4461   1.4488   1.4631   1.4653
  1.4706   1.4736   1.4782   1.4846   1.4953   1.4972   1.5097   1.5156
  1.5245   1.5274   1.5334   1.5402   1.5405   1.5451   1.5491   1.5506
  1.5633   1.5649   1.5694   1.5751   1.5834   1.5859   1.5989   1.6022
  1.6140   1.6167   1.6277   1.6452   1.6517   1.6548   1.6603   1.6689
  1.6806   1.6856   1.6916   1.7014   1.7048   1.7171   1.7211   1.7295
  1.7328   1.7414   1.7507   1.7612   1.7631   1.7718   1.7741   1.7802
  1.7856   1.7896   1.7981   1.8034   1.8115   1.8147   1.8198   1.8236
  1.8253   1.8285   1.8358   1.8492   1.8539   1.8614   1.8681   1.8700
  1.8771   1.8890   1.8927   1.8985   1.9048   1.9083   1.9123   1.9184
  1.9217   1.9288   1.9327   1.9352   1.9412   1.9432   1.9492   1.9539
  1.9644   1.9717   1.9749   1.9790   1.9834   1.9884   1.9933   1.9998
  2.0057   2.0117   2.0139   2.0197   2.0251   2.0286   2.0315   2.0363
  2.0374   2.0452   2.0508   2.0559   2.0604   2.0631   2.0728   2.0749
  2.0807   2.0864   2.0881   2.0966   2.1008   2.1027   2.1086   2.1113
  2.1206   2.1214   2.1237   2.1290   2.1338   2.1375   2.1414   2.1460
  2.1534   2.1549   2.1632   2.1652   2.1712   2.1765   2.1820   2.1875
  2.1920   2.1971   2.2027   2.2049   2.2122   2.2162   2.2232   2.2243
  2.2285   2.2397   2.2417   2.2500   2.2574   2.2579   2.2703   2.2744
  2.2812   2.2897   2.3004   2.3046   2.3067   2.3207   2.3244   2.3249
  2.3286   2.3324   2.3438   2.3529   2.3576   2.3608   2.3675   2.3753
  2.3786   2.3845   2.3918   2.3966   2.4054   2.4073   2.4139   2.4197
  2.4214   2.4283   2.4318   2.4436   2.4454   2.4526   2.4607   2.4733
  2.4747   2.4840   2.4891   2.4947   2.4990   2.5062   2.5262   2.5271
  2.5432   2.5505   2.5545   2.5588   2.5649   2.5702   2.5726   2.5886
  2.5986   2.6042   2.6187   2.6227   2.6303   2.6331   2.6403   2.6437
  2.6467   2.6543   2.6604   2.6618   2.6697   2.6744   2.6806   2.6917
  2.6951   2.7072   2.7135   2.7195   2.7307   2.7346   2.7486   2.7519
  2.7562   2.7587   2.7637   2.7696   2.7717   2.7803   2.7842   2.7923
  2.8007   2.8040   2.8063   2.8135   2.8258   2.8292   2.8374   2.8491
  2.8638   2.8678   2.8811   2.8855   2.9142   2.9203   2.9349   2.9391
  2.9418   2.9556   2.9598   2.9725   2.9814   2.9954   3.0011   3.0146
  3.0195   3.0250   3.0321   3.0491   3.0930   3.0956   3.1105   3.1224
  3.1336   3.1429   3.1499   3.1561   3.1585   3.1644   3.1713   3.1728
  3.1824   3.1897   3.1992   3.2040   3.2090   3.2206   3.2335   3.2372
  3.2518   3.2618   3.2706   3.2738   3.2803   3.2854   3.2880   3.2994
  3.3026   3.3073   3.3124   3.3303   3.3406   3.3549   3.3575   3.3635
  3.3705   3.3738   3.3841   3.4022   3.4216   3.4478   3.4799   3.5148
  3.5353   3.5431   3.5524   3.6033   3.6206   3.6583   3.9225   4.0456
 --------------------------------------------------------------
 
          Ground-State Mulliken Net Atomic Charges

     Atom                 Charge (a.u.)
  ----------------------------------------
      1 N                    -2.351389
      2 C                     0.348990
      3 C                     0.406611
      4 C                     0.277922
      5 C                     0.750284
      6 C                     0.567369
      7 C                     0.311347
      8 C                     0.210310
      9 C                     0.301105
     10 C                     0.048807
     11 C                    -0.078660
     12 C                    -0.056696
     13 C                     0.005552
     14 C                     0.775410
     15 C                     0.597107
     16 C                     1.352914
     17 C                     0.724626
     18 H                    -1.032406
     19 H                    -0.128392
     20 H                    -0.292661
     21 H                     0.009830
     22 H                    -0.144535
     23 H                    -0.319063
     24 H                    -0.194803
     25 H                    -0.486227
     26 H                    -0.055723
     27 H                    -0.195230
     28 H                    -0.007842
     29 H                    -0.011234
     30 H                    -0.020719
     31 H                    -0.066226
     32 H                     0.144949
     33 H                    -0.378438
     34 H                     0.029480
     35 H                    -0.028287
     36 H                    -0.029384
     37 H                     0.044945
     38 H                     0.055423
     39 H                    -0.067820
     40 H                    -0.018527
     41 H                    -0.094117
     42 H                     0.073314
     43 H                     0.099126
     44 H                    -0.013475
     45 H                     0.072241
     46 H                     0.087900
     47 H                     0.003769
     48 H                     0.161498
     49 H                    -0.601851
     50 H                     0.078565
     51 H                     0.110606
     52 H                     0.037750
     53 H                    -0.011313
     54 O                    -0.826497
     55 H                    -0.381015
     56 C                     0.205545
     57 C                     0.006477
     58 C                    -0.193721
     59 H                     0.066281
     60 C                    -0.080323
     61 H                    -0.076591
     62 C                     0.300207
     63 C                    -0.071678
     64 O                    -0.890662
     65 H                    -0.060759
  ----------------------------------------
  Sum of atomic charges =    -1.000000

  Building new vdw surfaces
         Merz-Kollman RESP Net Atomic Charges

     Atom                 Charge (a.u.)
  ----------------------------------------
      1 N                     0.478061
      2 C                    -0.219010
      3 C                    -0.323700
      4 C                    -0.351111
      5 C                    -0.351111
      6 C                    -0.304110
      7 C                    -0.066444
      8 C                    -0.079415
      9 C                     0.025101
     10 C                     0.309799
     11 C                     0.149138
     12 C                     0.122939
     13 C                     0.146413
     14 C                    -0.622371
     15 C                    -0.454926
     16 C                    -0.454926
     17 C                    -0.454926
     18 H                     0.309646
     19 H                     0.104335
     20 H                     0.133867
     21 H                     0.133867
     22 H                     0.133867
     23 H                     0.133867
     24 H                     0.136372
     25 H                     0.136372
     26 H                     0.107700
     27 H                     0.107700
     28 H                     0.073590
     29 H                     0.073590
     30 H                     0.084853
     31 H                     0.084853
     32 H                     0.053419
     33 H                     0.053419
     34 H                     0.000769
     35 H                     0.000769
     36 H                     0.021602
     37 H                     0.021602
     38 H                     0.021602
     39 H                     0.021602
     40 H                     0.007824
     41 H                     0.007824
     42 H                     0.149741
     43 H                     0.149741
     44 H                     0.149741
     45 H                     0.113109
     46 H                     0.113109
     47 H                     0.113109
     48 H                     0.113128
     49 H                     0.113128
     50 H                     0.113128
     51 H                     0.111158
     52 H                     0.111158
     53 H                     0.111158
     54 O                    -0.977312
     55 H                     0.094931
     56 C                    -0.243561
     57 C                     0.351420
     58 C                    -0.518222
     59 H                     0.163790
     60 C                    -0.266188
     61 H                     0.151236
     62 C                     0.658798
     63 C                    -0.575332
     64 O                    -1.025829
     65 H                     0.210549
  ----------------------------------------
  Sum of atomic charges =    -1.000000

  Related Dipole Moment =    43.6151 (X -9.6425 Y 38.4449 Z 18.2014)

 -----------------------------------------------------------------
                    Cartesian Multipole Moments
 -----------------------------------------------------------------
    Charge (ESU x 10^10)
                -4.8032
    Dipole Moment (Debye)
         X      -9.6371      Y      38.6020      Z      18.3242
       Tot      43.8037
    Quadrupole Moments (Debye-Ang)
        XX    -192.7006     XY      16.8669     YY    -362.8714
        XZ      25.4665     YZ     -79.3033     ZZ    -199.6745
    Octopole Moments (Debye-Ang^2)
       XXX    -376.4604    XXY     303.4740    XYY     -94.0014
       YYY    1872.7177    XXZ     229.3297    XYZ     -54.1934
       YYZ     550.1460    XZZ    -162.2506    YZZ     381.2360
       ZZZ     501.6827
    Hexadecapole Moments (Debye-Ang^3)
      XXXX   -5943.7009   XXXY     548.4230   XXYY   -2586.2240
      XYYY     119.2514   YYYY  -16051.8385   XXXZ     548.4043
      XXYZ    -657.5474   XYYZ     154.1153   YYYZ   -3821.6419
      XXZZ   -1817.9739   XYZZ     236.3569   YYZZ   -2924.0025
      XZZZ     489.1367   YZZZ   -1719.0996   ZZZZ   -4230.7098
 -----------------------------------------------------------------
 Calculating MO derivatives via CPSCF
 Full subspace dimension requested for CIS/TDDFT

 CIS/TDDFT memory preview:
 --------------------------
	NOV = NOa*NVa + NOb*NVb = 142688
	NRoots = 0, max iter = 30, max vectors = 71344
	Size of each subspace vector: 1.09 Mb
	Davidson algorithm may add up to 2 x NOV x NRoots (= 0.0 Mb) per iteration
	Max memory = 155333.4 Mb (worst case scenario)
	Currently available memory = 96000.0 Mb

	In case of problems:
	(a) increase memory (MEM_TOTAL = 155334 can hold 71344 subspace vectors), or
	(b) request fewer states (CIS_N_ROOTS = 0 will fit in current MEM_TOTAL), or
	(c) reduce MAX_CIS_SUBSPACE (= 44092 will fit in current MEM_TOTAL).
	Reducing MAX_CIS_SUBSPACE may hamper convergence.

 CPSCF will be done in 3 segments to save memory.
 Computing fast CPCM-SWIG hessian.
 Computing fast CPCM-SWIG hessian.
 Computing fast CPCM-SWIG hessian.
   1         0          66      0.253779    0.006051
   2         0          66      0.071052    0.002344
   3         0          66      0.009566    0.000251
   4         0          66      0.001653    0.000051
   5         0          66      0.000263    0.000010
   6         0          66      0.000043    0.000002
   7        39          27      0.000005    0.000000
   8        66           0      0.000000    0.000000    Roots Converged
   1         0          66      0.113444    0.003186
   2         0          66      0.029442    0.001068
   3         0          66      0.004720    0.000181
   4         0          66      0.000822    0.000042
   5         0          66      0.000130    0.000007
   6        12          54      0.000021    0.000001
   7        55          11      0.000002    0.000000
   8        66           0      0.000000    0.000000    Roots Converged
   1         0          66      0.226770    0.017011
   2         0          66      0.058298    0.005403
   3         0          66      0.010283    0.001375
   4         0          66      0.002351    0.000343
   5         0          66      0.000396    0.000059
   6         4          62      0.000059    0.000010
   7        44          22      0.000007    0.000001
   8        63           3      0.000000    0.000000
   9        66           0      0.000000    0.000000    Roots Converged
 Time for AOints: 24216.0 s (CPU) 635.3 s (wall)
 ------------------------------------------------------------------------------
                     AOints        : Timing summary (seconds)
 ------------------------------------------------------------------------------
     job step          cpu (% of tot)      sys (% of tot)     wall (% of tot)
 ------------------------------------------------------------------------------
  cpscf_lag         0.1621E+06 (18.4)   0.2284E-01 (16.8)   0.2462E+05 (37.3)
  iterzp            0.6941E+06 (78.8)   0.1118E+00 (82.4)   0.4072E+05 (61.7)
  make_fx           0.0000E+00 ( 0.0)   0.0000E+00 ( 0.0)   0.0000E+00 ( 0.0)
  AOints            0.2422E+05 ( 2.8)   0.9570E-03 ( 0.7)   0.6353E+03 ( 1.0)
 ------------------------------------------------------------------------------
   Grand Totals     0.8804E+06          0.1357E+00          0.6598E+05
 ------------------------------------------------------------------------------
 Time for AOints: 23836.7 s (CPU) 624.4 s (wall)
 ------------------------------------------------------------------------------
                     AOints        : Timing summary (seconds)
 ------------------------------------------------------------------------------
     job step          cpu (% of tot)      sys (% of tot)     wall (% of tot)
 ------------------------------------------------------------------------------
  cpscf_lag         0.1621E+06 (17.8)   0.2284E-01 (16.3)   0.2462E+05 (36.3)
  iterzp            0.6941E+06 (76.2)   0.1118E+00 (79.7)   0.4072E+05 (60.1)
  make_fx           0.0000E+00 ( 0.0)   0.0000E+00 ( 0.0)   0.0000E+00 ( 0.0)
  AOints            0.4805E+05 ( 5.3)   0.1852E-02 ( 1.3)   0.1260E+04 ( 1.9)
 ------------------------------------------------------------------------------
   Grand Totals     0.9107E+06          0.1403E+00          0.6780E+05
 ------------------------------------------------------------------------------
 Time for AOints: 25045.0 s (CPU) 651.6 s (wall)
 ------------------------------------------------------------------------------
                     AOints        : Timing summary (seconds)
 ------------------------------------------------------------------------------
     job step          cpu (% of tot)      sys (% of tot)     wall (% of tot)
 ------------------------------------------------------------------------------
  cpscf_lag         0.1621E+06 (17.2)   0.2284E-01 (15.8)   0.2462E+05 (35.3)
  iterzp            0.6941E+06 (73.7)   0.1118E+00 (77.2)   0.4072E+05 (58.5)
  make_fx           0.0000E+00 ( 0.0)   0.0000E+00 ( 0.0)   0.0000E+00 ( 0.0)
  AOints            0.7310E+05 ( 7.8)   0.2747E-02 ( 1.9)   0.1911E+04 ( 2.7)
 ------------------------------------------------------------------------------
   Grand Totals     0.9421E+06          0.1448E+00          0.6965E+05
 ------------------------------------------------------------------------------
 Calculating analytic Hessian of the SCF energy
 Polarizability Matrix (a.u.)
            1           2           3
    1-400.1954894 -41.6811429 -16.7346254
    2 -41.6811429-415.0446817   8.7414399
    3 -16.7346254   8.7414399-394.3254357

 Q-Chem warning in module drvman/find_multipole_der.C, line 187:

 Net Molecular Charges From Derivative of Dipole Moment are Inconsistent

 Derivative of Dipole Moment Matrix (a.u.)
            1           2           3
    1  -0.6830101  -0.0000886  -0.0378232
    2  -0.0382657  -0.5803751   0.0150575
    3  -0.0487677  -0.0409567  -0.5643498
    4   0.3561680  -0.1102899   0.3052041
    5  -0.1639480   0.2375322  -0.1909271
    6   0.3212186  -0.2406674   0.0732916
    7   0.4277841  -0.1060621  -0.2067764
    8  -0.1063104   0.1621418   0.0812988
    9  -0.2393182   0.1025732   0.3217895
   10   0.2078292   0.1097117   0.2134556
   11   0.1333695   0.3125704   0.1656529
   12   0.2389921   0.1989082   0.3405272
   13   0.2729274   0.1756526  -0.0900582
   14   0.2032815   0.4650271  -0.1479609
   15  -0.1081452  -0.1443474   0.2304263
   16   0.0236694   0.0793974  -0.1571906
   17   0.1051948   0.0299136   0.0519127
   18  -0.1573053   0.0257628   0.0815054
   19  -0.0506017   0.1075415   0.0550596
   20   0.0930511   0.1248824  -0.0138894
   21   0.0904503  -0.0420232  -0.0086479
   22   0.0082495  -0.0796894  -0.1183558
   23  -0.0392189  -0.0345445   0.0204081
   24  -0.1316216  -0.0143067   0.0126044
   25  -0.0192237  -0.0311804   0.1161580
   26  -0.0435608  -0.1569664   0.0109853
   27   0.0573628  -0.0495019   0.1037280
   28   0.1355860  -0.0022647  -0.0361279
   29  -0.0571898   0.1464668  -0.0753740
   30  -0.0399360  -0.0208420   0.1326659
   31   0.1124972   0.0313695  -0.0107950
   32   0.0333627   0.1707180   0.0041015
   33  -0.0744338   0.0409869   0.1754605
   34   0.1723870  -0.0484953   0.0071275
   35  -0.0718223   0.1300445  -0.0093441
   36   0.0421037   0.0414434   0.1331688
   37   0.1664126  -0.0092781   0.0361856
   38   0.0062214   0.2074079  -0.0431244
   39   0.0573072   0.0037625   0.1211222
   40   0.0663189   0.0138900  -0.0572777
   41   0.0316903   0.0850906   0.0185110
   42  -0.0655142  -0.0002026   0.0695974
   43   0.0302988   0.0407361   0.0161191
   44   0.0422641   0.1077925  -0.0076089
   45   0.0447996  -0.0258296   0.0677706
   46   0.0348539  -0.0084447  -0.0319146
   47  -0.0001367  -0.0208547   0.0029923
   48  -0.0287082  -0.0073947   0.1278608
   49   0.0529549  -0.0317522   0.0545925
   50  -0.0474031   0.0667291   0.0186769
   51   0.0376612  -0.0065541   0.0840327
   52   0.1082446  -0.0829330  -0.1773709
   53  -0.0006947   0.2121779   0.1521296
   54  -0.1261447   0.2334776   0.2659204
   55  -0.0185389  -0.0720090  -0.0021198
   56  -0.0526256  -0.0082710   0.0545093
   57   0.0223669   0.1015355   0.0893705
   58   0.0084100  -0.0460433  -0.0498086
   59  -0.0624765   0.0327958  -0.1079395
   60  -0.0281024  -0.0614299   0.0118123
   61   0.0346719   0.0063132   0.0572697
   62   0.0005516  -0.0582195   0.0882861
   63   0.0477182   0.0530649   0.0567992
   64   0.0619757  -0.0801601   0.0204144
   65  -0.0284951   0.1736114  -0.0366186
   66  -0.0064526  -0.0171682   0.0397410
   67   0.0193582   0.0822466  -0.1011313
   68   0.0526177  -0.0873146   0.0297608
   69  -0.0794378   0.0126076   0.0538821
   70   0.0524101  -0.0906459  -0.0358517
   71  -0.0661416   0.0421882  -0.0374330
   72  -0.0153568  -0.0511194  -0.0757196
   73  -0.0315722   0.0952287  -0.0129077
   74   0.0475401  -0.0003834   0.0209642
   75  -0.0461309   0.0618322   0.0672663
   76  -0.0140204   0.0683361   0.0793107
   77   0.0409289  -0.0037730  -0.0850284
   78   0.0778715  -0.1078782  -0.0755533
   79  -0.0207734  -0.1223788   0.0358156
   80  -0.0975655  -0.0759712   0.0355415
   81   0.0411374   0.0725911   0.0253441
   82  -0.0091079  -0.0653579  -0.0826977
   83  -0.0655703   0.0010029  -0.0830774
   84  -0.0692111  -0.0579039  -0.0243709
   85   0.0419237  -0.0313159   0.0361545
   86  -0.0342034  -0.0713320   0.1205512
   87   0.0236787   0.0946063  -0.0182087
   88  -0.0172265   0.0148875   0.1238091
   89   0.0011439   0.0543934  -0.0325330
   90   0.1020647  -0.0161486  -0.1296669
   91   0.0441323  -0.0159897  -0.0740899
   92  -0.0067374   0.0165394   0.0540788
   93  -0.0535758   0.0454789   0.0592460
   94  -0.0144532  -0.0357598  -0.0912044
   95  -0.0212588   0.0707334  -0.0020983
   96  -0.0695429  -0.0290095  -0.1362051
   97   0.0414959   0.0376574  -0.0108794
   98   0.0351861   0.1968254   0.0389460
   99   0.0021813   0.0675782   0.0813122
  100   0.0020359   0.0832655   0.0794081
  101   0.0702361   0.0071569  -0.0530382
  102   0.0618161  -0.1011563  -0.0961616
  103  -0.0672172  -0.1399371   0.0223342
  104  -0.0856436  -0.0924356   0.0771762
  105   0.0214166   0.0799940   0.0241124
  106  -0.0635137  -0.0695228  -0.0973645
  107  -0.0632422  -0.0310717  -0.1215754
  108  -0.0496990  -0.0982419  -0.0447824
  109   0.0243570   0.0089283   0.0261958
  110   0.0000840  -0.1217198   0.1524051
  111   0.0365625   0.0954237  -0.0335560
  112   0.0113652  -0.0594159   0.1267534
  113  -0.0541930   0.0550225  -0.0084924
  114   0.0897067  -0.0106668  -0.1145579
  115  -0.0860146   0.1300620  -0.0561584
  116   0.1441852  -0.1706288   0.0473413
  117  -0.0177576  -0.0109634   0.0709464
  118  -0.0198529  -0.0367839  -0.0819197
  119  -0.0198171   0.0536036   0.0241766
  120  -0.0940194  -0.0309105  -0.1897001
  121  -0.0582472   0.1350045   0.0358769
  122   0.0816692  -0.1700615  -0.0024642
  123   0.0208560   0.0139782   0.0551402
  124  -0.0131764   0.0610698   0.1133287
  125   0.0228968   0.0336657  -0.1127410
  126   0.0452911  -0.0952268  -0.1068941
  127  -0.0342853  -0.1147140   0.0151841
  128  -0.1481451  -0.0560774   0.0346283
  129   0.0645923   0.0867583   0.0140057
  130  -0.0411731   0.0939275  -0.1062074
  131   0.1223857  -0.0667577   0.0771772
  132  -0.0993372   0.0493492   0.0101886
  133  -0.0252644  -0.0409114  -0.0729914
  134  -0.0967909  -0.0402302  -0.1074657
  135  -0.1150182  -0.0790377  -0.0022395
  136   0.0338064  -0.0454119   0.0299626
  137   0.0118405  -0.1107066   0.1236804
  138  -0.0161395   0.1365505   0.0069749
  139  -0.0635918   0.0725474   0.1013994
  140   0.0691156   0.0625168  -0.0420040
  141   0.1305607  -0.0554264  -0.0884748
  142  -0.0347646  -0.0387878   0.1107306
  143   0.0060637   0.0491340  -0.0323131
  144   0.1679522   0.0222384  -0.1293015
  145   0.0925220   0.0774208  -0.0106963
  146   0.0214792  -0.0012103   0.0258917
  147  -0.0224220   0.0243386   0.0829279
  148  -0.0697060  -0.0897144  -0.1363576
  149  -0.0630648   0.0304038  -0.0313209
  150  -0.1613616  -0.0550737  -0.0908088
  151  -0.0065544   0.0005670  -0.1271945
  152   0.0044866   0.0905783  -0.0104107
  153  -0.0532553   0.0065078  -0.1571697
  154  -0.0201195   0.1047712   0.0337307
  155   0.1552461  -0.0955661  -0.0125735
  156   0.0085928   0.0355242   0.0499713
  157  -0.0571211  -0.1416992   0.0508045
  158  -0.1565975  -0.0917160   0.0139106
  159   0.0300233  -0.0053203   0.0487328
  160  -1.5980187  -1.1053360   0.2066547
  161  -1.1248040  -2.6510223  -0.0839736
  162   0.2079629  -0.1041288  -0.7759000
  163   0.0076782  -0.1001398  -0.1681710
  164  -0.1190654   0.0956142  -0.0566512
  165  -0.1888192  -0.0406783  -0.0917751
  166  -0.2719729   0.2648930  -0.2314991
  167  -0.2788742  -0.3155603  -0.6173899
  168   0.5168855   0.3341522   0.2359539
  169   0.8039420   1.4400876  -0.2245535
  170   1.4024153   2.0118657   0.0950011
  171  -0.2710544  -0.0026333  -0.5427334
  172  -0.2586415  -0.3229734   0.5673612
  173   0.2485724  -0.3202998   0.3495457
  174  -0.1531764  -0.6255690   0.1823904
  175   0.1319664  -0.0555028  -0.0274148
  176  -0.0437087  -0.0237474   0.2056720
  177  -0.0319174   0.2138156  -0.1442174
  178  -0.1755075  -0.2571117   0.6036472
  179   0.2265323  -0.2840021   0.3362017
  180  -0.1278152  -0.5887587   0.1709448
  181   0.1272096  -0.0385604  -0.0407458
  182  -0.0409766  -0.0302745   0.2130849
  183  -0.0262398   0.1937965  -0.1232584
  184   1.0356704   1.5890232  -0.2736517
  185   1.5516965   2.0378992   0.0007272
  186  -0.3378409  -0.0614048  -0.4873257
  187  -0.2156551   0.2002429  -0.1256503
  188  -0.3294532  -0.3490129  -0.6174686
  189   0.5872808   0.3752028   0.1796351
  190  -1.6679653  -1.2894664   0.1024881
  191  -1.2456075  -2.5400492   0.0575711
  192   0.1427948   0.1152726  -0.6171649
  193  -0.0247792  -0.1085468  -0.2166612
  194  -0.0922230   0.0863982  -0.0347904
  195  -0.1860343  -0.0404058  -0.0884731
 -----------------------------------------
 Net:  -1.00148  -0.99938  -0.99720
 -----------------------------------------

 Call libqints based aoints job 221
atom: 0 element: 7
atom: 1 element: 6
atom: 2 element: 6
atom: 3 element: 6
atom: 4 element: 6
atom: 5 element: 6
atom: 6 element: 6
atom: 7 element: 6
atom: 8 element: 6
atom: 9 element: 6
atom: 10 element: 6
atom: 11 element: 6
atom: 12 element: 6
atom: 13 element: 6
atom: 14 element: 6
atom: 15 element: 6
atom: 16 element: 6
atom: 17 element: 1
atom: 18 element: 1
atom: 19 element: 1
atom: 20 element: 1
atom: 21 element: 1
atom: 22 element: 1
atom: 23 element: 1
atom: 24 element: 1
atom: 25 element: 1
atom: 26 element: 1
atom: 27 element: 1
atom: 28 element: 1
atom: 29 element: 1
atom: 30 element: 1
atom: 31 element: 1
atom: 32 element: 1
atom: 33 element: 1
atom: 34 element: 1
atom: 35 element: 1
atom: 36 element: 1
atom: 37 element: 1
atom: 38 element: 1
atom: 39 element: 1
atom: 40 element: 1
atom: 41 element: 1
atom: 42 element: 1
atom: 43 element: 1
atom: 44 element: 1
atom: 45 element: 1
atom: 46 element: 1
atom: 47 element: 1
atom: 48 element: 1
atom: 49 element: 1
atom: 50 element: 1
atom: 51 element: 1
atom: 52 element: 1
atom: 53 element: 8
atom: 54 element: 1
atom: 55 element: 6
atom: 56 element: 6
atom: 57 element: 6
atom: 58 element: 1
atom: 59 element: 6
atom: 60 element: 1
atom: 61 element: 6
atom: 62 element: 6
atom: 63 element: 8
atom: 64 element: 1
 
 Direct stationary perturbation theory relativistic correction:
 
 rels  =       0.268284697242
 relv  =      -1.673757257270
 rel2e =       0.000000000000
 E_rel =      -1.405472560028
 
 Computing fast CPCM-SWIG hessian
 Gradient time:  CPU 1258854.71 s  wall 79251.87 s
 **********************************************************************
 **                                                                  **
 **                       VIBRATIONAL ANALYSIS                       **
 **                       --------------------                       **
 **                                                                  **
 **        VIBRATIONAL FREQUENCIES (CM**-1) AND NORMAL MODES         **
 **     FORCE CONSTANTS (mDYN/ANGSTROM) AND REDUCED MASSES (AMU)     **
 **                  INFRARED INTENSITIES (KM/MOL)                   **
 **                                                                  **
 **********************************************************************
 

 Mode:                 1                      2                      3
 Frequency:      -127.24                 -58.52                 -56.12
 Force Cnst:      0.0794                 0.0101                 0.0089
 Red. Mass:       8.3199                 5.0189                 4.8032
 IR Active:          YES                    YES                    YES
 IR Intens:       30.802                 19.780                  4.769
 Raman Active:       YES                    YES                    YES
               X      Y      Z        X      Y      Z        X      Y      Z
 N         -0.014 -0.081 -0.029    0.070 -0.007 -0.013    0.031 -0.030  0.017
 C         -0.011 -0.079 -0.040    0.080  0.005 -0.014    0.052  0.009  0.052
 C         -0.010 -0.086 -0.024    0.052 -0.044 -0.023    0.019 -0.025  0.005
 C         -0.020 -0.074 -0.027    0.095 -0.005 -0.029    0.045 -0.064  0.026
 C         -0.017 -0.077 -0.023    0.048  0.012  0.015    0.004 -0.027 -0.013
 C         -0.026 -0.084 -0.026    0.041  0.003  0.020    0.048  0.088  0.019
 C         -0.012 -0.089 -0.021    0.044 -0.074 -0.035    0.011 -0.056 -0.014
 C         -0.023 -0.070 -0.026    0.069  0.007 -0.040    0.027 -0.050  0.040
 C         -0.022 -0.072 -0.028    0.064  0.061  0.025    0.014 -0.036 -0.004
 C         -0.015 -0.078 -0.036    0.048  0.013  0.029    0.064  0.146  0.110
 C         -0.003 -0.074 -0.020    0.008 -0.138 -0.043   -0.007 -0.067 -0.024
 C         -0.052 -0.041 -0.009    0.068  0.029 -0.044   -0.005 -0.020  0.057
 C         -0.014 -0.078 -0.014    0.003  0.109  0.037   -0.003 -0.024 -0.022
 C         -0.026 -0.072 -0.029   -0.006  0.013  0.080    0.068  0.252  0.059
 C          0.003 -0.062 -0.019   -0.003 -0.174 -0.057   -0.016 -0.099 -0.039
 C         -0.087 -0.021 -0.004    0.026  0.055 -0.036   -0.043  0.002  0.058
 C         -0.012 -0.075 -0.012    0.011  0.173  0.042    0.001 -0.029 -0.018
 H          0.005 -0.048 -0.037    0.097  0.036 -0.016    0.053 -0.022  0.065
 H         -0.002 -0.096 -0.064    0.090 -0.016 -0.046    0.069  0.017  0.096
 H         -0.011 -0.083 -0.026    0.024 -0.037 -0.010    0.003 -0.003 -0.004
 H         -0.005 -0.087 -0.022    0.070 -0.054 -0.035    0.032 -0.019  0.021
 H         -0.028 -0.072 -0.035    0.116 -0.016 -0.003    0.053 -0.083  0.042
 H         -0.019 -0.069 -0.020    0.114  0.001 -0.048    0.057 -0.070 -0.002
 H         -0.014 -0.082 -0.023    0.029  0.007  0.027   -0.011  0.007 -0.022
 H         -0.019 -0.075 -0.015    0.037 -0.000  0.017   -0.008 -0.053 -0.036
 H         -0.036 -0.102 -0.023    0.010 -0.023  0.013    0.042  0.142 -0.017
 H         -0.033 -0.070 -0.011    0.037  0.025  0.053    0.038  0.065 -0.038
 H         -0.018 -0.093 -0.012    0.077 -0.071 -0.067    0.031 -0.071 -0.015
 H         -0.014 -0.094 -0.029    0.028 -0.049 -0.004   -0.002 -0.055 -0.017
 H         -0.002 -0.078 -0.013    0.065  0.011 -0.043    0.049 -0.044  0.052
 H         -0.030 -0.078 -0.052    0.050 -0.006 -0.036    0.014 -0.063  0.024
 H         -0.027 -0.053 -0.026    0.077  0.033  0.020    0.021 -0.064 -0.006
 H         -0.029 -0.079 -0.046    0.106  0.089  0.034    0.026 -0.027  0.020
 H         -0.004 -0.061 -0.038    0.094  0.045  0.041    0.061  0.075  0.148
 H         -0.005 -0.092 -0.047    0.052 -0.013 -0.015    0.074  0.180  0.188
 H          0.006 -0.075 -0.026   -0.030 -0.136 -0.011   -0.028 -0.052 -0.023
 H         -0.010 -0.069 -0.013    0.026 -0.161 -0.072    0.007 -0.068 -0.020
 H         -0.071 -0.048 -0.020    0.073  0.005 -0.040   -0.025 -0.028  0.045
 H         -0.032 -0.021  0.010    0.094  0.050 -0.054    0.017  0.001  0.079
 H         -0.015 -0.090 -0.013   -0.004  0.129  0.040   -0.007 -0.000 -0.020
 H         -0.007 -0.073 -0.007   -0.046  0.078  0.042   -0.016 -0.032 -0.039
 H         -0.034 -0.083 -0.029   -0.052 -0.020  0.068    0.069  0.319  0.025
 H         -0.034 -0.061 -0.023   -0.009  0.040  0.125    0.054  0.224 -0.014
 H         -0.016 -0.066 -0.032   -0.001  0.020  0.086    0.081  0.293  0.126
 H         -0.005 -0.059 -0.016    0.036 -0.177 -0.089    0.006 -0.114 -0.042
 H          0.011 -0.066 -0.023   -0.022 -0.152 -0.028   -0.030 -0.098 -0.042
 H          0.006 -0.054 -0.019   -0.033 -0.219 -0.064   -0.030 -0.108 -0.047
 H         -0.068 -0.008  0.008    0.016  0.086 -0.044   -0.017  0.008  0.075
 H         -0.121 -0.051 -0.027   -0.003  0.034 -0.016   -0.075 -0.028  0.022
 H         -0.114  0.013  0.010    0.030  0.065 -0.042   -0.075  0.042  0.075
 H         -0.011 -0.065 -0.013    0.017  0.156  0.039    0.004 -0.051 -0.019
 H         -0.018 -0.079 -0.018    0.060  0.206  0.037    0.013 -0.020 -0.001
 H         -0.007 -0.079 -0.005   -0.035  0.208  0.056   -0.010 -0.020 -0.030
 O          0.194  0.032 -0.051   -0.151  0.023 -0.107    0.075 -0.070  0.082
 H          0.184  0.067 -0.037   -0.093  0.116 -0.025   -0.093 -0.112  0.041
 C          0.132  0.094 -0.004   -0.083  0.054 -0.014   -0.067 -0.064  0.005
 C          0.140  0.071 -0.020   -0.098 -0.010 -0.063    0.019 -0.034  0.029
 C          0.049  0.169  0.060   -0.080  0.058  0.058   -0.120 -0.032 -0.062
 H          0.019  0.196  0.078   -0.089  0.124  0.102   -0.185 -0.058 -0.078
 C          0.088  0.109  0.012   -0.063 -0.103 -0.059    0.038  0.036 -0.015
 H          0.108  0.092 -0.001   -0.055 -0.167 -0.105    0.099  0.064  0.002
 C         -0.036  0.240  0.112   -0.082 -0.005  0.083   -0.097  0.037 -0.108
 C          0.006  0.176  0.070   -0.055 -0.103  0.010   -0.016  0.072 -0.080
 O         -0.168  0.362  0.212   -0.114  0.026  0.168   -0.152  0.073 -0.174
 H         -0.053  0.210  0.111   -0.041 -0.172  0.017    0.002  0.130 -0.111
 TransDip  -0.029 -0.169 -0.048    0.137 -0.020 -0.033    0.048 -0.015  0.049

 Mode:                 4                      5                      6
 Frequency:       -39.19                  24.41                  32.07
 Force Cnst:      0.0044                 0.0012                 0.0021
 Red. Mass:       4.8293                 3.4522                 3.5146
 IR Active:          YES                    YES                    YES
 IR Intens:       12.552                  2.918                  1.265
 Raman Active:       YES                    YES                    YES
               X      Y      Z        X      Y      Z        X      Y      Z
 N         -0.006  0.013 -0.036    0.034 -0.011 -0.006   -0.030 -0.048 -0.003
 C         -0.007  0.002 -0.055    0.032 -0.013 -0.004   -0.009 -0.030 -0.007
 C         -0.004 -0.003 -0.027    0.036  0.005 -0.005   -0.031 -0.071  0.005
 C         -0.012  0.029 -0.041    0.026 -0.020  0.003   -0.026 -0.044 -0.007
 C         -0.009  0.023 -0.012    0.037 -0.014 -0.010   -0.049 -0.036  0.005
 C          0.005 -0.020 -0.056   -0.010 -0.032  0.043    0.000  0.010 -0.034
 C         -0.004  0.011 -0.011    0.030 -0.008 -0.012   -0.013 -0.010  0.033
 C         -0.011  0.025 -0.047    0.022 -0.015  0.025   -0.006 -0.060 -0.030
 C          0.026  0.063  0.016    0.014  0.005 -0.030   -0.018 -0.012  0.030
 C          0.023 -0.037 -0.120   -0.065 -0.048  0.098    0.007  0.047  0.027
 C         -0.004 -0.014 -0.003    0.050  0.051 -0.015    0.052  0.073  0.057
 C         -0.018  0.027 -0.042   -0.026 -0.009  0.063    0.035 -0.073 -0.061
 C         -0.074  0.144  0.021   -0.070  0.072 -0.084   -0.052  0.016  0.062
 C          0.072 -0.067 -0.152   -0.163 -0.074  0.202   -0.013  0.115  0.016
 C         -0.006 -0.010  0.011    0.056  0.062 -0.020    0.110  0.231  0.102
 C         -0.038  0.041 -0.027   -0.031 -0.001  0.098    0.038 -0.080 -0.090
 C         -0.059  0.246  0.032   -0.117  0.141 -0.127   -0.030  0.068  0.081
 H         -0.007  0.007 -0.059    0.055  0.010  0.001   -0.021 -0.036 -0.012
 H         -0.008 -0.000 -0.062    0.028 -0.028 -0.041    0.009 -0.032  0.017
 H          0.001 -0.020 -0.015    0.036  0.025 -0.024   -0.016 -0.115  0.034
 H         -0.006 -0.012 -0.045    0.045  0.016  0.018   -0.056 -0.087 -0.037
 H         -0.017  0.036 -0.049    0.021 -0.031  0.001   -0.025 -0.019 -0.015
 H         -0.014  0.033 -0.030    0.026 -0.022 -0.001   -0.041 -0.047  0.008
 H         -0.039  0.021  0.004    0.056 -0.024 -0.015   -0.081 -0.020  0.014
 H         -0.010  0.014 -0.030    0.035 -0.006  0.011   -0.055 -0.055 -0.021
 H          0.019 -0.050 -0.029   -0.046 -0.023  0.013    0.003  0.048 -0.053
 H         -0.008 -0.002 -0.045    0.027 -0.043  0.080   -0.004 -0.007 -0.072
 H         -0.006  0.026 -0.025    0.018 -0.032  0.024   -0.068  0.008  0.062
 H         -0.003  0.023  0.009    0.026 -0.034 -0.053    0.017 -0.032  0.010
 H         -0.007  0.022 -0.045    0.057 -0.012  0.047   -0.038 -0.067 -0.048
 H         -0.010  0.024 -0.052    0.018 -0.021 -0.001    0.006 -0.047 -0.009
 H          0.058 -0.001  0.002   -0.004 -0.057 -0.017    0.008 -0.022  0.017
 H          0.099  0.113  0.064    0.074  0.045 -0.010    0.005  0.003  0.040
 H         -0.016 -0.018 -0.157    0.007 -0.037  0.142    0.025  0.015  0.058
 H          0.038 -0.045 -0.112   -0.109 -0.052  0.025    0.013  0.059  0.059
 H         -0.004 -0.025  0.010    0.070  0.064 -0.047    0.147  0.007  0.048
 H         -0.001 -0.026 -0.020    0.041  0.076  0.020   -0.030  0.087  0.056
 H         -0.021  0.009 -0.044   -0.062 -0.018  0.041    0.066 -0.068 -0.042
 H         -0.006  0.037 -0.049   -0.022 -0.002  0.087    0.029 -0.081 -0.084
 H         -0.087  0.188  0.027   -0.031  0.121 -0.108   -0.070  0.017  0.073
 H         -0.158  0.090  0.020   -0.140  0.028 -0.068   -0.080 -0.002  0.066
 H          0.114 -0.081 -0.118   -0.243 -0.089  0.158   -0.032  0.142 -0.010
 H          0.059 -0.063 -0.167   -0.118 -0.069  0.284   -0.024  0.109 -0.011
 H          0.084 -0.079 -0.198   -0.206 -0.086  0.245   -0.002  0.144  0.061
 H         -0.005  0.000 -0.001    0.036  0.052  0.010    0.010  0.306  0.110
 H         -0.010  0.002  0.029    0.067  0.039 -0.053    0.199  0.221  0.109
 H         -0.005 -0.029  0.017    0.072  0.103 -0.021    0.166  0.289  0.124
 H         -0.038  0.061 -0.027    0.004  0.009  0.121    0.017 -0.092 -0.103
 H         -0.051  0.031 -0.016   -0.036 -0.007  0.077    0.036 -0.082 -0.086
 H         -0.041  0.041 -0.025   -0.065  0.001  0.125    0.056 -0.071 -0.107
 H         -0.047  0.210  0.026   -0.158  0.097 -0.105   -0.011  0.069  0.071
 H          0.025  0.303  0.029   -0.046  0.189 -0.150   -0.000  0.088  0.076
 H         -0.140  0.307  0.051   -0.183  0.192 -0.159   -0.059  0.090  0.110
 O          0.145 -0.145  0.142    0.054 -0.035 -0.037    0.028 -0.037 -0.071
 H          0.007 -0.174  0.112    0.077 -0.064 -0.058   -0.069  0.065  0.007
 C          0.008 -0.123  0.096    0.051 -0.041 -0.046   -0.035  0.027 -0.009
 C          0.073 -0.099  0.115    0.034 -0.021 -0.031    0.020 -0.031 -0.052
 C         -0.042 -0.090  0.054    0.042 -0.035 -0.046   -0.053  0.043  0.018
 H         -0.080 -0.117  0.037    0.061 -0.055 -0.060   -0.102  0.096  0.055
 C          0.058 -0.025  0.100   -0.004  0.012 -0.012    0.069 -0.084 -0.075
 H          0.095  0.002  0.117   -0.023  0.031  0.002    0.121 -0.140 -0.117
 C         -0.042 -0.027  0.030    0.008 -0.005 -0.029   -0.013 -0.002  0.001
 C          0.004  0.011  0.060   -0.018  0.022 -0.010    0.055 -0.073 -0.050
 O         -0.077 -0.006 -0.015    0.003 -0.002 -0.031   -0.040  0.022  0.031
 H         -0.000  0.070  0.047   -0.046  0.049  0.005    0.095 -0.118 -0.071
 TransDip  -0.031  0.086 -0.067   -0.021  0.028  0.042   -0.012  0.004  0.034

 Mode:                 7                      8                      9
 Frequency:        39.52                  52.15                  56.18
 Force Cnst:      0.0032                 0.0051                 0.0058
 Red. Mass:       3.4311                 3.2031                 3.1174
 IR Active:          YES                    YES                    YES
 IR Intens:        0.357                 10.505                  4.759
 Raman Active:       YES                    YES                    YES
               X      Y      Z        X      Y      Z        X      Y      Z
 N         -0.007 -0.034 -0.004   -0.008  0.022 -0.041   -0.014  0.040 -0.045
 C         -0.008 -0.029  0.008   -0.002  0.016 -0.053   -0.006  0.041 -0.060
 C         -0.022 -0.026 -0.018    0.007  0.009 -0.020    0.005  0.046 -0.026
 C          0.004 -0.044 -0.005   -0.027  0.039 -0.039   -0.035  0.024 -0.026
 C         -0.009 -0.030  0.004   -0.009  0.023 -0.039   -0.022  0.040 -0.057
 C          0.012  0.000 -0.024    0.024  0.044 -0.088   -0.023  0.021 -0.036
 C         -0.010 -0.025 -0.051    0.003  0.039  0.032   -0.020  0.012 -0.006
 C         -0.001 -0.038  0.016   -0.033  0.041 -0.047    0.016  0.002  0.021
 C          0.046 -0.010  0.053    0.004  0.016 -0.029    0.015  0.039 -0.026
 C          0.002  0.014  0.016   -0.087  0.042  0.076    0.008  0.014 -0.094
 C         -0.016  0.050 -0.079    0.009 -0.088  0.077    0.002  0.010  0.011
 C         -0.059 -0.029  0.061   -0.035  0.060 -0.052   -0.049 -0.060  0.092
 C          0.009  0.020  0.113    0.042 -0.013  0.006    0.050  0.014  0.047
 C          0.066  0.064 -0.064   -0.096  0.097  0.060   -0.093 -0.043  0.023
 C          0.009  0.075 -0.128   -0.012 -0.080  0.159   -0.034 -0.050  0.039
 C         -0.074 -0.015  0.107   -0.057  0.071 -0.061   -0.012 -0.066  0.211
 C          0.066  0.084  0.161    0.072 -0.034  0.033    0.131  0.002  0.117
 H         -0.024 -0.053  0.008   -0.027 -0.013 -0.058    0.001  0.057 -0.061
 H         -0.009 -0.014  0.040   -0.003  0.032 -0.019    0.000  0.029 -0.080
 H         -0.031 -0.021 -0.015    0.025 -0.019 -0.008    0.011  0.071 -0.053
 H         -0.033 -0.020 -0.012    0.003 -0.003 -0.045    0.035  0.054  0.001
 H          0.011 -0.049  0.004   -0.039  0.043 -0.054   -0.053  0.046 -0.054
 H          0.006 -0.049 -0.018   -0.027  0.049 -0.021   -0.072  0.004 -0.006
 H         -0.056 -0.013  0.020   -0.018  0.028 -0.036   -0.049  0.060 -0.053
 H         -0.007 -0.046 -0.037   -0.009  0.018 -0.049   -0.025  0.023 -0.086
 H          0.028  0.046 -0.039    0.045  0.184 -0.154   -0.042 -0.043 -0.012
 H          0.018 -0.028 -0.068    0.098 -0.056 -0.159   -0.047  0.065  0.009
 H         -0.015 -0.045 -0.025    0.005  0.091 -0.026   -0.021 -0.011  0.020
 H          0.007 -0.055 -0.091   -0.005  0.095  0.115   -0.051  0.006 -0.025
 H          0.038 -0.035  0.040   -0.034  0.040 -0.048    0.071 -0.003  0.056
 H         -0.006 -0.046 -0.011   -0.037  0.035 -0.054    0.048  0.026 -0.008
 H          0.093 -0.021  0.027    0.016  0.046 -0.036    0.049  0.075 -0.046
 H          0.063  0.003  0.077   -0.020 -0.000 -0.036   -0.008  0.025 -0.027
 H         -0.048 -0.062  0.025   -0.088 -0.104  0.158    0.087  0.131 -0.108
 H         -0.003  0.065  0.102   -0.168  0.146  0.146    0.027 -0.069 -0.217
 H         -0.005  0.061 -0.100    0.003 -0.136  0.135   -0.005  0.045 -0.021
 H         -0.053  0.082 -0.042    0.038 -0.149 -0.006    0.053  0.018  0.037
 H         -0.104 -0.044  0.034   -0.034  0.055 -0.051   -0.105 -0.099  0.059
 H         -0.049 -0.017  0.089   -0.021  0.072 -0.050   -0.070 -0.078  0.096
 H         -0.037  0.020  0.139    0.017 -0.040  0.021   -0.013 -0.014  0.083
 H         -0.021  0.001  0.104    0.071  0.005  0.000    0.079  0.030  0.020
 H          0.118  0.145 -0.074   -0.101  0.244 -0.020   -0.177 -0.178  0.041
 H          0.071  0.011 -0.154   -0.016 -0.006 -0.003   -0.117  0.050  0.157
 H          0.057  0.073 -0.030   -0.179  0.096  0.192   -0.062 -0.047 -0.033
 H         -0.002  0.067 -0.108   -0.008 -0.034  0.103   -0.025 -0.087  0.072
 H          0.050  0.045 -0.166   -0.047 -0.019  0.246   -0.088 -0.057  0.014
 H          0.002  0.133 -0.150   -0.001 -0.180  0.196   -0.016 -0.055  0.052
 H         -0.031  0.004  0.134   -0.065  0.077 -0.066    0.046 -0.026  0.248
 H         -0.085 -0.027  0.082   -0.068  0.062 -0.056    0.010 -0.048  0.214
 H         -0.116 -0.010  0.140   -0.052  0.082 -0.067   -0.062 -0.126  0.266
 H          0.113  0.087  0.135    0.098 -0.009  0.019    0.199  0.026  0.080
 H          0.098  0.107  0.170    0.042 -0.054  0.041    0.105 -0.014  0.151
 H          0.031  0.109  0.215    0.099 -0.055  0.059    0.150 -0.015  0.175
 O         -0.040  0.018 -0.062    0.071 -0.069 -0.061    0.064 -0.044 -0.051
 H          0.182 -0.092 -0.142    0.134 -0.086 -0.070   -0.090  0.062  0.029
 C          0.103 -0.056 -0.092    0.082 -0.063 -0.038   -0.048  0.033  0.005
 C         -0.014  0.001 -0.050    0.039 -0.047 -0.028    0.025 -0.018 -0.033
 C          0.120 -0.068 -0.069    0.074 -0.056 -0.013   -0.065  0.046  0.011
 H          0.212 -0.116 -0.103    0.121 -0.075 -0.026   -0.117  0.087  0.040
 C         -0.105  0.042  0.013   -0.032 -0.014  0.019    0.062 -0.047 -0.056
 H         -0.196  0.088  0.050   -0.074  0.001  0.032    0.115 -0.087 -0.087
 C          0.013 -0.015  0.003    0.012 -0.030  0.030   -0.008  0.002 -0.022
 C         -0.094  0.037  0.039   -0.045 -0.004  0.048    0.047 -0.036 -0.050
 O          0.015 -0.014  0.034    0.014 -0.032  0.051   -0.003 -0.003 -0.028
 H         -0.177  0.078  0.095   -0.097  0.024  0.083    0.089 -0.068 -0.076
 TransDip  -0.002 -0.008  0.017   -0.063  0.083  0.002   -0.037  0.050  0.032

 Mode:                10                     11                     12
 Frequency:        68.22                  82.50                  89.42
 Force Cnst:      0.0049                 0.0078                 0.0147
 Red. Mass:       1.7775                 1.9361                 3.1229
 IR Active:          YES                    YES                    YES
 IR Intens:        0.604                 10.430                 24.122
 Raman Active:       YES                    YES                    YES
               X      Y      Z        X      Y      Z        X      Y      Z
 N          0.002 -0.018 -0.008   -0.007  0.003  0.030   -0.004  0.004  0.046
 C          0.013 -0.004 -0.003   -0.005 -0.006  0.013   -0.012 -0.010  0.043
 C          0.002 -0.024 -0.008   -0.004  0.007  0.036   -0.022  0.005  0.035
 C          0.006 -0.023 -0.008   -0.016  0.022  0.026    0.007  0.019  0.031
 C         -0.012 -0.013 -0.016   -0.002  0.003  0.037    0.012  0.000  0.059
 C         -0.040 -0.003  0.042   -0.005 -0.009  0.015   -0.010 -0.018  0.047
 C          0.005 -0.012 -0.002   -0.027 -0.047  0.021   -0.003  0.031  0.010
 C         -0.019 -0.009 -0.013   -0.005  0.009 -0.003   -0.023  0.033  0.015
 C         -0.003 -0.010 -0.008   -0.024  0.006  0.017   -0.007 -0.010  0.043
 C          0.130  0.058 -0.102    0.035  0.011 -0.008    0.033 -0.003  0.008
 C          0.007 -0.029  0.005    0.043  0.159  0.009   -0.108 -0.097 -0.026
 C         -0.021  0.023 -0.022   -0.014  0.057 -0.010   -0.077  0.099  0.042
 C         -0.007 -0.008 -0.006    0.003 -0.015  0.025   -0.002 -0.015  0.011
 C         -0.051  0.050  0.068    0.010  0.030  0.007    0.060  0.014 -0.023
 C          0.031  0.034  0.019   -0.057 -0.084 -0.027   -0.019  0.062 -0.087
 C         -0.045  0.032 -0.051   -0.023  0.054 -0.065   -0.122  0.126  0.046
 C          0.018 -0.025  0.015   -0.025 -0.010  0.001   -0.058 -0.020 -0.037
 H          0.045  0.031  0.004   -0.010 -0.002  0.007   -0.016 -0.010  0.042
 H          0.025 -0.030 -0.040   -0.003 -0.010  0.008   -0.018 -0.011  0.034
 H          0.003 -0.032 -0.003   -0.013  0.044  0.009   -0.026 -0.011  0.053
 H         -0.002 -0.028 -0.016    0.027  0.017  0.069   -0.044  0.000  0.017
 H          0.011 -0.037  0.002   -0.024  0.042  0.011    0.015  0.005  0.045
 H          0.021 -0.017 -0.020   -0.025  0.027  0.050    0.033  0.033  0.019
 H         -0.026  0.002 -0.017    0.018 -0.013  0.034    0.027 -0.015  0.058
 H         -0.019 -0.027 -0.028   -0.001  0.015  0.061    0.020  0.016  0.072
 H         -0.093 -0.177  0.104   -0.013 -0.038  0.026   -0.016 -0.054  0.063
 H         -0.152  0.137  0.125   -0.029  0.017  0.024   -0.037  0.010  0.058
 H          0.003  0.004 -0.016   -0.065 -0.145  0.160    0.048  0.087 -0.096
 H          0.012 -0.001  0.017   -0.058 -0.143 -0.136    0.031  0.090  0.111
 H         -0.022 -0.002 -0.016    0.007 -0.026  0.008    0.014  0.018  0.039
 H         -0.037 -0.024 -0.015   -0.002  0.007 -0.042   -0.042  0.008 -0.039
 H          0.004 -0.016 -0.012   -0.041  0.039  0.024   -0.025 -0.014  0.053
 H          0.001 -0.007 -0.002   -0.039 -0.006 -0.013   -0.006 -0.011  0.036
 H          0.279  0.317 -0.149    0.057  0.051 -0.016    0.018  0.018 -0.014
 H          0.252 -0.147 -0.294    0.065 -0.023 -0.027    0.067 -0.022  0.025
 H          0.026 -0.070  0.035    0.028  0.370 -0.212   -0.133 -0.232  0.145
 H         -0.027 -0.045 -0.030    0.185  0.292  0.246   -0.237 -0.181 -0.186
 H         -0.019  0.031 -0.021   -0.017  0.092 -0.013   -0.111  0.092  0.020
 H         -0.006  0.037 -0.009   -0.010  0.065  0.026   -0.046  0.131  0.084
 H         -0.025  0.008  0.004    0.026 -0.050  0.014    0.040 -0.022 -0.013
 H         -0.007 -0.009 -0.032    0.023 -0.001  0.061    0.001 -0.012  0.040
 H         -0.208 -0.245  0.123   -0.013 -0.017  0.018    0.080 -0.006  0.001
 H         -0.190  0.284  0.277   -0.026  0.073  0.028    0.023  0.035 -0.044
 H          0.105  0.107 -0.060    0.049  0.050 -0.013    0.097  0.028 -0.054
 H          0.011  0.080 -0.014   -0.043 -0.311  0.217    0.010  0.209 -0.281
 H          0.068  0.053  0.058   -0.206 -0.228 -0.290    0.115  0.155  0.093
 H          0.034  0.019  0.025    0.002  0.095 -0.038   -0.113 -0.053 -0.118
 H         -0.046  0.022 -0.051   -0.020  0.017 -0.063   -0.079  0.127  0.074
 H         -0.060  0.018 -0.069   -0.028  0.046 -0.104   -0.144  0.101 -0.002
 H         -0.047  0.063 -0.057   -0.025  0.096 -0.072   -0.165  0.167  0.072
 H          0.038 -0.042  0.004   -0.049  0.028  0.013   -0.106 -0.008 -0.012
 H          0.019 -0.022  0.044   -0.048 -0.028 -0.038   -0.067 -0.027 -0.073
 H          0.015 -0.022  0.014   -0.002 -0.029  0.007   -0.046 -0.028 -0.065
 O         -0.008  0.002  0.018    0.052 -0.049 -0.058    0.094 -0.061 -0.105
 H          0.042 -0.035 -0.010    0.027 -0.010 -0.028   -0.025  0.068 -0.007
 C          0.023 -0.023 -0.000    0.020 -0.016 -0.022    0.000  0.031 -0.016
 C         -0.008  0.001  0.018    0.029 -0.033 -0.036    0.054 -0.032 -0.064
 C          0.031 -0.031 -0.007    0.010 -0.006 -0.002   -0.010  0.041  0.017
 H          0.059 -0.054 -0.024    0.008  0.007  0.007   -0.040  0.090  0.051
 C         -0.039  0.027  0.035    0.018 -0.040 -0.026    0.075 -0.078 -0.068
 H         -0.070  0.052  0.055    0.024 -0.058 -0.039    0.114 -0.134 -0.110
 C          0.004 -0.009  0.007    0.002 -0.015  0.007    0.032 -0.021  0.002
 C         -0.035  0.024  0.031    0.005 -0.030 -0.005    0.063 -0.070 -0.035
 O          0.015 -0.019 -0.001   -0.005 -0.010  0.024    0.056 -0.040  0.017
 H         -0.061  0.046  0.046    0.003 -0.038 -0.001    0.099 -0.118 -0.052
 TransDip   0.003  0.002 -0.025   -0.046  0.073  0.057   -0.095  0.086  0.091

 Mode:                13                     14                     15
 Frequency:        99.70                 102.37                 113.77
 Force Cnst:      0.0228                 0.0098                 0.0208
 Red. Mass:       3.9009                 1.5861                 2.7332
 IR Active:          YES                    YES                    YES
 IR Intens:        7.937                  1.618                  0.658
 Raman Active:       YES                    YES                    YES
               X      Y      Z        X      Y      Z        X      Y      Z
 N         -0.018  0.064  0.050    0.002  0.000 -0.010   -0.011 -0.017 -0.007
 C         -0.021  0.051  0.041    0.010  0.003 -0.021   -0.062 -0.042  0.047
 C         -0.030  0.065  0.047    0.002 -0.016 -0.006   -0.007  0.070 -0.027
 C         -0.007  0.059  0.048   -0.001  0.011 -0.014   -0.020 -0.030  0.003
 C         -0.012  0.062  0.051   -0.005  0.007  0.003    0.054 -0.062 -0.042
 C          0.001  0.033  0.030    0.016  0.007 -0.028   -0.076 -0.037  0.056
 C         -0.024  0.073  0.031   -0.007 -0.035 -0.006    0.046  0.182 -0.020
 C          0.048  0.028  0.045    0.015  0.001 -0.016   -0.062 -0.001  0.026
 C         -0.036  0.044  0.031   -0.045  0.029 -0.040    0.128 -0.117  0.029
 C          0.032  0.020 -0.041    0.008  0.009 -0.012    0.003  0.002  0.006
 C         -0.102 -0.015  0.004   -0.004 -0.020 -0.009    0.017  0.046  0.004
 C          0.139 -0.061 -0.006    0.001 -0.006 -0.002   -0.008 -0.043 -0.010
 C          0.007  0.009  0.003    0.105 -0.088  0.102    0.062 -0.063  0.038
 C          0.001 -0.033  0.012   -0.019  0.012  0.011    0.010  0.052 -0.023
 C         -0.068  0.033 -0.043    0.017  0.021 -0.018   -0.056 -0.078  0.062
 C          0.195 -0.092 -0.006    0.005 -0.005  0.022    0.004 -0.052 -0.015
 C         -0.026 -0.049 -0.024   -0.060  0.062 -0.044   -0.027  0.115 -0.043
 H         -0.043  0.023  0.036    0.007  0.008 -0.026   -0.050 -0.073  0.070
 H         -0.029  0.064  0.058    0.017  0.000 -0.018   -0.098 -0.016  0.054
 H         -0.030  0.056  0.055   -0.005 -0.006 -0.009    0.040  0.016 -0.012
 H         -0.041  0.061  0.036    0.018 -0.018 -0.003   -0.098  0.082 -0.042
 H         -0.008  0.085  0.040   -0.006  0.028 -0.025   -0.015 -0.073  0.021
 H         -0.034  0.039  0.055   -0.013  0.010  0.002    0.010 -0.022 -0.027
 H          0.007  0.052  0.046    0.029 -0.022 -0.000    0.003 -0.021 -0.035
 H         -0.010  0.070  0.066   -0.009  0.022  0.053    0.089 -0.058 -0.133
 H          0.010 -0.008  0.059    0.021  0.023 -0.034   -0.090 -0.096  0.079
 H         -0.023  0.060  0.042    0.023 -0.004 -0.038   -0.123  0.013  0.075
 H          0.016  0.101 -0.035   -0.005 -0.048  0.007    0.044  0.278 -0.121
 H         -0.010  0.110  0.093   -0.018 -0.042 -0.020    0.105  0.247  0.099
 H         -0.011  0.026  0.008    0.026 -0.010 -0.008   -0.108  0.059 -0.007
 H          0.088  0.068  0.105    0.023  0.008 -0.026   -0.082 -0.010  0.097
 H         -0.058  0.061  0.042   -0.084  0.221 -0.029    0.186 -0.183  0.001
 H         -0.057  0.029  0.015   -0.154 -0.052 -0.179    0.150 -0.096  0.107
 H          0.055  0.100 -0.072    0.027  0.012 -0.001    0.005  0.050 -0.021
 H          0.053 -0.034 -0.109    0.001  0.006 -0.027    0.067 -0.045  0.017
 H         -0.140 -0.073  0.101    0.009 -0.039 -0.001   -0.044  0.066  0.035
 H         -0.153 -0.065 -0.083   -0.033 -0.019 -0.016    0.113 -0.003 -0.041
 H          0.201 -0.063  0.034   -0.011 -0.013 -0.009    0.033 -0.057  0.018
 H          0.102 -0.102 -0.080   -0.001 -0.007  0.001   -0.016 -0.056 -0.060
 H          0.031 -0.003 -0.010    0.234 -0.369  0.037    0.128 -0.096  0.001
 H          0.041  0.031  0.008    0.213 -0.005  0.390   -0.003 -0.098  0.151
 H         -0.028 -0.139  0.050   -0.042  0.003  0.001    0.012 -0.003  0.008
 H         -0.031  0.038  0.092   -0.016  0.019  0.031   -0.066  0.111 -0.038
 H          0.036 -0.041 -0.060   -0.021  0.015  0.021    0.090  0.093 -0.065
 H         -0.025  0.095 -0.154    0.004  0.045 -0.032    0.006 -0.116  0.047
 H         -0.016  0.087  0.055    0.051  0.023 -0.006   -0.175 -0.035  0.100
 H         -0.135 -0.047 -0.066    0.014  0.029 -0.022   -0.061 -0.186  0.089
 H          0.108 -0.074 -0.062    0.016  0.006  0.028   -0.038 -0.044 -0.042
 H          0.227 -0.054  0.099    0.007 -0.003  0.025    0.013 -0.040  0.030
 H          0.281 -0.169 -0.058   -0.004 -0.016  0.032    0.043 -0.077 -0.042
 H         -0.052 -0.035 -0.009   -0.197  0.401  0.030   -0.106  0.183 -0.000
 H         -0.068 -0.078 -0.031   -0.198 -0.049 -0.375    0.035  0.150 -0.188
 H          0.017 -0.080 -0.052    0.083 -0.051  0.096   -0.082  0.155 -0.005
 O          0.053 -0.082 -0.076   -0.007  0.002  0.024    0.004  0.004 -0.027
 H          0.146 -0.146 -0.124   -0.007 -0.009  0.016   -0.002  0.024 -0.014
 C          0.084 -0.105 -0.090   -0.006 -0.005  0.014   -0.002  0.018 -0.012
 C          0.033 -0.067 -0.063   -0.006  0.000  0.019   -0.001  0.009 -0.019
 C          0.050 -0.080 -0.067   -0.005 -0.007  0.007   -0.001  0.019 -0.004
 H          0.083 -0.104 -0.084   -0.005 -0.012  0.003   -0.001  0.026 -0.000
 C         -0.029 -0.026 -0.027   -0.006  0.007  0.017   -0.003  0.004 -0.016
 H         -0.058 -0.009 -0.014   -0.008  0.014  0.023   -0.002 -0.003 -0.021
 C         -0.053 -0.004 -0.006   -0.003 -0.002  0.004    0.003  0.009 -0.004
 C         -0.067  0.004 -0.001   -0.005  0.006  0.010   -0.000  0.002 -0.008
 O         -0.143  0.067  0.046   -0.001 -0.004 -0.004    0.009  0.005  0.002
 H         -0.133  0.053  0.039   -0.006  0.012  0.009    0.001 -0.006 -0.007
 TransDip   0.014  0.066  0.060    0.010 -0.023 -0.032   -0.010 -0.007  0.023

 Mode:                16                     17                     18
 Frequency:       126.66                 141.01                 147.36
 Force Cnst:      0.0253                 0.0228                 0.0504
 Red. Mass:       2.6752                 1.9438                 3.9362
 IR Active:          YES                    YES                    YES
 IR Intens:        0.693                  1.520                 22.217
 Raman Active:       YES                    YES                    YES
               X      Y      Z        X      Y      Z        X      Y      Z
 N          0.006  0.017 -0.028   -0.011 -0.008  0.007    0.013 -0.009  0.001
 C         -0.014  0.024  0.022   -0.015 -0.017  0.004    0.031  0.002 -0.011
 C         -0.025  0.008 -0.057   -0.030 -0.038 -0.005    0.014 -0.026  0.009
 C          0.057  0.006 -0.047    0.015  0.014 -0.021    0.002 -0.003  0.001
 C          0.008  0.025 -0.010   -0.006 -0.000  0.044   -0.000 -0.001  0.005
 C         -0.172 -0.020  0.180    0.037 -0.001 -0.051   -0.037 -0.022  0.063
 C         -0.061 -0.064 -0.055    0.003  0.033 -0.000    0.009 -0.033  0.011
 C          0.072 -0.004 -0.055    0.015  0.014 -0.043   -0.016  0.011  0.002
 C         -0.008  0.042 -0.028   -0.001 -0.002  0.052   -0.033  0.024 -0.029
 C         -0.073  0.000  0.066    0.023  0.001 -0.027   -0.011 -0.013  0.043
 C          0.024 -0.021 -0.004    0.008  0.034  0.003    0.006 -0.008  0.001
 C          0.031  0.001 -0.020    0.100 -0.064 -0.090    0.103 -0.078 -0.073
 C          0.031  0.012 -0.018   -0.011  0.002  0.012   -0.015  0.010 -0.005
 C          0.059  0.024 -0.066   -0.020  0.005  0.011    0.038  0.008 -0.011
 C          0.011  0.027  0.120   -0.015 -0.011  0.012    0.017 -0.005 -0.030
 C         -0.014  0.039  0.060   -0.099  0.081  0.111    0.006 -0.010  0.017
 C          0.023 -0.015 -0.025   -0.041 -0.039 -0.014    0.012  0.003  0.019
 H          0.094  0.103  0.062   -0.048 -0.053 -0.005    0.076  0.068 -0.004
[...]
 C          0.034 -0.085  0.016   -0.000 -0.000  0.000   -0.000  0.001 -0.000
 C          0.000  0.000 -0.000    0.028 -0.010 -0.088    0.003 -0.002 -0.010
 C          0.001 -0.001  0.000   -0.008  0.004 -0.003    0.074 -0.041  0.024
 C          0.001  0.002  0.000   -0.000 -0.000 -0.000    0.000 -0.000  0.000
 H         -0.001  0.001  0.002    0.001 -0.001 -0.002   -0.012  0.008  0.019
 H         -0.005 -0.008  0.004    0.004  0.006 -0.003   -0.027 -0.041  0.019
 H          0.000  0.000  0.000   -0.001 -0.001 -0.001    0.013  0.016  0.017
 H         -0.000 -0.001  0.001   -0.000 -0.003  0.001   -0.004 -0.015  0.007
 H         -0.002  0.000  0.001   -0.009  0.002  0.008    0.053 -0.014 -0.047
 H         -0.000  0.001 -0.000   -0.004  0.004 -0.002    0.030 -0.032  0.019
 H         -0.000 -0.000 -0.001   -0.001 -0.001 -0.001    0.004  0.003  0.007
 H         -0.002  0.001 -0.001   -0.000  0.000 -0.000   -0.002  0.001 -0.001
 H         -0.002  0.002  0.001    0.001 -0.001 -0.002   -0.009  0.008  0.014
 H         -0.001  0.001 -0.001    0.001  0.002 -0.001   -0.008 -0.010  0.005
 H          0.000  0.000  0.000    0.002  0.005  0.005    0.010  0.012  0.012
 H          0.000  0.000 -0.000   -0.000  0.003 -0.001    0.002  0.010 -0.006
 H          0.001 -0.000 -0.001    0.008 -0.001 -0.014   -0.075  0.011  0.123
 H          0.002 -0.003  0.000    0.016 -0.018  0.003   -0.144  0.167 -0.024
 H          0.000  0.000  0.001    0.000  0.000  0.000   -0.005 -0.001 -0.008
 H          0.001 -0.001  0.000    0.000 -0.000 -0.000   -0.005  0.008 -0.001
 H         -0.023  0.020  0.035    0.001 -0.000 -0.001   -0.003  0.002  0.004
 H          0.027  0.033 -0.017    0.001  0.001 -0.000   -0.004 -0.005  0.002
 H          0.000  0.000  0.000    0.023  0.028  0.026    0.005  0.006  0.006
 H          0.000 -0.000  0.000   -0.006 -0.036  0.024    0.000 -0.000  0.000
 H         -0.000  0.000  0.000    0.005 -0.000 -0.009   -0.046  0.004  0.075
 H         -0.001  0.001 -0.000    0.009 -0.011  0.001   -0.083  0.101 -0.013
 H          0.000  0.000 -0.000    0.000  0.000  0.000   -0.001 -0.000 -0.001
 H          0.001 -0.002  0.000   -0.000  0.000 -0.000   -0.001  0.002 -0.000
 H         -0.157  0.117  0.254    0.000 -0.000 -0.000    0.000 -0.000 -0.001
 H          0.236  0.249 -0.143    0.001  0.001 -0.000   -0.005 -0.005  0.003
 H         -0.487  0.645 -0.302   -0.000  0.000 -0.000    0.006 -0.008  0.004
 H          0.000  0.000  0.000    0.187  0.224  0.180    0.022  0.027  0.022
 H         -0.000 -0.000  0.000   -0.047 -0.303  0.176   -0.005 -0.029  0.017
 H         -0.000  0.000  0.001   -0.468  0.196  0.690   -0.051  0.021  0.075
 H         -0.001  0.000  0.002    0.010 -0.000 -0.018   -0.091  0.002  0.160
 H         -0.007  0.008 -0.001    0.052 -0.062  0.005   -0.483  0.575 -0.044
 H         -0.004 -0.001 -0.006    0.034  0.010  0.043   -0.315 -0.092 -0.398
 H         -0.003  0.000 -0.005    0.001 -0.000  0.001   -0.000 -0.000 -0.001
 H          0.005 -0.007  0.001   -0.001  0.001 -0.000   -0.001  0.002 -0.000
 H         -0.011 -0.015 -0.001    0.002  0.002  0.000    0.002  0.002  0.000
 O          0.000  0.000  0.000   -0.000 -0.000 -0.000    0.000  0.000  0.000
 H          0.001  0.000  0.001    0.000  0.000  0.000   -0.004 -0.001 -0.004
 C         -0.000 -0.000 -0.000   -0.000 -0.000 -0.000    0.000  0.000  0.000
 C         -0.000 -0.000  0.000    0.000  0.000  0.000   -0.000 -0.000 -0.000
 C         -0.000  0.001 -0.001    0.000 -0.000  0.000   -0.000  0.001 -0.001
 H          0.000 -0.006  0.009   -0.000  0.001 -0.002    0.000 -0.008  0.012
 C          0.000  0.000  0.000   -0.000  0.000 -0.001    0.000 -0.004  0.005
 H         -0.000  0.000 -0.000    0.000 -0.005  0.007   -0.003  0.039 -0.056
 C          0.000  0.000  0.000   -0.000 -0.000  0.000    0.001  0.000 -0.000
 C         -0.000 -0.000 -0.000   -0.000 -0.000 -0.000    0.001  0.001  0.001
 O         -0.000 -0.000 -0.000    0.000  0.000 -0.000   -0.000 -0.000  0.000
 H          0.002  0.001  0.002    0.001  0.000  0.002   -0.013 -0.004 -0.015
 TransDip   0.087 -0.190  0.041    0.052 -0.027 -0.209    0.138 -0.011  0.039

 Mode:               184                    185                    186
 Frequency:      3149.31                3153.80                3158.73
 Force Cnst:      6.3972                 6.4494                 6.4254
 Red. Mass:       1.0947                 1.1005                 1.0930
 IR Active:          YES                    YES                    YES
 IR Intens:      132.463                 37.628                 34.977
 Raman Active:       YES                    YES                    YES
               X      Y      Z        X      Y      Z        X      Y      Z
 N          0.000 -0.000  0.000   -0.000 -0.000  0.000    0.000 -0.000 -0.000
 C         -0.001 -0.001  0.001   -0.054 -0.049  0.050   -0.002 -0.001  0.002
 C         -0.000 -0.000  0.000    0.003  0.003  0.005    0.000  0.000  0.000
 C         -0.000  0.000  0.000   -0.000 -0.001  0.001    0.002 -0.002 -0.001
 C          0.000  0.000  0.000    0.003  0.001  0.003    0.000 -0.000  0.000
 C         -0.001 -0.000  0.001   -0.012 -0.003  0.013   -0.001 -0.000  0.001
 C         -0.000 -0.000 -0.000    0.001  0.001  0.000    0.000  0.000  0.000
 C          0.001 -0.001 -0.001    0.009 -0.009 -0.003   -0.001  0.001  0.000
 C          0.000 -0.000  0.000   -0.003  0.004 -0.002   -0.000  0.001 -0.000
 C         -0.001  0.000  0.001   -0.003 -0.001  0.003   -0.002  0.000  0.002
 C         -0.000 -0.000  0.000    0.000  0.000  0.000    0.000  0.000  0.000
 C          0.001 -0.001 -0.001    0.002 -0.001 -0.001   -0.000  0.000  0.000
 C          0.000  0.000  0.000   -0.000  0.001 -0.000   -0.000  0.000 -0.000
 C         -0.001  0.000  0.000   -0.000 -0.001  0.001   -0.001  0.000  0.001
 C         -0.000  0.000  0.000   -0.000  0.000  0.000    0.000 -0.000 -0.000
 C          0.005 -0.003  0.001    0.002 -0.001  0.000   -0.001  0.000 -0.000
 C          0.000  0.000  0.000   -0.000  0.001 -0.000   -0.000  0.000 -0.000
 H          0.004 -0.002 -0.006    0.171 -0.114 -0.263    0.012 -0.007 -0.019
 H          0.011  0.016 -0.007    0.466  0.695 -0.322    0.011  0.017 -0.008
 H         -0.000 -0.000 -0.000   -0.038 -0.048 -0.052   -0.001 -0.002 -0.002
 H          0.001  0.002 -0.001    0.004  0.008 -0.005    0.000  0.002 -0.001
 H          0.002 -0.001 -0.002    0.007 -0.003 -0.007   -0.017  0.004  0.016
 H          0.002 -0.002  0.001   -0.003  0.006 -0.002   -0.013  0.015 -0.008
 H         -0.001 -0.001 -0.001   -0.019 -0.016 -0.035   -0.002 -0.001 -0.003
 H         -0.000  0.000 -0.000   -0.021  0.018 -0.007   -0.004  0.003 -0.001
 H          0.004 -0.004 -0.007    0.069 -0.059 -0.106    0.007 -0.006 -0.010
 H          0.004  0.004 -0.002    0.081  0.094 -0.048    0.005  0.006 -0.003
 H          0.000  0.001  0.001   -0.006 -0.006 -0.006   -0.000 -0.001 -0.001
 H          0.000  0.000 -0.000   -0.000  0.001 -0.001    0.000  0.000 -0.000
 H         -0.005  0.000  0.008   -0.033  0.004  0.053    0.002  0.000 -0.003
 H         -0.012  0.014 -0.001   -0.085  0.099 -0.015    0.016 -0.018  0.001
 H         -0.000 -0.000 -0.001    0.010  0.001  0.019    0.002  0.000  0.004
 H         -0.001  0.002 -0.000    0.029 -0.046  0.003    0.004 -0.007  0.000
 H          0.009 -0.008 -0.013    0.017 -0.015 -0.024    0.017 -0.016 -0.026
 H          0.004  0.006 -0.003    0.020  0.029 -0.016    0.007  0.010 -0.004
 H          0.000  0.000  0.000   -0.001 -0.002 -0.002   -0.000 -0.000 -0.000
 H          0.000  0.000 -0.000    0.000  0.000  0.000   -0.000 -0.000 -0.000
 H         -0.005  0.000  0.008   -0.007  0.001  0.012    0.001 -0.000 -0.001
 H         -0.006  0.007 -0.001   -0.012  0.013 -0.002    0.000 -0.001  0.000
 H         -0.000 -0.000 -0.000    0.001  0.000  0.002    0.000  0.000  0.001
 H         -0.000  0.000 -0.000    0.004 -0.008  0.001    0.000 -0.001  0.000
 H          0.003 -0.003 -0.005    0.002 -0.002 -0.004    0.005 -0.004 -0.007
 H          0.002  0.003 -0.001    0.006  0.006 -0.002    0.003  0.004 -0.002
 H          0.001 -0.002  0.001   -0.006  0.007 -0.004    0.002 -0.003  0.001
 H         -0.000 -0.000  0.000   -0.000 -0.000 -0.000    0.000  0.000  0.000
 H          0.000  0.000 -0.000   -0.000 -0.000  0.000   -0.000 -0.000  0.000
 H          0.000 -0.000 -0.000    0.001 -0.001 -0.002   -0.000  0.000  0.000
 H         -0.009  0.000  0.016   -0.003 -0.000  0.006    0.001 -0.000 -0.002
 H         -0.032  0.038 -0.003   -0.011  0.014 -0.001    0.005 -0.006  0.001
 H         -0.014 -0.004 -0.018   -0.006 -0.002 -0.008    0.001  0.000  0.002
 H         -0.000  0.000 -0.000    0.001  0.000  0.002    0.000 -0.000  0.000
 H         -0.000  0.000  0.000    0.002 -0.003  0.000    0.000 -0.000  0.000
 H         -0.000 -0.000  0.000   -0.003 -0.004  0.000   -0.000 -0.000  0.000
 O         -0.000 -0.000 -0.000   -0.000 -0.000 -0.000    0.000  0.001 -0.000
 H          0.171  0.065  0.221   -0.023 -0.008 -0.029    0.505  0.190  0.655
 C         -0.015 -0.006 -0.019    0.002  0.001  0.003   -0.045 -0.017 -0.057
 C          0.002  0.001  0.002    0.000  0.001  0.000   -0.002 -0.004  0.002
 C          0.001  0.005 -0.006   -0.000 -0.000  0.001    0.001  0.023 -0.031
 H          0.000 -0.043  0.061   -0.000  0.004 -0.006    0.010 -0.240  0.353
 C         -0.001  0.035 -0.047   -0.000 -0.001  0.001    0.001 -0.010  0.014
 H          0.026 -0.377  0.534   -0.000  0.007 -0.009   -0.009  0.112 -0.160
 C         -0.001 -0.003  0.002    0.000  0.000 -0.000    0.002  0.002  0.001
 C         -0.038 -0.014 -0.045    0.001  0.000  0.001    0.012  0.004  0.014
 O          0.000  0.001 -0.000   -0.000 -0.000  0.000   -0.001 -0.001 -0.000
 H          0.425  0.141  0.521   -0.010 -0.003 -0.012   -0.132 -0.043 -0.163
 TransDip  -0.158  0.037 -0.331   -0.002 -0.189 -0.054   -0.110 -0.018 -0.153

 Mode:               187                    188                    189
 Frequency:      3166.73                3173.20                3176.54
 Force Cnst:      6.5457                 6.5682                 6.5749
 Red. Mass:       1.1079                 1.1071                 1.1059
 IR Active:          YES                    YES                    YES
 IR Intens:        1.674                 20.979                 16.997
 Raman Active:       YES                    YES                    YES
               X      Y      Z        X      Y      Z        X      Y      Z
 N         -0.000  0.000 -0.000   -0.000 -0.001 -0.000   -0.000 -0.000 -0.001
 C         -0.002  0.000  0.003   -0.003 -0.004  0.003   -0.003 -0.002  0.003
 C          0.004  0.008  0.001   -0.038 -0.083 -0.011   -0.003 -0.007 -0.002
 C         -0.076  0.047  0.020   -0.006  0.004  0.002   -0.002  0.002  0.000
 C          0.001  0.001  0.002    0.006 -0.003  0.003   -0.068  0.016 -0.061
 C         -0.001  0.000  0.001    0.003 -0.001 -0.004   -0.003 -0.001  0.002
 C         -0.001 -0.001 -0.001   -0.008 -0.016 -0.001    0.001  0.005 -0.002
 C         -0.017  0.013  0.009   -0.004  0.002  0.003   -0.000  0.000  0.000
 C          0.001 -0.000  0.002    0.001 -0.000  0.001   -0.008  0.007 -0.008
 C         -0.000 -0.000  0.000    0.000 -0.000 -0.000   -0.000 -0.000  0.000
 C         -0.000 -0.000 -0.000   -0.001 -0.003 -0.000    0.000  0.000 -0.000
 C         -0.002  0.002  0.001   -0.000  0.000  0.000   -0.000  0.000 -0.000
 C          0.000 -0.000  0.000    0.000 -0.000  0.000   -0.001  0.000 -0.001
 C          0.000 -0.000  0.000    0.000 -0.000 -0.000    0.000 -0.000  0.000
 C          0.000 -0.000 -0.000    0.000  0.000 -0.000    0.000  0.000 -0.000
 C         -0.001  0.001 -0.000    0.000  0.000  0.000    0.000 -0.000  0.000
 C          0.000  0.000  0.000    0.000  0.000 -0.000    0.000  0.000  0.000
 H          0.021 -0.012 -0.028    0.008 -0.004 -0.011    0.011 -0.007 -0.018
 H          0.007  0.010 -0.004    0.034  0.053 -0.025    0.019  0.027 -0.012
 H         -0.035 -0.046 -0.051    0.324  0.407  0.450    0.033  0.043  0.048
 H         -0.011 -0.054  0.029    0.124  0.586 -0.311    0.009  0.041 -0.021
 H          0.550 -0.134 -0.478    0.047 -0.011 -0.040    0.009 -0.002 -0.009
 H          0.362 -0.424  0.241    0.028 -0.034  0.018    0.017 -0.016  0.011
 H         -0.009 -0.009 -0.018   -0.009 -0.008 -0.020    0.269  0.249  0.535
 H         -0.002  0.000  0.000   -0.060  0.047 -0.022    0.553 -0.439  0.188
 H          0.008 -0.007 -0.012   -0.030  0.024  0.040    0.007 -0.006 -0.011
 H          0.001  0.002 -0.001   -0.007 -0.010  0.005    0.023  0.028 -0.014
 H          0.011  0.013  0.013    0.071  0.081  0.077   -0.007 -0.009 -0.009
 H          0.000 -0.000  0.000    0.021  0.110 -0.071   -0.016 -0.056  0.038
 H          0.079 -0.007 -0.123    0.031 -0.002 -0.048    0.001 -0.000 -0.001
 H          0.118 -0.145  0.018    0.020 -0.024  0.003    0.002 -0.003  0.000
 H         -0.017 -0.003 -0.028   -0.003 -0.000 -0.005    0.046  0.002  0.091
 H         -0.001  0.001 -0.000   -0.005  0.006 -0.000    0.053 -0.081  0.005
 H          0.001 -0.001 -0.002   -0.003  0.002  0.004    0.001 -0.001 -0.002
 H          0.001  0.001 -0.001   -0.001 -0.002  0.001    0.003  0.004 -0.003
 H          0.001  0.001  0.001    0.010  0.016  0.015   -0.001 -0.001 -0.001
 H         -0.000 -0.001  0.001    0.005  0.018 -0.014   -0.001 -0.004  0.003
 H          0.010 -0.001 -0.020    0.003 -0.001 -0.006    0.000 -0.000 -0.000
 H          0.019 -0.019  0.005    0.002 -0.002  0.001    0.000 -0.000  0.000
 H         -0.002 -0.000 -0.003   -0.001 -0.000 -0.001    0.007  0.002  0.009
 H         -0.000  0.001 -0.000   -0.000  0.000  0.000    0.004 -0.009  0.000
 H          0.000 -0.000 -0.000   -0.000  0.000  0.001    0.000 -0.000 -0.000
 H          0.000  0.000 -0.000   -0.001 -0.001  0.000    0.000  0.000 -0.000
 H         -0.001  0.001 -0.001   -0.000  0.001 -0.000   -0.002  0.002 -0.001
 H          0.001  0.001  0.001    0.001  0.000  0.000   -0.000 -0.000 -0.000
 H          0.000  0.000 -0.000   -0.001  0.001 -0.000   -0.000 -0.001  0.001
 H         -0.001  0.001  0.002   -0.000  0.000  0.001   -0.001  0.000  0.001
 H          0.003  0.001 -0.004    0.000  0.000 -0.000    0.000 -0.000 -0.000
 H          0.007 -0.009  0.001    0.000 -0.000  0.000   -0.000  0.000 -0.000
 H          0.005  0.001  0.006   -0.001 -0.000 -0.001   -0.000 -0.000 -0.000
 H         -0.000  0.000 -0.001    0.000  0.000 -0.000   -0.001 -0.000  0.000
 H         -0.000  0.000  0.000    0.000 -0.000  0.000    0.001 -0.000 -0.000
 H         -0.001 -0.002 -0.000   -0.001 -0.001  0.000   -0.001 -0.002  0.000
 O          0.000 -0.000  0.000    0.000 -0.000 -0.000   -0.000 -0.000  0.000
 H          0.012  0.005  0.016   -0.000 -0.000 -0.000    0.002  0.001  0.003
 C         -0.001 -0.000 -0.001   -0.000 -0.000 -0.000   -0.000 -0.000 -0.000
 C          0.000  0.000  0.000    0.000  0.000  0.000    0.000  0.000  0.000
 C         -0.000  0.001 -0.001   -0.000  0.000 -0.000   -0.000  0.000 -0.000
 H          0.000 -0.006  0.009    0.000 -0.001  0.001    0.000 -0.001  0.001
 C         -0.000  0.000  0.000   -0.000 -0.000  0.000   -0.000 -0.000  0.000
 H         -0.000  0.001 -0.001   -0.000  0.001 -0.001   -0.000  0.000 -0.000
 C          0.000  0.000  0.000    0.000  0.000 -0.000    0.000  0.000  0.000
 C          0.000  0.000  0.000    0.000  0.000  0.000    0.000  0.000  0.000
 O         -0.000 -0.000  0.000   -0.000 -0.000  0.000   -0.000 -0.000  0.000
 H         -0.004 -0.001 -0.005   -0.001 -0.000 -0.001   -0.001 -0.000 -0.001
 TransDip  -0.006  0.026 -0.031   -0.059 -0.133 -0.018   -0.078  0.002 -0.106

 STANDARD THERMODYNAMIC QUANTITIES AT   298.15 K  AND     1.00 ATM

   This Molecule has  4 Imaginary Frequencies
   Zero point vibrational energy:      371.558 kcal/mol

   Atom    1 Element N  Has Mass   14.00307
   Atom    2 Element C  Has Mass   12.00000
   Atom    3 Element C  Has Mass   12.00000
   Atom    4 Element C  Has Mass   12.00000
   Atom    5 Element C  Has Mass   12.00000
   Atom    6 Element C  Has Mass   12.00000
   Atom    7 Element C  Has Mass   12.00000
   Atom    8 Element C  Has Mass   12.00000
   Atom    9 Element C  Has Mass   12.00000
   Atom   10 Element C  Has Mass   12.00000
   Atom   11 Element C  Has Mass   12.00000
   Atom   12 Element C  Has Mass   12.00000
   Atom   13 Element C  Has Mass   12.00000
   Atom   14 Element C  Has Mass   12.00000
   Atom   15 Element C  Has Mass   12.00000
   Atom   16 Element C  Has Mass   12.00000
   Atom   17 Element C  Has Mass   12.00000
   Atom   18 Element H  Has Mass    1.00783
   Atom   19 Element H  Has Mass    1.00783
   Atom   20 Element H  Has Mass    1.00783
   Atom   21 Element H  Has Mass    1.00783
   Atom   22 Element H  Has Mass    1.00783
   Atom   23 Element H  Has Mass    1.00783
   Atom   24 Element H  Has Mass    1.00783
   Atom   25 Element H  Has Mass    1.00783
   Atom   26 Element H  Has Mass    1.00783
   Atom   27 Element H  Has Mass    1.00783
   Atom   28 Element H  Has Mass    1.00783
   Atom   29 Element H  Has Mass    1.00783
   Atom   30 Element H  Has Mass    1.00783
   Atom   31 Element H  Has Mass    1.00783
   Atom   32 Element H  Has Mass    1.00783
   Atom   33 Element H  Has Mass    1.00783
   Atom   34 Element H  Has Mass    1.00783
   Atom   35 Element H  Has Mass    1.00783
   Atom   36 Element H  Has Mass    1.00783
   Atom   37 Element H  Has Mass    1.00783
   Atom   38 Element H  Has Mass    1.00783
   Atom   39 Element H  Has Mass    1.00783
   Atom   40 Element H  Has Mass    1.00783
   Atom   41 Element H  Has Mass    1.00783
   Atom   42 Element H  Has Mass    1.00783
   Atom   43 Element H  Has Mass    1.00783
   Atom   44 Element H  Has Mass    1.00783
   Atom   45 Element H  Has Mass    1.00783
   Atom   46 Element H  Has Mass    1.00783
   Atom   47 Element H  Has Mass    1.00783
   Atom   48 Element H  Has Mass    1.00783
   Atom   49 Element H  Has Mass    1.00783
   Atom   50 Element H  Has Mass    1.00783
   Atom   51 Element H  Has Mass    1.00783
   Atom   52 Element H  Has Mass    1.00783
   Atom   53 Element H  Has Mass    1.00783
   Atom   54 Element O  Has Mass   15.99491
   Atom   55 Element H  Has Mass    1.00783
   Atom   56 Element C  Has Mass   12.00000
   Atom   57 Element C  Has Mass   12.00000
   Atom   58 Element C  Has Mass   12.00000
   Atom   59 Element H  Has Mass    1.00783
   Atom   60 Element C  Has Mass   12.00000
   Atom   61 Element H  Has Mass    1.00783
   Atom   62 Element C  Has Mass   12.00000
   Atom   63 Element C  Has Mass   12.00000
   Atom   64 Element O  Has Mass   15.99491
   Atom   65 Element H  Has Mass    1.00783
   Molecular Mass:   350.306090 amu
   Principal axes and moments of inertia in amu*Bohr^2:
                             1           2           3
    Eigenvalues --     9276.10352 11881.59230 15180.24775
          X              -0.01652     0.99728     0.07184
          Y               0.92798     0.04204    -0.37024
          Z               0.37226    -0.06055     0.92615
   Rotational Symmetry Number is   1
   The Molecule is an Asymmetric Top
   Translational Enthalpy:        0.889 kcal/mol
   Rotational Enthalpy:           0.889 kcal/mol
   Vibrational Enthalpy:        386.646 kcal/mol
   gas constant (RT):             0.592 kcal/mol
   Translational Entropy:        43.455  cal/mol.K
   Rotational Entropy:           35.768  cal/mol.K
   Vibrational Entropy:         100.187  cal/mol.K

   Total Enthalpy:              389.016 kcal/mol
   Total Entropy:               179.410  cal/mol.K
 Total job time:  80263.64s(wall), 1279925.15s(cpu) 
 Sat May 21 14:55:34 2022

        *************************************************************
        *                                                           *
        *  Thank you very much for using Q-Chem.  Have a nice day.  *
        *                                                           *
        *************************************************************


