
Running Job 1 of 1 mol.qin
qchem mol.qin_153832.0 /tmp/scratch/ 0
/clusterfs/mp/software/qchem5.4/exe/qcprog.exe_s mol.qin_153832.0 /tmp/scratch/
                  Welcome to Q-Chem
     A Quantum Leap Into The Future Of Chemistry


 Q-Chem 5.4, Q-Chem, Inc., Pleasanton, CA (2021)

 E. Epifanovsky,  A. T. B. Gilbert,  Xintian Feng,  Joonho Lee,  Yuezhi Mao,  
 N. Mardirossian,  P. Pokhilko,  A. White,  M. Wormit,  M. P. Coons,  
 A. L. Dempwolff,  Zhengting Gan,  D. Hait,  P. R. Horn,  L. D. Jacobson,  
 I. Kaliman,  J. Kussmann,  A. W. Lange,  Ka Un Lao,  D. S. Levine,  Jie Liu,  
 S. C. McKenzie,  A. F. Morrison,  K. Nanda,  F. Plasser,  D. R. Rehn,  
 M. L. Vidal,  Zhi-Qiang You,  Ying Zhu,  B. Alam,  B. Albrecht,  
 A. Aldossary,  E. Alguire,  J. H. Andersen,  D. Barton,  K. Begam,  A. Behn,  
 Y. A. Bernard,  E. J. Berquist,  H. Burton,  A. Carreras,  K. Carter-Fenk,  
 Romit Chakraborty,  A. D. Chien,  K. D. Closser,  V. Cofer-Shabica,  
 S. Dasgupta,  Jia Deng,  M. de Wergifosse,  M. Diedenhofen,  Hainam Do,  
 S. Ehlert,  Po-Tung Fang,  S. Fatehi,  Qingguo Feng,  T. Friedhoff,  
 J. Gayvert,  Qinghui Ge,  G. Gidofalvi,  M. Goldey,  J. Gomes,  
 C. Gonzalez-Espinoza,  S. Gulania,  A. Gunina,  M. W. D. Hanson-Heine,  
 P. H. P. Harbach,  A. W. Hauser,  M. F. Herbst,  M. Hernandez Vera,  
 M. Hodecker,  Z. C. Holden,  S. Houck,  Xunkun Huang,  Kerwin Hui,  
 B. C. Huynh,  M. Ivanov,  Hyunjun Ji,  Hanjie Jiang,  B. Kaduk,  S. Kaehler,  
 K. Khistyaev,  Jaehoon Kim,  P. Klunzinger,  Z. Koczor-Benda,  
 Joong Hoon Koh,  D. Kosenkov,  L. Koulias,  T. Kowalczyk,  C. M. Krauter,  
 K. Kue,  A. Kunitsa,  T. Kus,  A. Landau,  K. V. Lawler,  D. Lefrancois,  
 S. Lehtola,  Rain Li,  Yi-Pei Li,  Jiashu Liang,  M. Liebenthal,  
 Hung-Hsuan Lin,  You-Sheng Lin,  Fenglai Liu,  Kuan-Yu Liu,  
 M. Loipersberger,  A. Luenser,  A. Manjanath,  P. Manohar,  E. Mansoor,  
 S. F. Manzer,  Shan-Ping Mao,  A. V. Marenich,  T. Markovich,  S. Mason,  
 S. A. Maurer,  P. F. McLaughlin,  M. F. S. J. Menger,  J.-M. Mewes,  
 S. A. Mewes,  P. Morgante,  J. W. Mullinax,  K. J. Oosterbaan,  G. Paran,  
 Alexander C. Paul,  Suranjan K. Paul,  F. Pavosevic,  Zheng Pei,  S. Prager,  
 E. I. Proynov,  E. Ramos,  B. Rana,  A. E. Rask,  A. Rettig,  R. M. Richard,  
 F. Rob,  E. Rossomme,  T. Scheele,  M. Scheurer,  M. Schneider,  
 N. Sergueev,  S. M. Sharada,  W. Skomorowski,  D. W. Small,  C. J. Stein,  
 Yu-Chuan Su,  E. J. Sundstrom,  Zhen Tao,  J. Thirman,  T. Tsuchimochi,  
 N. M. Tubman,  S. P. Veccham,  O. Vydrov,  J. Wenzel,  J. Witte,  A. Yamada,  
 Kun Yao,  S. Yeganeh,  S. R. Yost,  A. Zech,  Igor Ying Zhang,  Xing Zhang,  
 Yu Zhang,  D. Zuev,  A. Aspuru-Guzik,  A. T. Bell,  N. A. Besley,  
 K. B. Bravaya,  B. R. Brooks,  D. Casanova,  Jeng-Da Chai,  S. Coriani,  
 C. J. Cramer,  A. E. DePrince, III,  R. A. DiStasio Jr.,  A. Dreuw,  
 B. D. Dunietz,  T. R. Furlani,  W. A. Goddard III,  S. Grimme,  
 S. Hammes-Schiffer,  T. Head-Gordon,  W. J. Hehre,  Chao-Ping Hsu,  
 T.-C. Jagau,  Yousung Jung,  A. Klamt,  Jing Kong,  D. S. Lambrecht,  
 WanZhen Liang,  N. J. Mayhall,  C. W. McCurdy,  J. B. Neaton,  T. Neudecker,  
 C. Ochsenfeld,  J. A. Parkhill,  R. Peverati,  V. A. Rassolov,  Yihan Shao,  
 L. V. Slipchenko,  R. P. Steele,  J. E. Subotnik,  A. J. W. Thom,  
 A. Tkatchenko,  D. G. Truhlar,  T. Van Voorhis,  T. A. Wesolowski,  
 K. B. Whaley,  H. L. Woodcock III,  P. M. Zimmerman,  S. Faraji,  
 P. M. W. Gill,  M. Head-Gordon,  J. M. Herbert,  A. I. Krylov

 Additional authors since Version 5.4.0: 
 Chandrima Chakravarty,  L. Cunha,  R. Kang,  Yongbin Kim,  S. Kotaru,  
 Shaozhi Li,  Xiangyuan Li,  F. Matz,  A. Molle,  V. Parravicini,  
 Haisheng Ren,  Hengyuan Shen,  Yingli Su,  Hung-Yi Tsai,  C. Utku,  
 Fang Wang,  Jeff Yang,  F. Zeller

 Contributors to earlier versions of Q-Chem not listed above: 
 R. D. Adamson,  B. Austin,  R. Baer,  J. Baker,  G. J. O. Beran,  
 K. Brandhorst,  S. T. Brown,  E. F. C. Byrd,  Arup K. Chakraborty,  
 G. K. L. Chan,  Chun-Min Chang,  Yunqing Chen,  C.-L. Cheng,  
 Siu Hung Chien,  D. M. Chipman,  D. L. Crittenden,  H. Dachsel,  
 R. J. Doerksen,  A. D. Dutoi,  R. G. Edgar,  J. Fosso-Tande,  
 L. Fusti-Molnar,  D. Ghosh,  A. Ghysels,  A. Golubeva-Zadorozhnaya,  
 J. Gonthier,  M. S. Gordon,  S. R. Gwaltney,  G. Hawkins,  J. E. Herr,  
 A. Heyden,  S. Hirata,  E. G. Hohenstein,  G. Kedziora,  F. J. Keil,  
 C. Kelley,  Jihan Kim,  R. A. King,  R. Z. Khaliullin,  P. P. Korambath,  
 W. Kurlancheek,  A. Laurent,  A. M. Lee,  M. S. Lee,  S. V. Levchenko,  
 Ching Yeh Lin,  D. Liotard,  E. Livshits,  R. C. Lochan,  I. Lotan,  
 L. A. Martinez-Martinez,  P. E. Maslen,  N. Nair,  D. P. O'Neill,  
 D. Neuhauser,  E. Neuscamman,  C. M. Oana,  R. Olivares-Amaya,  R. Olson,  
 T. M. Perrine,  B. Peters,  P. A. Pieniazek,  A. Prociuk,  Y. M. Rhee,  
 J. Ritchie,  M. A. Rohrdanz,  E. Rosta,  N. J. Russ,  H. F. Schaefer III,  
 M. W. Schmidt,  N. E. Schultz,  S. Sharma,  N. Shenvi,  C. D. Sherrill,  
 A. C. Simmonett,  A. Sodt,  T. Stein,  D. Stuck,  K. S. Thanthiriwatte,  
 V. Vanovschi,  L. Vogt,  Tao Wang,  A. Warshel,  M. A. Watson,  
 C. F. Williams,  Q. Wu,  X. Xu,  Jun Yang,  W. Zhang,  Yan Zhao

   Please cite Q-Chem as follows:
  "Software for the frontiers of quantum chemistry:
   An overview of developments in the Q-Chem 5 package"
   J. Chem. Phys. 155, 084801 (2021)
   https://doi.org/10.1063/5.0055522 (open access)

 Q-Chem 5.4.2 for Intel X86 EM64T Linux

 Parts of Q-Chem use Armadillo 9.900.5 (Nocturnal Misbehaviour).
 http://arma.sourceforge.net/

 Q-Chem begins on Mon May 23 22:03:28 2022  

 Host: 
0

     Scratch files written to /tmp/scratch//
 Dec1321 |scratch|qcdevops|jenkins|workspace|build_RNUM 7600   
 Processing $rem in /clusterfs/mp/software/qchem5.4/config/preferences:
 Processing $rem in /global/home/users/smblau/.qchemrc:
 Symmetry turned off for PCM/SM12/SMD calculation

 Checking the input file for inconsistencies... 	...done.

--------------------------------------------------------------
User input:
--------------------------------------------------------------
$molecule
-1 1
N      0.2957771893      0.0871560681     -0.2355736821
C      1.3420522501     -0.8665066640      0.2983721320
C     -0.7101412014      0.3833174418      0.8503547207
C     -0.3535022807     -0.5582590940     -1.4352363713
C      0.9206470732      1.3913905082     -0.6610522363
C      2.2445360732     -0.3142606506      1.3879856051
C     -2.0134594581      1.0229569187      0.3988322860
C     -1.1233706400     -1.8408083300     -1.1541759773
C      1.9324169820      1.2941380562     -1.7932945422
C      3.1353567228     -1.4297507430      1.9355887251
C     -2.8725478268      1.3808961717      1.6113700641
C     -2.0803775546     -2.1357742840     -2.3071186325
C      2.8568206506      2.5103927343     -1.7935684147
C      4.0882714260     -0.9389158404      3.0188052966
C     -4.2140130970      1.9846124774      1.2132699367
C     -2.8414472495     -3.4398339445     -2.1079843735
C      3.8450752499      2.4858251926     -2.9536395970
H      1.9415440949     -1.1940069515     -0.5630730305
H      0.7889647821     -1.7350060122      0.6690818144
H     -0.2037392513      1.0384098318      1.5662325895
H     -0.9138089414     -0.5620932620      1.3631011270
H      0.4547040537     -0.7727252775     -2.1417508798
H     -1.0042720331      0.2044346345     -1.8772657639
H      1.3823058407      1.8141403659      0.2365106105
H      0.0984232195      2.0565890355     -0.9412082200
H      1.6668355910      0.1201527792      2.2162090092
H      2.8886258445      0.4811799870      0.9870881730
H     -2.5783663085      0.3354451779     -0.2447606663
H     -1.8270003275      1.9324631283     -0.1887312853
H     -1.7042140024     -1.7722853776     -0.2239357259
H     -0.4216174223     -2.6782932156     -1.0460567311
H      1.4050693739      1.2394734174     -2.7562249005
H      2.5240154601      0.3709054964     -1.7202477851
H      3.7079538540     -1.8690425998      1.1053029904
H      2.5004265400     -2.2359478424      2.3337898876
H     -2.3205057871      2.0863766350      2.2509277316
H     -3.0376990671      0.4761065942      2.2167121184
H     -1.5023535518     -2.1844986656     -3.2419732815
H     -2.7884802612     -1.2978412471     -2.4135281099
H      3.4056880359      2.5422108616     -0.8391043834
H      2.2565423569      3.4328502554     -1.8355233241
H      3.5343871080     -0.5235272260      3.8730769816
H      4.7499141103     -0.1500452807      2.6329308582
H      4.7195566968     -1.7563760527      3.3907402361
H     -4.7926072105      1.2837418403      0.5944170735
H     -4.0734408921      2.9075346729      0.6323080981
H     -4.8158946639      2.2304001049      2.0977539662
H     -3.4364749216     -3.4079293157     -1.1828357060
H     -2.1425036363     -4.2847042685     -2.0382958861
H     -3.5293490400     -3.6296574979     -2.9431135979
H      3.3169595108      2.4789936537     -3.9181324990
H      4.4752681965      1.5857884829     -2.9104031445
H      4.5033951285      3.3642583951     -2.9340768492
O      2.8879702467     -1.9146176783     -2.2632976823
H      2.7559807675     -3.6069910719     -0.2342516859
C      2.1028381256     -3.8501757453     -1.0781007807
C      2.1353026679     -2.9904289233     -2.2077124980
C      1.2566546011     -4.9618133945     -0.9880387976
H      1.2752656219     -5.5719088764     -0.0780262709
C      1.2477926569     -3.3711646493     -3.2477696184
H      1.2128200087     -2.7441259822     -4.1455247260
C      0.3643722933     -5.3431921125     -2.0276812936
C      0.4104209589     -4.4885906965     -3.1639372981
O     -0.4312412148     -6.3800699091     -1.9437151569
H     -0.2658035225     -4.7119922370     -3.9962506264
$end

$rem
job_type = opt
basis = def2-svpd
max_scf_cycles = 100
gen_scfman = true
xc_grid = 3
thresh = 14
s2thresh = 16
scf_algorithm = diis
resp_charges = true
symmetry = false
sym_ignore = true
method = wb97xd
geom_opt_max_cycles = 200
solvent_method = pcm
geom_opt_hessian = read
scf_guess_always = True
$end

$pcm
heavypoints 194
hpoints 194
radii uff
theory cpcm
vdwscale 1.1
$end

$solvent
dielectric 38.88
$end
--------------------------------------------------------------
 ----------------------------------------------------------------
             Standard Nuclear Orientation (Angstroms)
    I     Atom           X                Y                Z
 ----------------------------------------------------------------
    1      N       0.2957771893     0.0871560681    -0.2355736821
    2      C       1.3420522501    -0.8665066640     0.2983721320
    3      C      -0.7101412014     0.3833174418     0.8503547207
    4      C      -0.3535022807    -0.5582590940    -1.4352363713
    5      C       0.9206470732     1.3913905082    -0.6610522363
    6      C       2.2445360732    -0.3142606506     1.3879856051
    7      C      -2.0134594581     1.0229569187     0.3988322860
    8      C      -1.1233706400    -1.8408083300    -1.1541759773
    9      C       1.9324169820     1.2941380562    -1.7932945422
   10      C       3.1353567228    -1.4297507430     1.9355887251
   11      C      -2.8725478268     1.3808961717     1.6113700641
   12      C      -2.0803775546    -2.1357742840    -2.3071186325
   13      C       2.8568206506     2.5103927343    -1.7935684147
   14      C       4.0882714260    -0.9389158404     3.0188052966
   15      C      -4.2140130970     1.9846124774     1.2132699367
   16      C      -2.8414472495    -3.4398339445    -2.1079843735
   17      C       3.8450752499     2.4858251926    -2.9536395970
   18      H       1.9415440949    -1.1940069515    -0.5630730305
   19      H       0.7889647821    -1.7350060122     0.6690818144
   20      H      -0.2037392513     1.0384098318     1.5662325895
   21      H      -0.9138089414    -0.5620932620     1.3631011270
   22      H       0.4547040537    -0.7727252775    -2.1417508798
   23      H      -1.0042720331     0.2044346345    -1.8772657639
   24      H       1.3823058407     1.8141403659     0.2365106105
   25      H       0.0984232195     2.0565890355    -0.9412082200
   26      H       1.6668355910     0.1201527792     2.2162090092
   27      H       2.8886258445     0.4811799870     0.9870881730
   28      H      -2.5783663085     0.3354451779    -0.2447606663
   29      H      -1.8270003275     1.9324631283    -0.1887312853
   30      H      -1.7042140024    -1.7722853776    -0.2239357259
   31      H      -0.4216174223    -2.6782932156    -1.0460567311
   32      H       1.4050693739     1.2394734174    -2.7562249005
   33      H       2.5240154601     0.3709054964    -1.7202477851
   34      H       3.7079538540    -1.8690425998     1.1053029904
   35      H       2.5004265400    -2.2359478424     2.3337898876
   36      H      -2.3205057871     2.0863766350     2.2509277316
   37      H      -3.0376990671     0.4761065942     2.2167121184
   38      H      -1.5023535518    -2.1844986656    -3.2419732815
   39      H      -2.7884802612    -1.2978412471    -2.4135281099
   40      H       3.4056880359     2.5422108616    -0.8391043834
   41      H       2.2565423569     3.4328502554    -1.8355233241
   42      H       3.5343871080    -0.5235272260     3.8730769816
   43      H       4.7499141103    -0.1500452807     2.6329308582
   44      H       4.7195566968    -1.7563760527     3.3907402361
   45      H      -4.7926072105     1.2837418403     0.5944170735
   46      H      -4.0734408921     2.9075346729     0.6323080981
   47      H      -4.8158946639     2.2304001049     2.0977539662
   48      H      -3.4364749216    -3.4079293157    -1.1828357060
   49      H      -2.1425036363    -4.2847042685    -2.0382958861
   50      H      -3.5293490400    -3.6296574979    -2.9431135979
   51      H       3.3169595108     2.4789936537    -3.9181324990
   52      H       4.4752681965     1.5857884829    -2.9104031445
   53      H       4.5033951285     3.3642583951    -2.9340768492
   54      O       2.8879702467    -1.9146176783    -2.2632976823
   55      H       2.7559807675    -3.6069910719    -0.2342516859
   56      C       2.1028381256    -3.8501757453    -1.0781007807
   57      C       2.1353026679    -2.9904289233    -2.2077124980
   58      C       1.2566546011    -4.9618133945    -0.9880387976
   59      H       1.2752656219    -5.5719088764    -0.0780262709
   60      C       1.2477926569    -3.3711646493    -3.2477696184
   61      H       1.2128200087    -2.7441259822    -4.1455247260
   62      C       0.3643722933    -5.3431921125    -2.0276812936
   63      C       0.4104209589    -4.4885906965    -3.1639372981
   64      O      -0.4312412148    -6.3800699091    -1.9437151569
   65      H      -0.2658035225    -4.7119922370    -3.9962506264
 ----------------------------------------------------------------
 Nuclear Repulsion Energy =        2434.25085796 hartrees
 There are       98 alpha and       98 beta electrons
 Requested basis set is def2-SVPD
 There are 362 shells and 826 basis functions

 Total QAlloc Memory Limit  96000 MB
 Mega-Array Size       188 MB
 MEM_STATIC part       192 MB
 Discretize the solute cavity surface with Lebedev spheres
	Using 194 Lebedev grid points for each H atom
	Using 194 Lebedev grid points for other atoms
	Atomic van der Waals radii will be scaled by 1.10
 Remove points where switching function is < 1.0e-08
 Keep 4325 surface tesserae and discard 8285 interior tesserae
 Molecular Surface Area = 488.555 Angst**2
 A cutoff of  1.0D-16 yielded  57579 shell pairs
 There are    298961 function pairs (    336423 Cartesian)
 Smallest overlap matrix eigenvalue = 5.57E-06

 Scale SEOQF with 1.000000e-01/1.000000e-02/1.000000e-01

 Standard Electronic Orientation quadrupole field applied
 Nucleus-field energy     =    -0.0000000297 hartrees
 Guess from superposition of atomic densities
 Warning:  Energy on first SCF cycle will be non-variational
 SAD guess density has 195.000000 electrons

 -----------------------------------------------------------------------
  General SCF calculation program by
  Eric Jon Sundstrom, Paul Horn, Yuezhi Mao, Dmitri Zuev, Alec White,
  David Stuck, Shaama M.S., Shane Yost, Joonho Lee, David Small,
  Daniel Levine, Susi Lehtola, Hugh Burton, Evgeny Epifanovsky,
  Bang C. Huynh
 -----------------------------------------------------------------------
 Exchange:     0.2220 Hartree-Fock + 1.0000 wB97X-D + LR-HF
 Correlation:  1.0000 wB97X-D
 Using SG-3 standard quadrature grid
 Dispersion:   Grimme D
 using 40 threads for integral computing
 -------------------------------------------------------
 OpenMP Integral computing Module                
 Release: version 1.0, May 2013, Q-Chem Inc. Pittsburgh 
 -------------------------------------------------------
 A restricted SCF calculation will be
 performed using DIIS
 SCF converges when DIIS error is below 1.0e-08
 ---------------------------------------
  Cycle       Energy         DIIS error
 ---------------------------------------
    1   -1073.4252365239      2.08e-02  
    2   -1066.2730346079      2.31e-03  
    3   -1066.2505795688      2.66e-03  
    4   -1066.7094347578      4.03e-04  
    5   -1066.7208095249      1.29e-04  
    6   -1066.7220603786      3.63e-05  
    7   -1066.7221553092      1.28e-05  
    8   -1066.7221688101      2.24e-06  
    9   -1066.7221695164      9.82e-07  
   10   -1066.7221694862      2.71e-07  
   11   -1066.7221697407      1.79e-07  
   12   -1066.7221696481      4.51e-08  
   13   -1066.7221696192      1.66e-08  
   14   -1066.7221697269      7.75e-09  Convergence criterion met
 ---------------------------------------
 SCF time:   CPU 20907.65s  wall 1003.00s 

************** Final PCM Free Energy Summary **************
 G_electrostatic  =      -0.16485020 hartree =    -103.44505944 kcal/mol
 G_cavitation     =       0.00000000 hartree =       0.00000000 kcal/mol
 G_dispersion     =       0.00000000 hartree =       0.00000000 kcal/mol
 G_repulsion      =       0.00000000 hartree =       0.00000000 kcal/mol
 --------------------------------------------------
 Non-electrostatic Free Energy =       0.00000000 hartree =       0.00000000 kcal/mol
 Total                         =      -0.16485020 hartree =    -103.44505944 kcal/mol
 --------------------------------------------------
 SCF Energy (H0 + V/2)                       =   -1066.72216973 
 Solute Internal Energy (H0)                 =   -1066.55731953 
 Total Free Energy (H0 + V/2 + non-elec)     =   -1066.72216973 hartree
                                             = -669378.26442928 kcal/mol
***********************************************************

 SCF   energy in the final basis set =    -1066.7221697269
 Total energy in the final basis set =    -1066.7221697269
 
 --------------------------------------------------------------
 
                    Orbital Energies (a.u.)
 --------------------------------------------------------------
 
 Alpha MOs
 -- Occupied --
-19.1529 -19.1498 -14.5731 -10.3538 -10.3507 -10.3435 -10.3338 -10.3094
-10.3031 -10.3011 -10.2973 -10.2969 -10.2963 -10.2940 -10.2921 -10.2914
-10.2893 -10.2887 -10.2862 -10.2860 -10.2757 -10.2499 -10.2498 -10.2489
-10.2486  -1.1108  -1.0083  -1.0031  -0.9139  -0.9049  -0.9042  -0.8882
 -0.8680  -0.8411  -0.8385  -0.8337  -0.7962  -0.7871  -0.7533  -0.7521
 -0.7328  -0.7314  -0.6851  -0.6806  -0.6789  -0.6732  -0.6582  -0.6495
 -0.6222  -0.6138  -0.5997  -0.5940  -0.5828  -0.5684  -0.5560  -0.5532
 -0.5269  -0.5239  -0.5146  -0.5123  -0.5113  -0.5080  -0.5070  -0.5042
 -0.4993  -0.4957  -0.4893  -0.4866  -0.4772  -0.4663  -0.4643  -0.4569
 -0.4532  -0.4477  -0.4439  -0.4407  -0.4377  -0.4348  -0.4295  -0.4271
 -0.4270  -0.4232  -0.4213  -0.4154  -0.4146  -0.4141  -0.4123  -0.4079
 -0.4054  -0.4004  -0.3967  -0.3924  -0.3841  -0.3034  -0.2915  -0.2756
 -0.2725  -0.1899
 -- Virtual --
  0.0819   0.0868   0.0884   0.0915   0.0958   0.1073   0.1080   0.1096
  0.1134   0.1155   0.1238   0.1273   0.1299   0.1350   0.1376   0.1383
  0.1418   0.1485   0.1513   0.1561   0.1583   0.1631   0.1651   0.1711
  0.1732   0.1768   0.1806   0.1833   0.1845   0.1879   0.1905   0.1934
  0.1949   0.1976   0.1996   0.1999   0.2039   0.2065   0.2097   0.2111
  0.2129   0.2161   0.2206   0.2212   0.2228   0.2254   0.2273   0.2310
  0.2335   0.2393   0.2402   0.2409   0.2446   0.2470   0.2493   0.2530
  0.2558   0.2584   0.2631   0.2631   0.2661   0.2712   0.2714   0.2746
  0.2757   0.2784   0.2817   0.2844   0.2884   0.2889   0.2919   0.2946
  0.2977   0.3018   0.3038   0.3065   0.3081   0.3132   0.3152   0.3177
  0.3215   0.3227   0.3250   0.3299   0.3304   0.3352   0.3383   0.3422
  0.3446   0.3453   0.3473   0.3548   0.3579   0.3591   0.3632   0.3647
  0.3666   0.3670   0.3707   0.3743   0.3753   0.3783   0.3800   0.3828
  0.3853   0.3893   0.3916   0.3935   0.3961   0.4008   0.4034   0.4044
  0.4058   0.4086   0.4119   0.4135   0.4155   0.4186   0.4199   0.4206
  0.4230   0.4242   0.4265   0.4269   0.4293   0.4316   0.4347   0.4355
  0.4361   0.4397   0.4405   0.4427   0.4456   0.4482   0.4487   0.4503
  0.4526   0.4534   0.4558   0.4581   0.4593   0.4648   0.4669   0.4687
  0.4702   0.4724   0.4750   0.4758   0.4788   0.4802   0.4823   0.4872
  0.4885   0.4892   0.4940   0.4958   0.4988   0.4999   0.5007   0.5016
  0.5064   0.5073   0.5091   0.5113   0.5145   0.5166   0.5196   0.5236
  0.5240   0.5255   0.5276   0.5289   0.5306   0.5332   0.5353   0.5396
  0.5411   0.5418   0.5435   0.5485   0.5504   0.5541   0.5561   0.5573
  0.5604   0.5613   0.5630   0.5660   0.5681   0.5692   0.5722   0.5757
  0.5773   0.5811   0.5817   0.5849   0.5856   0.5897   0.5923   0.5933
  0.5953   0.6006   0.6014   0.6031   0.6048   0.6109   0.6126   0.6143
  0.6169   0.6197   0.6246   0.6266   0.6276   0.6331   0.6356   0.6368
  0.6398   0.6409   0.6431   0.6465   0.6490   0.6522   0.6543   0.6553
  0.6613   0.6628   0.6632   0.6651   0.6684   0.6721   0.6765   0.6808
  0.6826   0.6835   0.6855   0.6904   0.6920   0.6948   0.6977   0.7014
  0.7057   0.7078   0.7082   0.7113   0.7137   0.7187   0.7192   0.7233
  0.7251   0.7281   0.7323   0.7347   0.7359   0.7412   0.7422   0.7489
  0.7502   0.7517   0.7558   0.7601   0.7619   0.7638   0.7664   0.7690
  0.7712   0.7761   0.7777   0.7815   0.7843   0.7873   0.7911   0.7968
  0.7975   0.8022   0.8037   0.8060   0.8130   0.8157   0.8162   0.8210
  0.8215   0.8250   0.8269   0.8297   0.8345   0.8399   0.8411   0.8425
  0.8468   0.8501   0.8569   0.8577   0.8604   0.8643   0.8658   0.8706
  0.8776   0.8793   0.8818   0.8862   0.8897   0.8925   0.8945   0.8957
  0.9031   0.9096   0.9118   0.9188   0.9220   0.9240   0.9271   0.9290
  0.9356   0.9420   0.9466   0.9481   0.9509   0.9535   0.9604   0.9632
  0.9675   0.9698   0.9749   0.9781   0.9845   0.9875   0.9903   0.9954
  0.9984   1.0068   1.0168   1.0183   1.0229   1.0268   1.0330   1.0373
  1.0472   1.0522   1.0532   1.0589   1.0601   1.0655   1.0687   1.0696
  1.0776   1.0808   1.0920   1.0934   1.0976   1.1006   1.1056   1.1118
  1.1133   1.1167   1.1185   1.1222   1.1231   1.1287   1.1351   1.1391
  1.1436   1.1440   1.1452   1.1487   1.1543   1.1629   1.1656   1.1708
  1.1758   1.1838   1.1875   1.1935   1.1964   1.1989   1.2039   1.2085
  1.2119   1.2147   1.2283   1.2329   1.2374   1.2419   1.2494   1.2546
  1.2558   1.2597   1.2608   1.2674   1.2789   1.2834   1.2871   1.2961
  1.2994   1.3034   1.3084   1.3179   1.3240   1.3273   1.3350   1.3386
  1.3416   1.3488   1.3584   1.3611   1.3687   1.3733   1.3821   1.3844
  1.3856   1.3956   1.3971   1.4058   1.4087   1.4165   1.4202   1.4209
  1.4224   1.4300   1.4344   1.4455   1.4465   1.4493   1.4617   1.4657
  1.4695   1.4731   1.4791   1.4852   1.4940   1.4963   1.5075   1.5135
  1.5238   1.5265   1.5352   1.5389   1.5391   1.5457   1.5494   1.5512
  1.5624   1.5640   1.5685   1.5750   1.5835   1.5857   1.5977   1.6036
  1.6148   1.6175   1.6271   1.6461   1.6498   1.6551   1.6606   1.6693
  1.6812   1.6852   1.6912   1.6995   1.7030   1.7167   1.7205   1.7291
  1.7340   1.7424   1.7510   1.7613   1.7631   1.7703   1.7741   1.7804
  1.7846   1.7882   1.7981   1.8034   1.8095   1.8153   1.8182   1.8245
  1.8253   1.8293   1.8362   1.8493   1.8545   1.8616   1.8678   1.8709
  1.8769   1.8881   1.8932   1.8977   1.9049   1.9072   1.9137   1.9202
  1.9216   1.9284   1.9334   1.9344   1.9406   1.9425   1.9491   1.9534
  1.9624   1.9705   1.9744   1.9791   1.9828   1.9893   1.9940   1.9988
  2.0053   2.0100   2.0144   2.0199   2.0244   2.0285   2.0316   2.0356
  2.0375   2.0443   2.0505   2.0555   2.0608   2.0617   2.0729   2.0756
  2.0801   2.0858   2.0884   2.0955   2.1015   2.1022   2.1081   2.1105
  2.1198   2.1214   2.1244   2.1295   2.1340   2.1370   2.1414   2.1455
  2.1540   2.1546   2.1640   2.1658   2.1714   2.1755   2.1813   2.1883
  2.1920   2.1986   2.2029   2.2056   2.2120   2.2152   2.2216   2.2253
  2.2285   2.2390   2.2414   2.2509   2.2572   2.2576   2.2715   2.2735
  2.2808   2.2900   2.3001   2.3048   2.3064   2.3210   2.3238   2.3255
  2.3292   2.3322   2.3442   2.3540   2.3574   2.3607   2.3688   2.3757
  2.3791   2.3843   2.3913   2.3965   2.4051   2.4072   2.4140   2.4184
  2.4205   2.4276   2.4318   2.4429   2.4456   2.4532   2.4589   2.4723
  2.4747   2.4840   2.4891   2.4960   2.4974   2.5061   2.5259   2.5281
  2.5429   2.5498   2.5543   2.5582   2.5656   2.5700   2.5723   2.5880
  2.5986   2.6036   2.6177   2.6223   2.6305   2.6337   2.6390   2.6436
  2.6468   2.6544   2.6601   2.6630   2.6694   2.6745   2.6802   2.6915
  2.6955   2.7070   2.7117   2.7182   2.7305   2.7341   2.7496   2.7522
  2.7564   2.7589   2.7643   2.7693   2.7717   2.7799   2.7845   2.7925
  2.8012   2.8049   2.8065   2.8151   2.8260   2.8289   2.8368   2.8484
  2.8636   2.8685   2.8801   2.8854   2.9146   2.9206   2.9350   2.9406
  2.9420   2.9549   2.9600   2.9739   2.9817   2.9955   3.0007   3.0148
  3.0188   3.0253   3.0321   3.0511   3.0941   3.0968   3.1108   3.1225
  3.1339   3.1425   3.1496   3.1565   3.1588   3.1647   3.1712   3.1729
  3.1824   3.1899   3.1997   3.2049   3.2088   3.2209   3.2340   3.2377
  3.2521   3.2626   3.2697   3.2725   3.2798   3.2851   3.2884   3.2991
  3.3023   3.3079   3.3122   3.3308   3.3413   3.3549   3.3578   3.3627
  3.3702   3.3737   3.3839   3.4037   3.4214   3.4447   3.4814   3.5129
  3.5346   3.5430   3.5529   3.6027   3.6207   3.6584   3.9225   4.0460
 --------------------------------------------------------------
 
          Ground-State Mulliken Net Atomic Charges

     Atom                 Charge (a.u.)
  ----------------------------------------
      1 N                    -2.342513
      2 C                     0.268253
      3 C                     0.390375
      4 C                     0.285258
      5 C                     0.746423
      6 C                     0.557333
      7 C                     0.322296
      8 C                     0.207353
      9 C                     0.309374
     10 C                     0.017885
     11 C                    -0.081395
     12 C                    -0.055261
     13 C                    -0.001386
     14 C                     0.768954
     15 C                     0.598052
     16 C                     1.364592
     17 C                     0.718647
     18 H                    -0.963906
     19 H                    -0.142546
     20 H                    -0.284963
     21 H                     0.014475
     22 H                    -0.143081
     23 H                    -0.316572
     24 H                    -0.206677
     25 H                    -0.477440
     26 H                    -0.036363
     27 H                    -0.189471
     28 H                    -0.013351
     29 H                    -0.007454
     30 H                    -0.018889
     31 H                    -0.080713
     32 H                     0.151814
     33 H                    -0.382782
     34 H                     0.042284
     35 H                    -0.011808
     36 H                    -0.028721
     37 H                     0.047498
     38 H                     0.057597
     39 H                    -0.071134
     40 H                    -0.015784
     41 H                    -0.092733
     42 H                     0.076092
     43 H                     0.100460
     44 H                    -0.013171
     45 H                     0.072164
     46 H                     0.088009
     47 H                     0.003326
     48 H                     0.162195
     49 H                    -0.613258
     50 H                     0.081376
     51 H                     0.110005
     52 H                     0.040922
     53 H                    -0.011574
     54 O                    -0.835829
     55 H                    -0.399510
     56 C                     0.203248
     57 C                     0.034920
     58 C                    -0.187154
     59 H                     0.068251
     60 C                    -0.082048
     61 H                    -0.083503
     62 C                     0.300600
     63 C                    -0.063479
     64 O                    -0.890940
     65 H                    -0.064622
  ----------------------------------------
  Sum of atomic charges =    -1.000000

  Building new vdw surfaces
         Merz-Kollman RESP Net Atomic Charges

     Atom                 Charge (a.u.)
  ----------------------------------------
      1 N                     0.469906
      2 C                    -0.220395
      3 C                    -0.319756
      4 C                    -0.346195
      5 C                    -0.346195
      6 C                    -0.314132
      7 C                    -0.057052
      8 C                    -0.070654
      9 C                     0.016825
     10 C                     0.303872
     11 C                     0.144473
     12 C                     0.118010
     13 C                     0.149317
     14 C                    -0.629412
     15 C                    -0.453824
     16 C                    -0.453824
     17 C                    -0.453824
     18 H                     0.309220
     19 H                     0.109401
     20 H                     0.132303
     21 H                     0.132303
     22 H                     0.132303
     23 H                     0.132303
     24 H                     0.136113
     25 H                     0.136113
     26 H                     0.111649
     27 H                     0.111649
     28 H                     0.070819
     29 H                     0.070819
     30 H                     0.082353
     31 H                     0.082353
     32 H                     0.055004
     33 H                     0.055004
     34 H                     0.004675
     35 H                     0.004675
     36 H                     0.022279
     37 H                     0.022279
     38 H                     0.022279
     39 H                     0.022279
     40 H                     0.007731
     41 H                     0.007731
     42 H                     0.151834
     43 H                     0.151834
     44 H                     0.151834
     45 H                     0.112958
     46 H                     0.112958
     47 H                     0.112958
     48 H                     0.112994
     49 H                     0.112994
     50 H                     0.112994
     51 H                     0.110811
     52 H                     0.110811
     53 H                     0.110811
     54 O                    -0.976766
     55 H                     0.089774
     56 C                    -0.226628
     57 C                     0.342843
     58 C                    -0.528798
     59 H                     0.166850
     60 C                    -0.264063
     61 H                     0.150383
     62 C                     0.657658
     63 C                    -0.573589
     64 O                    -1.024462
     65 H                     0.210233
  ----------------------------------------
  Sum of atomic charges =    -1.000000

  Related Dipole Moment =    43.5571 (X -9.6213 Y 38.4637 Z 18.0330)

 -----------------------------------------------------------------
                    Cartesian Multipole Moments
 -----------------------------------------------------------------
    Charge (ESU x 10^10)
                -4.8032
    Dipole Moment (Debye)
         X      -9.6151      Y      38.6225      Z      18.1547
       Tot      43.7463
    Quadrupole Moments (Debye-Ang)
        XX    -193.3006     XY      16.8011     YY    -362.2175
        XZ      25.3887     YZ     -78.5947     ZZ    -199.0599
    Octopole Moments (Debye-Ang^2)
       XXX    -378.5418    XXY     305.7256    XYY     -91.9412
       YYY    1865.3903    XXZ     229.7739    XYZ     -54.0433
       YYZ     543.8614    XZZ    -162.0431    YZZ     378.2605
       ZZZ     498.0515
    Hexadecapole Moments (Debye-Ang^3)
      XXXX   -5946.2307   XXXY     551.5776   XXYY   -2590.4644
      XYYY     101.6228   YYYY  -15973.9860   XXXZ     554.8429
      XXYZ    -654.5905   XYYZ     151.9177   YYYZ   -3759.2165
      XXZZ   -1817.5070   XYZZ     235.0386   YYZZ   -2901.3932
      XZZZ     488.9031   YZZZ   -1689.6354   ZZZZ   -4219.8420
 -----------------------------------------------------------------
 Calculating analytic gradient of the SCF energy
 Gradient of SCF Energy
            1           2           3           4           5           6
    1   0.0028779  -0.0116575   0.0043383  -0.0046089   0.0055582   0.0092346
    2  -0.0024609  -0.0104573  -0.0037607  -0.0309622   0.0102779   0.0186654
    3  -0.0132118   0.0062889   0.0051784  -0.0217855  -0.0140021   0.0090066
            7           8           9          10          11          12
    1   0.0041541   0.0349330  -0.0074748   0.0019844  -0.0041382  -0.0037797
    2  -0.0066289  -0.0222818  -0.0076345  -0.0036015  -0.0017773  -0.0120926
    3  -0.0108380   0.0084861   0.0193143  -0.0043882   0.0031491  -0.0161801
           13          14          15          16          17          18
    1   0.0110238  -0.0113740   0.0038123   0.0532425  -0.0114575   0.0059757
    2   0.0002142   0.0055984  -0.0031833   0.0241948  -0.0123591  -0.0122458
    3  -0.0064157  -0.0141191  -0.0025908   0.0163499   0.0085808  -0.0431900
           19          20          21          22          23          24
    1   0.0043654  -0.0016251   0.0023063   0.0103331  -0.0026078   0.0034309
    2   0.0200848  -0.0079523   0.0104932   0.0111334  -0.0016883  -0.0122848
    3  -0.0063632  -0.0029923  -0.0027570   0.0152930   0.0135030  -0.0084014
           25          26          27          28          29          30
    1   0.0069670   0.0126645  -0.0112418   0.0027017  -0.0009230   0.0150874
    2  -0.0032638  -0.0026775  -0.0096186   0.0101737  -0.0060207   0.0081531
    3   0.0054929  -0.0105770   0.0237233   0.0034405   0.0000771  -0.0168684
           31          32          33          34          35          36
    1  -0.0692413   0.0209938  -0.0398273  -0.0205365   0.0229110  -0.0029835
    2   0.0345650   0.0055161  -0.0023781  -0.0072064   0.0161805  -0.0026766
    3   0.0121349   0.0174299  -0.0030400   0.0244539  -0.0050163  -0.0017519
           37          38          39          40          41          42
    1  -0.0004310  -0.0329199   0.0105261  -0.0063809   0.0093314   0.0084454
    2   0.0070994  -0.0039519  -0.0283860   0.0063398  -0.0101313  -0.0059525
    3  -0.0022223   0.0291295  -0.0030111  -0.0156709  -0.0001866  -0.0110074
           43          44          45          46          47          48
    1  -0.0102572  -0.0102447   0.0037703  -0.0010944   0.0036379   0.0169805
    2  -0.0118145   0.0182370   0.0060066  -0.0052250  -0.0016306   0.0009134
    3   0.0101594  -0.0077498   0.0041458   0.0032001  -0.0061874  -0.0236010
           49          50          51          52          53          54
    1  -0.0462520   0.0241099   0.0114520  -0.0149035  -0.0111795   0.0109979
    2   0.0271541   0.0057637  -0.0001547   0.0238268  -0.0176896  -0.0284269
    3  -0.0046459   0.0240830   0.0172904  -0.0051947  -0.0007986  -0.0113892
           55          56          57          58          59          60
    1  -0.0624805  -0.0190597  -0.0127273  -0.0134154  -0.0356010   0.0160651
    2   0.0265709  -0.0336696  -0.0608004   0.0337402   0.0636050  -0.0232523
    3  -0.0238009  -0.0943363  -0.0412531   0.0026306  -0.0954030   0.0554895
           61          62          63          64          65
    1  -0.0300582   0.0586911   0.0369046   0.0265031   0.0341708
    2  -0.0464098  -0.0046740   0.0210226   0.0306241   0.0212283
    3   0.0994469  -0.0330461   0.0464481  -0.0073818   0.1074489
 Max gradient component =       1.074E-01
 RMS gradient           =       2.436E-02
 Computing fast CPCM-SWIG gradient
 Updating gradient with PCM contributions...
 -- total gradient after adding PCM contribution --
---------------------------------------------------
  Atom         X              Y              Z     
---------------------------------------------------
   1      -0.000007       0.000006       0.000012
   2      -0.000001       0.000005      -0.000002
   3      -0.000001       0.000009      -0.000000
   4       0.000001      -0.000006       0.000004
   5       0.000008      -0.000000      -0.000011
   6      -0.000010       0.000008       0.000002
   7      -0.000004       0.000000      -0.000001
   8       0.000005      -0.000006      -0.000003
   9      -0.000001       0.000003       0.000006
  10      -0.000002       0.000003       0.000002
  11      -0.000004      -0.000002      -0.000004
  12       0.000001      -0.000001      -0.000003
  13      -0.000002       0.000007       0.000007
  14      -0.000004       0.000002       0.000010
  15      -0.000002      -0.000005      -0.000006
  16       0.000010      -0.000003      -0.000004
  17       0.000006       0.000007       0.000004
  18      -0.000000      -0.000020       0.000008
  19       0.000002      -0.000005      -0.000006
  20      -0.000004      -0.000001      -0.000001
  21      -0.000002      -0.000001      -0.000003
  22       0.000002       0.000001      -0.000002
  23      -0.000001      -0.000002      -0.000000
  24       0.000002      -0.000000      -0.000001
  25      -0.000004      -0.000006      -0.000000
  26      -0.000002       0.000003       0.000000
  27      -0.000003       0.000001       0.000004
  28      -0.000002      -0.000003      -0.000002
  29      -0.000001      -0.000003      -0.000004
  30       0.000000       0.000001      -0.000001
  31       0.000005      -0.000006      -0.000006
  32       0.000003       0.000002       0.000000
  33      -0.000005      -0.000006      -0.000008
  34      -0.000001       0.000003       0.000005
  35      -0.000001       0.000001       0.000002
  36      -0.000004      -0.000002      -0.000003
  37      -0.000005      -0.000001      -0.000003
  38       0.000004       0.000000      -0.000001
  39       0.000000      -0.000003      -0.000002
  40      -0.000002       0.000000       0.000002
  41       0.000001      -0.000000      -0.000001
  42      -0.000004       0.000002       0.000003
  43      -0.000003       0.000003       0.000005
  44      -0.000004       0.000003       0.000004
  45      -0.000002      -0.000003      -0.000006
  46      -0.000003      -0.000002      -0.000005
  47      -0.000004      -0.000002      -0.000005
  48       0.000002      -0.000002      -0.000004
  49       0.000006      -0.000001      -0.000004
  50       0.000004      -0.000002      -0.000004
  51       0.000002       0.000000       0.000004
  52       0.000001       0.000002       0.000005
  53       0.000000       0.000001       0.000004
  54       0.000039       0.000021       0.000007
  55      -0.000001      -0.000001       0.000000
  56       0.000003      -0.000000       0.000004
  57      -0.000008       0.000003      -0.000011
  58      -0.000001      -0.000001      -0.000000
  59       0.000001      -0.000000       0.000001
  60      -0.000001       0.000003       0.000002
  61       0.000006       0.000001       0.000001
  62       0.000006       0.000003       0.000006
  63      -0.000006       0.000005       0.000003
  64      -0.000003      -0.000013       0.000001
  65      -0.000001      -0.000001      -0.000001
---------------------------------------------------
 Number of fixed atoms: 0
 Gradient time:  CPU 4392.53 s  wall 226.54 s
 Geometry Optimization Parameters
   NAtoms,    NIC,     NZ,  NCons,   NDum,   NFix, NCnnct, MaxDiis
       65     491       0       0       0       0       0       0

 Cartesian Hessian read from HESS file


** GEOMETRY OPTIMIZATION IN DELOCALIZED INTERNAL COORDINATES **
   Searching for a Minimum

   Optimization Cycle:   1

                       Coordinates (Angstroms)
     ATOM                X               Y               Z
      1  N         0.2957771893    0.0871560681   -0.2355736821
      2  C         1.3420522501   -0.8665066640    0.2983721320
      3  C        -0.7101412014    0.3833174418    0.8503547207
      4  C        -0.3535022807   -0.5582590940   -1.4352363713
      5  C         0.9206470732    1.3913905082   -0.6610522363
      6  C         2.2445360732   -0.3142606506    1.3879856051
      7  C        -2.0134594581    1.0229569187    0.3988322860
      8  C        -1.1233706400   -1.8408083300   -1.1541759773
      9  C         1.9324169820    1.2941380562   -1.7932945422
     10  C         3.1353567228   -1.4297507430    1.9355887251
     11  C        -2.8725478268    1.3808961717    1.6113700641
     12  C        -2.0803775546   -2.1357742840   -2.3071186325
     13  C         2.8568206506    2.5103927343   -1.7935684147
     14  C         4.0882714260   -0.9389158404    3.0188052966
     15  C        -4.2140130970    1.9846124774    1.2132699367
     16  C        -2.8414472495   -3.4398339445   -2.1079843735
     17  C         3.8450752499    2.4858251926   -2.9536395970
     18  H         1.9415440949   -1.1940069515   -0.5630730305
     19  H         0.7889647821   -1.7350060122    0.6690818144
     20  H        -0.2037392513    1.0384098318    1.5662325895
     21  H        -0.9138089414   -0.5620932620    1.3631011270
     22  H         0.4547040537   -0.7727252775   -2.1417508798
     23  H        -1.0042720331    0.2044346345   -1.8772657639
     24  H         1.3823058407    1.8141403659    0.2365106105
     25  H         0.0984232195    2.0565890355   -0.9412082200
     26  H         1.6668355910    0.1201527792    2.2162090092
     27  H         2.8886258445    0.4811799870    0.9870881730
     28  H        -2.5783663085    0.3354451779   -0.2447606663
     29  H        -1.8270003275    1.9324631283   -0.1887312853
     30  H        -1.7042140024   -1.7722853776   -0.2239357259
     31  H        -0.4216174223   -2.6782932156   -1.0460567311
     32  H         1.4050693739    1.2394734174   -2.7562249005
     33  H         2.5240154601    0.3709054964   -1.7202477851
     34  H         3.7079538540   -1.8690425998    1.1053029904
     35  H         2.5004265400   -2.2359478424    2.3337898876
     36  H        -2.3205057871    2.0863766350    2.2509277316
     37  H        -3.0376990671    0.4761065942    2.2167121184
     38  H        -1.5023535518   -2.1844986656   -3.2419732815
     39  H        -2.7884802612   -1.2978412471   -2.4135281099
     40  H         3.4056880359    2.5422108616   -0.8391043834
     41  H         2.2565423569    3.4328502554   -1.8355233241
     42  H         3.5343871080   -0.5235272260    3.8730769816
     43  H         4.7499141103   -0.1500452807    2.6329308582
     44  H         4.7195566968   -1.7563760527    3.3907402361
     45  H        -4.7926072105    1.2837418403    0.5944170735
     46  H        -4.0734408921    2.9075346729    0.6323080981
     47  H        -4.8158946639    2.2304001049    2.0977539662
     48  H        -3.4364749216   -3.4079293157   -1.1828357060
     49  H        -2.1425036363   -4.2847042685   -2.0382958861
     50  H        -3.5293490400   -3.6296574979   -2.9431135979
     51  H         3.3169595108    2.4789936537   -3.9181324990
     52  H         4.4752681965    1.5857884829   -2.9104031445
     53  H         4.5033951285    3.3642583951   -2.9340768492
     54  O         2.8879702467   -1.9146176783   -2.2632976823
     55  H         2.7559807675   -3.6069910719   -0.2342516859
     56  C         2.1028381256   -3.8501757453   -1.0781007807
     57  C         2.1353026679   -2.9904289233   -2.2077124980
     58  C         1.2566546011   -4.9618133945   -0.9880387976
     59  H         1.2752656219   -5.5719088764   -0.0780262709
     60  C         1.2477926569   -3.3711646493   -3.2477696184
     61  H         1.2128200087   -2.7441259822   -4.1455247260
     62  C         0.3643722933   -5.3431921125   -2.0276812936
     63  C         0.4104209589   -4.4885906965   -3.1639372981
     64  O        -0.4312412148   -6.3800699091   -1.9437151569
     65  H        -0.2658035225   -4.7119922370   -3.9962506264
   Point Group: c1    Number of degrees of freedom:   189


   Energy is  -1066.722169727


 Attempting to generate delocalized internal coordinates

 Transforming Cartesian Hessian to Internal Coordinates
 Hessian Transformation does not Include Derivative of B-matrix

189 Hessian modes will be used to form the next step
  Hessian Eigenvalues:
    -0.805199   -0.073580   -0.043030   -0.003536    0.001736    0.001975
     0.002256    0.002332    0.002523    0.002597    0.002612    0.002723
     0.002738    0.003526    0.003724    0.004809    0.005321    0.005650
     0.007737    0.009094    0.015184    0.017388    0.017418    0.018239
     0.018876    0.021053    0.023215    0.025495    0.026821    0.029538
     0.031263    0.031983    0.033444    0.034517    0.036827    0.037304
     0.037700    0.037913    0.038150    0.038317    0.038476    0.038596
     0.038750    0.038809    0.038977    0.039130    0.039324    0.039666
     0.040034    0.040971    0.041569    0.041818    0.043096    0.043501
     0.044484    0.044535    0.044645    0.044679    0.045136    0.045397
     0.045439    0.045446    0.051940    0.057798    0.061835    0.064345
     0.069936    0.070506    0.071413    0.072378    0.073019    0.073742
     0.074439    0.075529    0.078480    0.079615    0.083292    0.095418
     0.098884    0.101222    0.102580    0.103330    0.105255    0.106801
     0.109794    0.116598    0.118282    0.120354    0.121242    0.121506
     0.121701    0.122511    0.123886    0.127497    0.128800    0.132526
     0.136077    0.136813    0.137297    0.140376    0.141249    0.146661
     0.148909    0.151853    0.157757    0.158042    0.159721    0.160714
     0.171394    0.176252    0.178761    0.184373    0.189948    0.197296
     0.200053    0.209336    0.219575    0.220115    0.223210    0.229738
     0.232166    0.242793    0.262122    0.265431    0.274177    0.285762
     0.291301    0.293372    0.299943    0.301143    0.302985    0.305397
     0.312245    0.313470    0.313794    0.316273    0.317281    0.322062
     0.328733    0.330256    0.332081    0.332251    0.332597    0.333629
     0.335776    0.336017    0.336395    0.336568    0.337893    0.338073
     0.338454    0.338634    0.338956    0.339018    0.339212    0.339373
     0.340767    0.341034    0.341189    0.341263    0.341852    0.342457
     0.342993    0.343570    0.344446    0.345368    0.345904    0.346346
     0.346369    0.347016    0.347755    0.348459    0.348856    0.349316
     0.350084    0.351261    0.351361    0.354385    0.358937    0.379368
     0.381117    0.385103    0.411373    0.412839    0.422957    0.468888
     0.499459    0.512616    0.702073
**WARNING** Hessian does not have the desired local structure
**WARNING** Hessian does not have the desired local structure

 Minimum search - taking simple RFO step
 Searching for Lamda that Minimizes Along All modes
**Fail: lambda matches lowest eigenvalue
**Fail: lambda matches lowest eigenvalue
**Fail: lambda matches lowest eigenvalue


 ****************************************
 ** UNABLE TO DETERMINE Lamda IN FormD **
 ****************************************


 Taking simple Newton-Raphson step
 Step Taken.  Stepsize is  0.004839

                             Maximum     Tolerance    Cnvgd?
         Gradient           0.000135      0.000300     YES
         Displacement       0.001903      0.001200      NO
         Energy change     *********      0.000001      NO


 New Cartesian Coordinates Obtained by Inverse Iteration

 Displacement from previous Coordinates is:  0.024884
 ----------------------------------------------------------------
             Standard Nuclear Orientation (Angstroms)
    I     Atom           X                Y                Z
 ----------------------------------------------------------------
    1      N       0.2953045141     0.0871740729    -0.2350575856
    2      C       1.3416515365    -0.8663780998     0.2989323556
    3      C      -0.7106647625     0.3831096803     0.8508226182
    4      C      -0.3538117603    -0.5581749766    -1.4348542158
    5      C       0.9201668424     1.3914088265    -0.6605273547
    6      C       2.2444927726    -0.3139372231     1.3881506308
    7      C      -2.0137522434     1.0232720796     0.3994098527
    8      C      -1.1237886865    -1.8407008097    -1.1541228590
    9      C       1.9320318747     1.2936324849    -1.7926355208
   10      C       3.1358675834    -1.4292214708     1.9352549652
   11      C      -2.8730266943     1.3805298719     1.6120145056
   12      C      -2.0797668091    -2.1359194729    -2.3078526391
   13      C       2.8568249071     2.5095312679    -1.7936044536
   14      C       4.0898500464    -0.9379697326     3.0173238063
   15      C      -4.2143498872     1.9846696367     1.2140801334
   16      C      -2.8411905832    -3.4398279391    -2.1090803910
   17      C       3.8450266124     2.4835860981    -2.9536914677
   18      H       1.9410112204    -1.1938925125    -0.5625818125
   19      H       0.7886380002    -1.7347823425     0.6699620093
   20      H      -0.2041906578     1.0377680807     1.5670555568
   21      H      -0.9146353476    -0.5624755879     1.3631262291
   22      H       0.4545140578    -0.7726967058    -2.1412010744
   23      H      -1.0044275084     0.2045938005    -1.8769892665
   24      H       1.3816870853     1.8143020017     0.2370385083
   25      H       0.0980308855     2.0566049436    -0.9409501936
   26      H       1.6671029752     0.1203506004     2.2166613450
   27      H       2.8882233523     0.4816307981     0.9869266194
   28      H      -2.5786319943     0.3363032798    -0.2447850439
   29      H      -1.8270019350     1.9331577852    -0.1874705817
   30      H      -1.7054219219    -1.7720539282    -0.2243847070
   31      H      -0.4220319976    -2.6780885535    -1.0452690988
   32      H       1.4047323760     1.2386029814    -2.7555705927
   33      H       2.5234835861     0.3703558475    -1.7191352780
   34      H       3.7076868635    -1.8687284186     1.1045500943
   35      H       2.5013652969    -2.2353243448     2.3343303995
   36      H      -2.3210065093     2.0855345608     2.2521159618
   37      H      -3.0383715156     0.4753649864     2.2167417345
   38      H      -1.5008910587    -2.1849904207    -3.2421582615
   39      H      -2.7876782451    -1.2979385455    -2.4151528189
   40      H       3.4057209412     2.5417546238    -0.8391670755
   41      H       2.2569597339     3.4322317624    -1.8361811417
   42      H       3.5368357217    -0.5222880959     3.8720188101
   43      H       4.7510513016    -0.1492141874     2.6304635521
   44      H       4.7215579940    -1.7552634872     3.3889097262
   45      H      -4.7929493441     1.2842411985     0.5947322146
   46      H      -4.0735690795     2.9079113018     0.6336771822
   47      H      -4.8163298210     2.2300129886     2.0986191337
   48      H      -3.4369820141    -3.4076480917    -1.1844318287
   49      H      -2.1424629353    -4.2848191592    -2.0386711886
   50      H      -3.5284349009    -3.6296847230    -2.9447439223
   51      H       3.3168705315     2.4763939896    -3.9181628308
   52      H       4.4746837178     1.5832014695    -2.9098523848
   53      H       4.5038778345     3.3616403927    -2.9347935224
   54      O       2.8877752073    -1.9138932970    -2.2620801342
   55      H       2.7534330578    -3.6054670548    -0.2325075641
   56      C       2.1014648254    -3.8490754960    -1.0771296874
   57      C       2.1353544228    -2.9898672066    -2.2070806756
   58      C       1.2551204176    -4.9606164782    -0.9876702328
   59      H       1.2724145314    -5.5702103513    -0.0773044228
   60      C       1.2494901490    -3.3712225847    -3.2482961060
   61      H       1.2158776094    -2.7446964369    -4.1464580873
   62      C       0.3642767582    -5.3424587302    -2.0283642294
   63      C       0.4120938509    -4.4886486402    -3.1651232005
   64      O      -0.4316886924    -6.3790624115    -1.9448791331
   65      H      -0.2627740896    -4.7126538964    -3.9983753602
 ----------------------------------------------------------------
 Nuclear Repulsion Energy =        2434.34175790 hartrees
 There are       98 alpha and       98 beta electrons
 Discretize the solute cavity surface with Lebedev spheres
	Using 194 Lebedev grid points for each H atom
	Using 194 Lebedev grid points for other atoms
	Atomic van der Waals radii will be scaled by 1.10
 Remove points where switching function is < 1.0e-08
 Keep 4326 surface tesserae and discard 8284 interior tesserae
 Molecular Surface Area = 488.529 Angst**2
 Applying Cartesian multipole field
    Component          Value
    ---------          -----
     (2,0,0)        1.00000E-11
     (0,2,0)        2.00000E-12
     (0,0,2)       -3.00000E-11
 Nucleus-field energy     =    -0.0000000297 hartrees
 Requested basis set is def2-SVPD
 There are 362 shells and 826 basis functions
 A cutoff of  1.0D-16 yielded  57583 shell pairs
 There are    298973 function pairs (    336436 Cartesian)
 Smallest overlap matrix eigenvalue = 5.57E-06
 Guess from superposition of atomic densities
 Warning:  Energy on first SCF cycle will be non-variational
 SAD guess density has 195.000000 electrons

 -----------------------------------------------------------------------
  General SCF calculation program by
  Eric Jon Sundstrom, Paul Horn, Yuezhi Mao, Dmitri Zuev, Alec White,
  David Stuck, Shaama M.S., Shane Yost, Joonho Lee, David Small,
  Daniel Levine, Susi Lehtola, Hugh Burton, Evgeny Epifanovsky,
  Bang C. Huynh
 -----------------------------------------------------------------------
 Exchange:     0.2220 Hartree-Fock + 1.0000 wB97X-D + LR-HF
 Correlation:  1.0000 wB97X-D
 Using SG-3 standard quadrature grid
 Dispersion:   Grimme D
 A restricted SCF calculation will be
 performed using DIIS
 SCF converges when DIIS error is below 1.0e-08
 ---------------------------------------
  Cycle       Energy         DIIS error
 ---------------------------------------
    1   -1073.4259345257      2.08e-02  
    2   -1066.2730371300      2.31e-03  
    3   -1066.2506282235      2.66e-03  
    4   -1066.7094355072      4.03e-04  
    5   -1066.7208095801      1.29e-04  
    6   -1066.7220603714      3.63e-05  
    7   -1066.7221552573      1.28e-05  
    8   -1066.7221687594      2.24e-06  
    9   -1066.7221694653      9.82e-07  
   10   -1066.7221694348      2.71e-07  
   11   -1066.7221696891      1.79e-07  
   12   -1066.7221695961      4.51e-08  
   13   -1066.7221695699      1.66e-08  
   14   -1066.7221696766      7.75e-09  Convergence criterion met
 ---------------------------------------
 SCF time:   CPU 20731.15s  wall 990.00s 

************** Final PCM Free Energy Summary **************
 G_electrostatic  =      -0.16481575 hartree =    -103.42344713 kcal/mol
 G_cavitation     =       0.00000000 hartree =       0.00000000 kcal/mol
 G_dispersion     =       0.00000000 hartree =       0.00000000 kcal/mol
 G_repulsion      =       0.00000000 hartree =       0.00000000 kcal/mol
 --------------------------------------------------
 Non-electrostatic Free Energy =       0.00000000 hartree =       0.00000000 kcal/mol
 Total                         =      -0.16481575 hartree =    -103.42344713 kcal/mol
 --------------------------------------------------
 SCF Energy (H0 + V/2)                       =   -1066.72216968 
 Solute Internal Energy (H0)                 =   -1066.55735392 
 Total Free Energy (H0 + V/2 + non-elec)     =   -1066.72216968 hartree
                                             = -669378.26439773 kcal/mol
***********************************************************

 SCF   energy in the final basis set =    -1066.7221696766
 Total energy in the final basis set =    -1066.7221696766
 
 --------------------------------------------------------------
 
                    Orbital Energies (a.u.)
 --------------------------------------------------------------
 
 Alpha MOs
 -- Occupied --
-19.1529 -19.1498 -14.5731 -10.3538 -10.3507 -10.3435 -10.3338 -10.3094
-10.3031 -10.3011 -10.2973 -10.2969 -10.2963 -10.2940 -10.2921 -10.2914
-10.2893 -10.2886 -10.2862 -10.2860 -10.2756 -10.2499 -10.2497 -10.2489
-10.2486  -1.1108  -1.0083  -1.0031  -0.9139  -0.9049  -0.9042  -0.8882
 -0.8680  -0.8411  -0.8385  -0.8337  -0.7962  -0.7871  -0.7533  -0.7521
 -0.7328  -0.7313  -0.6851  -0.6806  -0.6789  -0.6732  -0.6582  -0.6495
 -0.6222  -0.6138  -0.5997  -0.5940  -0.5829  -0.5684  -0.5560  -0.5532
 -0.5269  -0.5239  -0.5146  -0.5123  -0.5113  -0.5080  -0.5070  -0.5042
 -0.4993  -0.4957  -0.4893  -0.4866  -0.4772  -0.4663  -0.4643  -0.4569
 -0.4533  -0.4477  -0.4439  -0.4407  -0.4377  -0.4348  -0.4295  -0.4271
 -0.4270  -0.4232  -0.4213  -0.4154  -0.4146  -0.4141  -0.4123  -0.4079
 -0.4054  -0.4004  -0.3967  -0.3924  -0.3841  -0.3034  -0.2915  -0.2756
 -0.2725  -0.1898
 -- Virtual --
  0.0819   0.0868   0.0884   0.0915   0.0958   0.1073   0.1080   0.1096
  0.1134   0.1155   0.1238   0.1273   0.1299   0.1350   0.1376   0.1383
  0.1418   0.1485   0.1513   0.1561   0.1583   0.1631   0.1651   0.1711
  0.1732   0.1769   0.1807   0.1833   0.1845   0.1879   0.1905   0.1934
  0.1949   0.1976   0.1996   0.1999   0.2039   0.2065   0.2097   0.2111
  0.2129   0.2161   0.2206   0.2212   0.2228   0.2254   0.2273   0.2310
  0.2335   0.2393   0.2403   0.2408   0.2446   0.2470   0.2493   0.2530
  0.2558   0.2584   0.2631   0.2631   0.2661   0.2712   0.2714   0.2746
  0.2757   0.2784   0.2817   0.2844   0.2884   0.2889   0.2919   0.2946
  0.2977   0.3018   0.3038   0.3066   0.3081   0.3132   0.3152   0.3177
  0.3216   0.3227   0.3250   0.3299   0.3304   0.3352   0.3384   0.3423
  0.3447   0.3453   0.3473   0.3548   0.3579   0.3592   0.3632   0.3647
  0.3667   0.3670   0.3707   0.3743   0.3753   0.3783   0.3801   0.3828
  0.3853   0.3893   0.3916   0.3935   0.3961   0.4008   0.4034   0.4044
  0.4059   0.4086   0.4119   0.4135   0.4155   0.4186   0.4199   0.4207
  0.4230   0.4242   0.4265   0.4269   0.4293   0.4316   0.4347   0.4356
  0.4361   0.4397   0.4405   0.4427   0.4456   0.4482   0.4487   0.4503
  0.4526   0.4534   0.4558   0.4581   0.4592   0.4648   0.4670   0.4687
  0.4702   0.4724   0.4750   0.4758   0.4788   0.4802   0.4823   0.4872
  0.4885   0.4892   0.4940   0.4958   0.4988   0.4999   0.5007   0.5016
  0.5064   0.5073   0.5091   0.5113   0.5145   0.5167   0.5196   0.5237
  0.5240   0.5255   0.5276   0.5290   0.5306   0.5332   0.5353   0.5396
  0.5411   0.5418   0.5435   0.5486   0.5503   0.5541   0.5561   0.5573
  0.5604   0.5613   0.5631   0.5661   0.5681   0.5693   0.5722   0.5757
  0.5773   0.5810   0.5817   0.5849   0.5856   0.5897   0.5923   0.5934
  0.5953   0.6005   0.6015   0.6032   0.6048   0.6110   0.6126   0.6144
  0.6169   0.6197   0.6246   0.6266   0.6277   0.6331   0.6356   0.6368
  0.6398   0.6409   0.6431   0.6465   0.6491   0.6522   0.6543   0.6553
  0.6613   0.6628   0.6632   0.6651   0.6684   0.6721   0.6765   0.6808
  0.6827   0.6836   0.6855   0.6904   0.6920   0.6948   0.6977   0.7014
  0.7056   0.7079   0.7083   0.7114   0.7137   0.7188   0.7192   0.7233
  0.7251   0.7281   0.7323   0.7348   0.7359   0.7412   0.7423   0.7489
  0.7502   0.7517   0.7558   0.7602   0.7619   0.7639   0.7664   0.7690
  0.7711   0.7761   0.7778   0.7815   0.7842   0.7873   0.7912   0.7968
  0.7976   0.8023   0.8037   0.8060   0.8131   0.8157   0.8163   0.8210
  0.8215   0.8250   0.8270   0.8298   0.8345   0.8399   0.8412   0.8425
  0.8469   0.8502   0.8570   0.8577   0.8604   0.8643   0.8658   0.8706
  0.8777   0.8793   0.8819   0.8863   0.8897   0.8926   0.8944   0.8957
  0.9031   0.9096   0.9119   0.9188   0.9220   0.9240   0.9271   0.9290
  0.9356   0.9420   0.9467   0.9480   0.9510   0.9536   0.9605   0.9632
  0.9674   0.9698   0.9750   0.9781   0.9845   0.9876   0.9903   0.9955
  0.9984   1.0069   1.0168   1.0183   1.0230   1.0269   1.0331   1.0373
  1.0472   1.0523   1.0532   1.0589   1.0602   1.0656   1.0687   1.0697
  1.0776   1.0808   1.0920   1.0934   1.0976   1.1006   1.1055   1.1118
  1.1133   1.1167   1.1184   1.1222   1.1232   1.1288   1.1351   1.1392
  1.1436   1.1440   1.1453   1.1487   1.1543   1.1629   1.1657   1.1708
  1.1758   1.1838   1.1875   1.1935   1.1962   1.1989   1.2039   1.2085
  1.2120   1.2147   1.2283   1.2329   1.2375   1.2419   1.2495   1.2546
  1.2558   1.2598   1.2609   1.2675   1.2791   1.2834   1.2872   1.2962
  1.2995   1.3036   1.3084   1.3179   1.3241   1.3274   1.3350   1.3387
  1.3416   1.3488   1.3583   1.3612   1.3687   1.3732   1.3822   1.3844
  1.3856   1.3957   1.3971   1.4059   1.4087   1.4165   1.4202   1.4211
  1.4225   1.4300   1.4344   1.4456   1.4465   1.4494   1.4618   1.4657
  1.4695   1.4732   1.4791   1.4852   1.4940   1.4965   1.5076   1.5134
  1.5238   1.5265   1.5353   1.5389   1.5391   1.5457   1.5493   1.5512
  1.5624   1.5640   1.5686   1.5750   1.5835   1.5858   1.5976   1.6036
  1.6148   1.6175   1.6271   1.6460   1.6499   1.6550   1.6604   1.6693
  1.6812   1.6853   1.6913   1.6996   1.7030   1.7168   1.7206   1.7291
  1.7340   1.7423   1.7509   1.7615   1.7631   1.7704   1.7740   1.7804
  1.7846   1.7882   1.7981   1.8035   1.8095   1.8152   1.8183   1.8246
  1.8254   1.8292   1.8361   1.8492   1.8546   1.8617   1.8679   1.8709
  1.8768   1.8882   1.8932   1.8978   1.9049   1.9072   1.9136   1.9201
  1.9216   1.9284   1.9335   1.9343   1.9407   1.9425   1.9492   1.9534
  1.9625   1.9706   1.9744   1.9791   1.9829   1.9894   1.9941   1.9989
  2.0054   2.0101   2.0144   2.0199   2.0243   2.0285   2.0316   2.0357
  2.0376   2.0444   2.0505   2.0555   2.0609   2.0618   2.0729   2.0756
  2.0801   2.0859   2.0884   2.0956   2.1015   2.1023   2.1081   2.1105
  2.1198   2.1215   2.1244   2.1296   2.1340   2.1370   2.1414   2.1456
  2.1539   2.1546   2.1640   2.1659   2.1714   2.1756   2.1813   2.1883
  2.1920   2.1986   2.2030   2.2056   2.2120   2.2152   2.2217   2.2253
  2.2286   2.2391   2.2415   2.2510   2.2572   2.2576   2.2716   2.2736
  2.2807   2.2900   2.3001   2.3049   2.3064   2.3211   2.3238   2.3254
  2.3292   2.3322   2.3442   2.3540   2.3575   2.3607   2.3689   2.3757
  2.3791   2.3843   2.3913   2.3965   2.4052   2.4072   2.4140   2.4184
  2.4205   2.4276   2.4318   2.4429   2.4456   2.4532   2.4590   2.4724
  2.4746   2.4841   2.4890   2.4961   2.4975   2.5061   2.5258   2.5281
  2.5429   2.5498   2.5543   2.5582   2.5656   2.5700   2.5723   2.5880
  2.5986   2.6036   2.6178   2.6223   2.6306   2.6337   2.6391   2.6436
  2.6468   2.6544   2.6601   2.6630   2.6694   2.6744   2.6802   2.6915
  2.6955   2.7071   2.7116   2.7183   2.7305   2.7341   2.7496   2.7523
  2.7564   2.7589   2.7643   2.7693   2.7718   2.7799   2.7845   2.7925
  2.8012   2.8050   2.8066   2.8151   2.8259   2.8289   2.8367   2.8485
  2.8636   2.8685   2.8801   2.8856   2.9146   2.9207   2.9350   2.9407
  2.9420   2.9549   2.9600   2.9739   2.9817   2.9955   3.0007   3.0149
  3.0188   3.0253   3.0321   3.0511   3.0941   3.0968   3.1109   3.1225
  3.1338   3.1426   3.1496   3.1565   3.1588   3.1647   3.1712   3.1729
  3.1824   3.1899   3.1998   3.2049   3.2089   3.2209   3.2340   3.2377
  3.2521   3.2626   3.2698   3.2725   3.2799   3.2851   3.2884   3.2991
  3.3024   3.3080   3.3122   3.3307   3.3413   3.3549   3.3579   3.3627
  3.3702   3.3737   3.3839   3.4037   3.4214   3.4448   3.4813   3.5130
  3.5347   3.5431   3.5528   3.6028   3.6208   3.6586   3.9226   4.0460
 --------------------------------------------------------------
 
          Ground-State Mulliken Net Atomic Charges

     Atom                 Charge (a.u.)
  ----------------------------------------
      1 N                    -2.342218
      2 C                     0.267947
      3 C                     0.390681
      4 C                     0.284685
      5 C                     0.747458
      6 C                     0.557653
      7 C                     0.322197
      8 C                     0.208013
      9 C                     0.308534
     10 C                     0.017456
     11 C                    -0.081752
     12 C                    -0.056072
     13 C                    -0.000310
     14 C                     0.769195
     15 C                     0.598043
     16 C                     1.365014
     17 C                     0.718649
     18 H                    -0.964280
     19 H                    -0.142550
     20 H                    -0.285003
     21 H                     0.014156
     22 H                    -0.142913
     23 H                    -0.316653
     24 H                    -0.206671
     25 H                    -0.477548
     26 H                    -0.036606
     27 H                    -0.189944
     28 H                    -0.013344
     29 H                    -0.007147
     30 H                    -0.019023
     31 H                    -0.080186
     32 H                     0.151842
     33 H                    -0.383438
     34 H                     0.042676
     35 H                    -0.011804
     36 H                    -0.028519
     37 H                     0.047487
     38 H                     0.057589
     39 H                    -0.070621
     40 H                    -0.015851
     41 H                    -0.093049
     42 H                     0.076180
     43 H                     0.100374
     44 H                    -0.013172
     45 H                     0.072159
     46 H                     0.088007
     47 H                     0.003347
     48 H                     0.162262
     49 H                    -0.613602
     50 H                     0.081296
     51 H                     0.110145
     52 H                     0.040748
     53 H                    -0.011624
     54 O                    -0.835823
     55 H                    -0.400464
     56 C                     0.203599
     57 C                     0.034732
     58 C                    -0.187311
     59 H                     0.068819
     60 C                    -0.082106
     61 H                    -0.082687
     62 C                     0.300638
     63 C                    -0.063672
     64 O                    -0.890977
     65 H                    -0.064645
  ----------------------------------------
  Sum of atomic charges =    -1.000000

  Building new vdw surfaces
         Merz-Kollman RESP Net Atomic Charges

     Atom                 Charge (a.u.)
  ----------------------------------------
      1 N                     0.468692
      2 C                    -0.219437
      3 C                    -0.320942
      4 C                    -0.346842
      5 C                    -0.346842
      6 C                    -0.315343
      7 C                    -0.056043
      8 C                    -0.071004
      9 C                     0.016561
     10 C                     0.304805
     11 C                     0.144474
     12 C                     0.118187
     13 C                     0.149415
     14 C                    -0.629664
     15 C                    -0.454070
     16 C                    -0.454070
     17 C                    -0.454070
     18 H                     0.309923
     19 H                     0.109415
     20 H                     0.132643
     21 H                     0.132643
     22 H                     0.132643
     23 H                     0.132643
     24 H                     0.136500
     25 H                     0.136500
     26 H                     0.111887
     27 H                     0.111887
     28 H                     0.070627
     29 H                     0.070627
     30 H                     0.082495
     31 H                     0.082495
     32 H                     0.055167
     33 H                     0.055167
     34 H                     0.004413
     35 H                     0.004413
     36 H                     0.022270
     37 H                     0.022270
     38 H                     0.022270
     39 H                     0.022270
     40 H                     0.007702
     41 H                     0.007702
     42 H                     0.151865
     43 H                     0.151865
     44 H                     0.151865
     45 H                     0.113009
     46 H                     0.113009
     47 H                     0.113009
     48 H                     0.113074
     49 H                     0.113074
     50 H                     0.113074
     51 H                     0.110870
     52 H                     0.110870
     53 H                     0.110870
     54 O                    -0.977308
     55 H                     0.089067
     56 C                    -0.225218
     57 C                     0.343794
     58 C                    -0.530242
     59 H                     0.167243
     60 C                    -0.265032
     61 H                     0.150551
     62 C                     0.657820
     63 C                    -0.573287
     64 O                    -1.024401
     65 H                     0.210178
  ----------------------------------------
  Sum of atomic charges =    -1.000000

  Related Dipole Moment =    43.5482 (X -9.6192 Y 38.4539 Z 18.0336)

 -----------------------------------------------------------------
                    Cartesian Multipole Moments
 -----------------------------------------------------------------
    Charge (ESU x 10^10)
                -4.8032
    Dipole Moment (Debye)
         X      -9.6133      Y      38.6134      Z      18.1557
       Tot      43.7383
    Quadrupole Moments (Debye-Ang)
        XX    -193.3040     XY      16.7803     YY    -362.1537
        XZ      25.3640     YZ     -78.5949     ZZ    -199.0534
    Octopole Moments (Debye-Ang^2)
       XXX    -378.5193    XXY     305.6896    XYY     -91.8756
       YYY    1864.7527    XXZ     229.7304    XYZ     -53.9465
       YYZ     543.8892    XZZ    -161.9403    YZZ     378.2530
       ZZZ     497.9978
    Hexadecapole Moments (Debye-Ang^3)
      XXXX   -5946.7743   XXXY     551.4712   XXYY   -2590.1740
      XYYY     101.3703   YYYY  -15966.7491   XXXZ     554.7049
      XXYZ    -654.6779   XYYZ     151.5924   YYYZ   -3759.7606
      XXZZ   -1817.4909   XYZZ     234.7398   YYZZ   -2901.2773
      XZZZ     488.6580   YZZZ   -1690.1330   ZZZZ   -4219.8651
 -----------------------------------------------------------------
 Calculating analytic gradient of the SCF energy
 Gradient of SCF Energy
            1           2           3           4           5           6
    1   0.0028963  -0.0117007   0.0043340  -0.0046206   0.0055360   0.0092221
    2  -0.0024303  -0.0105558  -0.0037698  -0.0310276   0.0102644   0.0186421
    3  -0.0132754   0.0063217   0.0051863  -0.0217854  -0.0139654   0.0089718
            7           8           9          10          11          12
    1   0.0041434   0.0349285  -0.0075193   0.0020032  -0.0041317  -0.0037070
    2  -0.0066245  -0.0222682  -0.0076327  -0.0035761  -0.0017789  -0.0120647
    3  -0.0108591   0.0085090   0.0192964  -0.0043955   0.0031538  -0.0162032
           13          14          15          16          17          18
    1   0.0110266  -0.0113859   0.0038133   0.0532406  -0.0114621   0.0060215
    2   0.0001776   0.0055803  -0.0031810   0.0242363  -0.0123728  -0.0121491
    3  -0.0064560  -0.0141484  -0.0025910   0.0163937   0.0085965  -0.0433126
           19          20          21          22          23          24
    1   0.0044028  -0.0016210   0.0023117   0.0103559  -0.0026055   0.0034159
    2   0.0201095  -0.0079623   0.0105087   0.0112097  -0.0017125  -0.0122855
    3  -0.0062900  -0.0029987  -0.0027451   0.0153586   0.0134761  -0.0083944
           25          26          27          28          29          30
    1   0.0069710   0.0126585  -0.0112363   0.0027052  -0.0009301   0.0151019
    2  -0.0032533  -0.0026644  -0.0096562   0.0101762  -0.0060242   0.0081112
    3   0.0055076  -0.0105560   0.0237002   0.0034597   0.0000722  -0.0168700
           31          32          33          34          35          36
    1  -0.0692425   0.0210061  -0.0398265  -0.0205475   0.0229099  -0.0029870
    2   0.0346081   0.0055454  -0.0024614  -0.0072034   0.0161706  -0.0026790
    3   0.0120859   0.0174209  -0.0029695   0.0244598  -0.0050301  -0.0017569
           37          38          39          40          41          42
    1  -0.0004279  -0.0330194   0.0105365  -0.0063799   0.0093354   0.0084279
    2   0.0071049  -0.0039659  -0.0284014   0.0063304  -0.0101450  -0.0059636
    3  -0.0022201   0.0291311  -0.0030072  -0.0156821  -0.0001776  -0.0110113
           43          44          45          46          47          48
    1  -0.0102520  -0.0102556   0.0037714  -0.0010955   0.0036400   0.0170002
    2  -0.0118188   0.0182446   0.0060056  -0.0052291  -0.0016284   0.0009115
    3   0.0101837  -0.0077509   0.0041510   0.0031976  -0.0061904  -0.0235855
           49          50          51          52          53          54
    1  -0.0462551   0.0241040   0.0114619  -0.0149094  -0.0111988   0.0110000
    2   0.0271669   0.0057590  -0.0001451   0.0238545  -0.0176994  -0.0284451
    3  -0.0046934   0.0241120   0.0173003  -0.0052185  -0.0007861  -0.0114284
           55          56          57          58          59          60
    1  -0.0623375  -0.0189575  -0.0127153  -0.0132571  -0.0355513   0.0159281
    2   0.0266216  -0.0337665  -0.0607536   0.0337330   0.0635805  -0.0231455
    3  -0.0237959  -0.0945663  -0.0414015   0.0027942  -0.0954911   0.0556832
           61          62          63          64          65
    1  -0.0301912   0.0587429   0.0368405   0.0265038   0.0340302
    2  -0.0464171  -0.0047537   0.0210318   0.0306275   0.0213001
    3   0.0994387  -0.0330071   0.0465300  -0.0073626   0.1074869
 Max gradient component =       1.075E-01
 RMS gradient           =       2.437E-02
 Computing fast CPCM-SWIG gradient
 Updating gradient with PCM contributions...
 -- total gradient after adding PCM contribution --
---------------------------------------------------
  Atom         X              Y              Z     
---------------------------------------------------
   1      -0.000001      -0.000002       0.000001
   2      -0.000001       0.000000       0.000002
   3      -0.000001      -0.000003      -0.000002
   4       0.000001      -0.000004      -0.000001
   5      -0.000001      -0.000002       0.000001
   6      -0.000002       0.000001       0.000003
   7      -0.000001      -0.000002      -0.000002
   8       0.000001      -0.000002      -0.000002
   9      -0.000001      -0.000005       0.000002
  10      -0.000001       0.000003       0.000005
  11      -0.000002      -0.000004      -0.000004
  12       0.000007      -0.000003      -0.000001
  13      -0.000002      -0.000005       0.000002
  14      -0.000003       0.000002      -0.000001
  15      -0.000003      -0.000003      -0.000004
  16       0.000007      -0.000002      -0.000003
  17      -0.000003      -0.000010       0.000005
  18       0.000000       0.000000       0.000002
  19      -0.000001       0.000000       0.000001
  20      -0.000003       0.000000      -0.000001
  21      -0.000002      -0.000001      -0.000002
  22       0.000002      -0.000001       0.000000
  23       0.000000      -0.000000      -0.000002
  24      -0.000002       0.000001       0.000001
  25      -0.000001       0.000000      -0.000001
  26      -0.000004       0.000001       0.000001
  27      -0.000002       0.000001       0.000003
  28      -0.000001      -0.000002      -0.000003
  29      -0.000002      -0.000002      -0.000003
  30       0.000001      -0.000001      -0.000002
  31       0.000001      -0.000000      -0.000001
  32       0.000001       0.000001       0.000000
  33       0.000000      -0.000000       0.000002
  34      -0.000001       0.000001       0.000004
  35      -0.000002       0.000002       0.000003
  36      -0.000004      -0.000002      -0.000004
  37      -0.000003      -0.000002      -0.000004
  38       0.000004      -0.000001      -0.000002
  39       0.000003      -0.000002      -0.000003
  40      -0.000001       0.000001       0.000003
  41      -0.000001       0.000001       0.000002
  42      -0.000005       0.000002       0.000003
  43      -0.000004       0.000002       0.000004
  44      -0.000004       0.000002       0.000004
  45      -0.000002      -0.000003      -0.000006
  46      -0.000003      -0.000003      -0.000005
  47      -0.000004      -0.000003      -0.000006
  48       0.000002      -0.000002      -0.000004
  49       0.000003      -0.000002      -0.000003
  50       0.000005      -0.000002      -0.000004
  51       0.000002       0.000001       0.000002
  52       0.000001       0.000001       0.000004
  53       0.000001       0.000002       0.000004
  54      -0.000004       0.000000       0.000011
  55      -0.000000       0.000002       0.000002
  56      -0.000001       0.000006       0.000002
  57       0.000003       0.000002       0.000003
  58      -0.000000       0.000009       0.000001
  59       0.000001       0.000005       0.000001
  60       0.000006       0.000000      -0.000000
  61       0.000006      -0.000000      -0.000000
  62       0.000004       0.000002       0.000000
  63       0.000006      -0.000002      -0.000002
  64       0.000008       0.000026      -0.000003
  65       0.000006      -0.000002      -0.000002
---------------------------------------------------
 Number of fixed atoms: 0
 Gradient time:  CPU 4401.95 s  wall 225.02 s
 Geometry Optimization Parameters
   NAtoms,    NIC,     NZ,  NCons,   NDum,   NFix, NCnnct, MaxDiis
       65     491       0       0       0       0       0       0

 Cartesian Hessian Update
 Hessian updated using BFGS update


** GEOMETRY OPTIMIZATION IN DELOCALIZED INTERNAL COORDINATES **
   Searching for a Minimum

   Optimization Cycle:   2

                       Coordinates (Angstroms)
     ATOM                X               Y               Z
      1  N         0.2953045141    0.0871740729   -0.2350575856
      2  C         1.3416515365   -0.8663780998    0.2989323556
      3  C        -0.7106647625    0.3831096803    0.8508226182
      4  C        -0.3538117603   -0.5581749766   -1.4348542158
      5  C         0.9201668424    1.3914088265   -0.6605273547
      6  C         2.2444927726   -0.3139372231    1.3881506308
      7  C        -2.0137522434    1.0232720796    0.3994098527
      8  C        -1.1237886865   -1.8407008097   -1.1541228590
      9  C         1.9320318747    1.2936324849   -1.7926355208
     10  C         3.1358675834   -1.4292214708    1.9352549652
     11  C        -2.8730266943    1.3805298719    1.6120145056
     12  C        -2.0797668091   -2.1359194729   -2.3078526391
     13  C         2.8568249071    2.5095312679   -1.7936044536
     14  C         4.0898500464   -0.9379697326    3.0173238063
     15  C        -4.2143498872    1.9846696367    1.2140801334
[...]
     31  H        -0.4125508194   -2.6816903428   -1.0484042108
     32  H         1.4231934213    1.2317130187   -2.7574985192
     33  H         2.5325512745    0.3634220580   -1.7106630005
     34  H         3.6876597669   -1.8622436643    1.1563542263
     35  H         2.4587147003   -2.2275488192    2.3638522141
     36  H        -2.3494719896    2.1099516858    2.1970045202
     37  H        -3.0650653476    0.4987748590    2.1751464103
     38  H        -1.4766003720   -2.1953312574   -3.2545729600
     39  H        -2.7701479156   -1.3080819945   -2.4385609116
     40  H         3.4142374560    2.5341612200   -0.8303248102
     41  H         2.2734530622    3.4257049216   -1.8355161750
     42  H         3.4652623690   -0.5124220992    3.9183918934
     43  H         4.7033509612   -0.1418896810    2.6998230513
     44  H         4.6580128452   -1.7469102182    3.4597181761
     45  H        -4.8051700517    1.2856765644    0.5267659297
     46  H        -4.0874510437    2.9103461294    0.5522833887
     47  H        -4.8435108656    2.2500126661    2.0184818727
     48  H        -3.4241314711   -3.4155555638   -1.2062696146
     49  H        -2.1228952624   -4.2930388590   -2.0498394574
     50  H        -3.5041204823   -3.6422343772   -2.9665343332
     51  H         3.3437484912    2.4650141820   -3.9096540028
     52  H         4.4934772506    1.5703433552   -2.8934294445
     53  H         4.5269603681    3.3486735551   -2.9202470941
     54  O         2.9152056624   -1.9185071763   -2.2279398238
     55  H         2.7596414376   -3.6042408324   -0.1951704127
     56  C         2.1154836000   -3.8495861860   -1.0453102469
     57  C         2.1608706188   -2.9933935294   -2.1771628748
     58  C         1.2673573779   -4.9601733751   -0.9610234121
     59  H         1.2757063585   -5.5676031783   -0.0490862572
     60  C         1.2841286732   -3.3763204441   -3.2254995645
     61  H         1.2590328185   -2.7517360785   -4.1252831170
     62  C         0.3859884154   -5.3438773759   -2.0090823915
     63  C         0.4448526592   -4.4927495637   -3.1473357125
     64  O        -0.4115287110   -6.3796729356   -1.9304274667
     65  H        -0.2229675680   -4.7178297567   -3.9859536775

Z-matrix Print:
$molecule
-1 1
N 
C  1 1.507525
H  2 1.094092 1 106.666027
H  2 1.094290 1 106.111107 3 113.821384 0
C  1 1.509022 2 108.924408 3 66.882600 0
H  5 1.094646 1 106.231523 2 63.150121 0
H  5 1.095704 1 106.182337 2 -52.003336 0
C  1 1.509631 2 108.012138 3 -54.559484 0
H  8 1.094555 1 106.238400 2 -47.722817 0
H  8 1.094629 1 106.965713 2 -162.051048 0
C  1 1.513003 2 110.989466 3 -174.394566 0
H  11 1.094347 1 105.672936 2 174.893008 0
H  11 1.099415 1 106.751822 2 -70.589686 0
C  11 1.518793 1 115.800571 2 52.606576 0
H  14 1.099215 11 110.494326 1 -66.985999 0
H  14 1.099262 11 111.824609 1 52.426797 0
C  8 1.520452 1 116.102562 2 74.661253 0
H  17 1.098190 8 110.584863 1 65.139131 0
H  17 1.098735 8 111.194074 1 -53.556291 0
C  2 1.521515 1 115.486708 3 -123.046813 0
H  20 1.098982 2 111.233045 1 -36.222823 0
H  20 1.099257 2 109.623051 1 80.630194 0
C  5 1.522095 1 115.536191 2 -175.724720 0
H  23 1.097986 5 109.721393 1 -78.452821 0
H  23 1.098834 5 111.791752 1 40.804829 0
C  23 1.527103 5 109.905289 1 161.560161 0
H  26 1.100220 23 108.717313 5 56.201473 0
H  26 1.102210 23 109.189394 5 -59.969030 0
C  26 1.522987 23 112.321668 5 177.685974 0
H  29 1.098499 26 111.190776 23 179.520541 0
H  29 1.098739 26 110.420028 23 -60.242745 0
H  29 1.100451 26 110.804967 23 59.664177 0
C  20 1.527653 2 110.599980 1 -158.846535 0
H  33 1.101384 20 109.703103 2 -54.861362 0
H  33 1.101486 20 108.927979 2 61.093631 0
C  33 1.524151 20 112.302333 2 -177.194501 0
H  36 1.097918 33 111.246020 20 -179.688569 0
H  36 1.099581 33 110.788561 20 -59.424350 0
H  36 1.099637 33 110.865581 20 60.143279 0
C  17 1.528500 8 110.176281 1 -174.532183 0
H  40 1.100672 17 109.216454 8 59.786416 0
H  40 1.101072 17 109.157368 8 -56.173238 0
C  40 1.523981 17 112.341791 8 -178.087809 0
H  43 1.097717 40 111.159791 17 179.784205 0
H  43 1.099534 40 110.961137 17 59.680866 0
H  43 1.099574 40 110.968320 17 -60.086881 0
C  14 1.529010 11 109.732550 1 173.417044 0
H  47 1.100094 14 108.941182 11 56.983525 0
H  47 1.100755 14 109.121321 11 -58.682986 0
C  47 1.523897 14 112.580595 11 179.093188 0
H  50 1.097772 47 111.129301 14 -179.767256 0
H  50 1.099532 47 110.987881 14 -59.704094 0
H  50 1.099600 47 111.023396 14 60.107527 0
O  13 2.076194 11 173.665403 1 -67.456104 0
C  54 1.314146 13 89.287283 11 -32.269434 0
C  55 1.419267 54 123.143302 13 119.524446 0
H  56 1.095603 55 117.837458 54 1.422338 0
C  56 1.398895 55 123.002326 54 -177.479736 0
H  58 1.095411 56 119.141886 55 178.676290 0
C  55 1.419935 54 122.843477 13 -58.120675 0
H  60 1.094473 55 117.722135 54 -1.478250 0
C  60 1.399938 55 123.073087 54 176.894353 0
H  62 1.095751 60 119.029779 55 -179.081924 0
C  62 1.422135 60 123.033948 55 0.888762 0
O  64 1.309615 62 123.130238 60 -179.755425 0
$end

 
 --------------------------------------------------------------
 
                    Orbital Energies (a.u.)
 --------------------------------------------------------------
 
 Alpha MOs
 -- Occupied --
-19.1529 -19.1498 -14.5731 -10.3538 -10.3507 -10.3435 -10.3338 -10.3094
-10.3031 -10.3011 -10.2972 -10.2969 -10.2963 -10.2940 -10.2921 -10.2915
-10.2893 -10.2886 -10.2862 -10.2859 -10.2756 -10.2499 -10.2498 -10.2490
-10.2486  -1.1108  -1.0083  -1.0031  -0.9138  -0.9049  -0.9042  -0.8882
 -0.8681  -0.8411  -0.8385  -0.8337  -0.7961  -0.7872  -0.7533  -0.7520
 -0.7328  -0.7314  -0.6851  -0.6806  -0.6789  -0.6732  -0.6581  -0.6495
 -0.6222  -0.6138  -0.5997  -0.5940  -0.5828  -0.5683  -0.5561  -0.5531
 -0.5269  -0.5240  -0.5146  -0.5123  -0.5113  -0.5080  -0.5070  -0.5042
 -0.4994  -0.4957  -0.4893  -0.4866  -0.4771  -0.4663  -0.4643  -0.4568
 -0.4533  -0.4477  -0.4439  -0.4407  -0.4377  -0.4349  -0.4295  -0.4270
 -0.4270  -0.4231  -0.4212  -0.4154  -0.4147  -0.4141  -0.4123  -0.4079
 -0.4053  -0.4004  -0.3967  -0.3924  -0.3841  -0.3034  -0.2916  -0.2757
 -0.2725  -0.1899
 -- Virtual --
  0.0819   0.0867   0.0885   0.0915   0.0958   0.1073   0.1079   0.1097
  0.1134   0.1154   0.1238   0.1273   0.1299   0.1350   0.1376   0.1383
  0.1418   0.1485   0.1514   0.1562   0.1583   0.1631   0.1651   0.1710
  0.1732   0.1769   0.1807   0.1833   0.1844   0.1879   0.1906   0.1935
  0.1948   0.1976   0.1995   0.2000   0.2040   0.2065   0.2098   0.2111
  0.2129   0.2161   0.2205   0.2211   0.2229   0.2254   0.2273   0.2310
  0.2335   0.2393   0.2403   0.2410   0.2446   0.2471   0.2493   0.2530
  0.2558   0.2583   0.2631   0.2631   0.2662   0.2712   0.2714   0.2748
  0.2756   0.2785   0.2817   0.2844   0.2884   0.2889   0.2919   0.2946
  0.2978   0.3017   0.3038   0.3066   0.3081   0.3134   0.3153   0.3177
  0.3216   0.3228   0.3251   0.3299   0.3304   0.3352   0.3384   0.3421
  0.3447   0.3453   0.3472   0.3548   0.3578   0.3592   0.3631   0.3647
  0.3667   0.3671   0.3706   0.3744   0.3752   0.3783   0.3801   0.3829
  0.3854   0.3893   0.3915   0.3936   0.3961   0.4009   0.4035   0.4045
  0.4059   0.4087   0.4118   0.4134   0.4155   0.4187   0.4200   0.4207
  0.4231   0.4242   0.4266   0.4270   0.4293   0.4315   0.4347   0.4356
  0.4361   0.4396   0.4406   0.4428   0.4456   0.4482   0.4487   0.4504
  0.4526   0.4535   0.4558   0.4582   0.4595   0.4647   0.4669   0.4687
  0.4702   0.4722   0.4750   0.4761   0.4789   0.4801   0.4823   0.4872
  0.4884   0.4892   0.4939   0.4959   0.4988   0.5000   0.5008   0.5016
  0.5063   0.5073   0.5091   0.5113   0.5147   0.5166   0.5196   0.5236
  0.5241   0.5258   0.5275   0.5289   0.5306   0.5333   0.5354   0.5396
  0.5412   0.5418   0.5435   0.5486   0.5505   0.5540   0.5561   0.5573
  0.5602   0.5612   0.5631   0.5663   0.5680   0.5690   0.5722   0.5757
  0.5774   0.5812   0.5817   0.5850   0.5856   0.5898   0.5925   0.5934
  0.5953   0.6007   0.6016   0.6031   0.6049   0.6107   0.6128   0.6143
  0.6168   0.6199   0.6245   0.6268   0.6275   0.6332   0.6356   0.6369
  0.6398   0.6409   0.6430   0.6464   0.6488   0.6520   0.6543   0.6553
  0.6615   0.6630   0.6632   0.6651   0.6685   0.6720   0.6765   0.6806
  0.6827   0.6834   0.6857   0.6906   0.6920   0.6949   0.6978   0.7014
  0.7056   0.7075   0.7085   0.7113   0.7141   0.7187   0.7195   0.7233
  0.7252   0.7281   0.7325   0.7347   0.7359   0.7415   0.7419   0.7488
  0.7502   0.7519   0.7558   0.7605   0.7621   0.7638   0.7664   0.7693
  0.7714   0.7762   0.7780   0.7818   0.7847   0.7877   0.7911   0.7966
  0.7977   0.8020   0.8042   0.8061   0.8129   0.8158   0.8163   0.8208
  0.8214   0.8251   0.8265   0.8296   0.8348   0.8398   0.8408   0.8426
  0.8467   0.8500   0.8572   0.8578   0.8605   0.8642   0.8661   0.8706
  0.8780   0.8794   0.8822   0.8863   0.8900   0.8928   0.8947   0.8956
  0.9032   0.9098   0.9119   0.9192   0.9220   0.9239   0.9271   0.9290
  0.9358   0.9418   0.9468   0.9483   0.9509   0.9536   0.9602   0.9632
  0.9680   0.9700   0.9748   0.9778   0.9845   0.9875   0.9906   0.9955
  0.9985   1.0063   1.0167   1.0188   1.0230   1.0267   1.0329   1.0373
  1.0477   1.0518   1.0535   1.0588   1.0598   1.0657   1.0687   1.0697
  1.0775   1.0811   1.0920   1.0933   1.0976   1.1008   1.1057   1.1121
  1.1134   1.1167   1.1186   1.1223   1.1231   1.1287   1.1352   1.1391
  1.1437   1.1439   1.1452   1.1487   1.1545   1.1630   1.1651   1.1709
  1.1758   1.1836   1.1873   1.1933   1.1964   1.1987   1.2041   1.2088
  1.2117   1.2148   1.2290   1.2330   1.2376   1.2419   1.2493   1.2540
  1.2558   1.2596   1.2605   1.2679   1.2790   1.2836   1.2876   1.2956
  1.2995   1.3033   1.3084   1.3181   1.3241   1.3273   1.3347   1.3387
  1.3414   1.3493   1.3584   1.3616   1.3688   1.3727   1.3821   1.3843
  1.3860   1.3953   1.3982   1.4062   1.4090   1.4170   1.4202   1.4209
  1.4225   1.4304   1.4347   1.4459   1.4465   1.4488   1.4621   1.4655
  1.4695   1.4729   1.4794   1.4855   1.4934   1.4966   1.5072   1.5131
  1.5235   1.5263   1.5356   1.5386   1.5392   1.5457   1.5496   1.5516
  1.5621   1.5643   1.5688   1.5754   1.5837   1.5860   1.5976   1.6041
  1.6151   1.6186   1.6268   1.6466   1.6494   1.6560   1.6611   1.6688
  1.6813   1.6853   1.6910   1.6996   1.7030   1.7166   1.7204   1.7289
  1.7344   1.7428   1.7512   1.7613   1.7630   1.7701   1.7743   1.7806
  1.7844   1.7882   1.7982   1.8031   1.8092   1.8153   1.8181   1.8245
  1.8257   1.8300   1.8364   1.8495   1.8546   1.8613   1.8676   1.8711
  1.8773   1.8877   1.8934   1.8974   1.9052   1.9073   1.9141   1.9205
  1.9217   1.9282   1.9338   1.9344   1.9407   1.9427   1.9493   1.9533
  1.9622   1.9701   1.9747   1.9795   1.9833   1.9899   1.9940   1.9989
  2.0055   2.0094   2.0144   2.0201   2.0246   2.0286   2.0318   2.0359
  2.0378   2.0448   2.0506   2.0553   2.0608   2.0616   2.0731   2.0761
  2.0801   2.0853   2.0887   2.0956   2.1016   2.1023   2.1081   2.1106
  2.1194   2.1215   2.1245   2.1299   2.1338   2.1368   2.1418   2.1454
  2.1542   2.1549   2.1646   2.1660   2.1714   2.1752   2.1816   2.1884
  2.1921   2.1991   2.2027   2.2057   2.2121   2.2151   2.2215   2.2253
  2.2284   2.2391   2.2417   2.2511   2.2570   2.2573   2.2716   2.2731
  2.2807   2.2901   2.3004   2.3045   2.3065   2.3204   2.3236   2.3258
  2.3292   2.3322   2.3445   2.3543   2.3577   2.3609   2.3694   2.3757
  2.3792   2.3843   2.3911   2.3965   2.4047   2.4076   2.4143   2.4182
  2.4210   2.4276   2.4320   2.4428   2.4460   2.4533   2.4588   2.4724
  2.4749   2.4840   2.4894   2.4960   2.4976   2.5061   2.5262   2.5283
  2.5429   2.5498   2.5542   2.5579   2.5656   2.5702   2.5727   2.5878
  2.5984   2.6035   2.6176   2.6226   2.6304   2.6341   2.6389   2.6437
  2.6469   2.6546   2.6602   2.6634   2.6693   2.6745   2.6806   2.6915
  2.6958   2.7068   2.7112   2.7179   2.7304   2.7340   2.7500   2.7523
  2.7565   2.7590   2.7646   2.7692   2.7717   2.7800   2.7846   2.7927
  2.8015   2.8048   2.8065   2.8148   2.8259   2.8287   2.8367   2.8485
  2.8638   2.8686   2.8803   2.8853   2.9147   2.9209   2.9351   2.9405
  2.9420   2.9547   2.9598   2.9739   2.9815   2.9951   3.0005   3.0146
  3.0189   3.0255   3.0323   3.0516   3.0941   3.0970   3.1111   3.1226
  3.1338   3.1426   3.1496   3.1566   3.1590   3.1647   3.1715   3.1729
  3.1824   3.1903   3.2000   3.2051   3.2087   3.2209   3.2342   3.2377
  3.2520   3.2628   3.2694   3.2722   3.2796   3.2849   3.2886   3.2989
  3.3024   3.3080   3.3119   3.3308   3.3409   3.3548   3.3580   3.3625
  3.3697   3.3734   3.3841   3.4033   3.4217   3.4454   3.4816   3.5141
  3.5347   3.5429   3.5531   3.6024   3.6207   3.6584   3.9225   4.0461
 --------------------------------------------------------------
 
          Ground-State Mulliken Net Atomic Charges

     Atom                 Charge (a.u.)
  ----------------------------------------
      1 N                    -2.346434
      2 C                     0.269274
      3 C                     0.388932
      4 C                     0.280418
      5 C                     0.751367
      6 C                     0.555927
      7 C                     0.319607
      8 C                     0.204131
      9 C                     0.320751
     10 C                     0.015863
     11 C                    -0.079608
     12 C                    -0.051191
     13 C                    -0.000965
     14 C                     0.768801
     15 C                     0.597980
     16 C                     1.367661
     17 C                     0.718979
     18 H                    -0.969489
     19 H                    -0.139696
     20 H                    -0.280648
     21 H                     0.016963
     22 H                    -0.139315
     23 H                    -0.316275
     24 H                    -0.210262
     25 H                    -0.476449
     26 H                    -0.034539
     27 H                    -0.186234
     28 H                    -0.009247
     29 H                    -0.011063
     30 H                    -0.018064
     31 H                    -0.084942
     32 H                     0.153188
     33 H                    -0.392325
     34 H                     0.041023
     35 H                    -0.009675
     36 H                    -0.029700
     37 H                     0.047273
     38 H                     0.058647
     39 H                    -0.072529
     40 H                    -0.016855
     41 H                    -0.094241
     42 H                     0.075821
     43 H                     0.100851
     44 H                    -0.012942
     45 H                     0.072468
     46 H                     0.088021
     47 H                     0.003074
     48 H                     0.162208
     49 H                    -0.616237
     50 H                     0.082147
     51 H                     0.109717
     52 H                     0.040511
     53 H                    -0.011524
     54 O                    -0.837819
     55 H                    -0.398403
     56 C                     0.200241
     57 C                     0.039576
     58 C                    -0.185701
     59 H                     0.067383
     60 C                    -0.082083
     61 H                    -0.088339
     62 C                     0.300628
     63 C                    -0.060843
     64 O                    -0.890728
     65 H                    -0.065067
  ----------------------------------------
  Sum of atomic charges =    -1.000000

         Merz-Kollman RESP Net Atomic Charges

     Atom                 Charge (a.u.)
  ----------------------------------------
      1 N                     0.456033
      2 C                    -0.203464
      3 C                    -0.326337
      4 C                    -0.348328
      5 C                    -0.348328
      6 C                    -0.315508
      7 C                    -0.054310
      8 C                    -0.071419
      9 C                     0.019912
     10 C                     0.308865
     11 C                     0.144861
     12 C                     0.117434
     13 C                     0.145327
     14 C                    -0.632214
     15 C                    -0.453982
     16 C                    -0.453982
     17 C                    -0.453982
     18 H                     0.300886
     19 H                     0.107351
     20 H                     0.134488
     21 H                     0.134488
     22 H                     0.134488
     23 H                     0.134488
     24 H                     0.138169
     25 H                     0.138169
     26 H                     0.110966
     27 H                     0.110966
     28 H                     0.070854
     29 H                     0.070854
     30 H                     0.083604
     31 H                     0.083604
     32 H                     0.054853
     33 H                     0.054853
     34 H                     0.003038
     35 H                     0.003038
     36 H                     0.022364
     37 H                     0.022364
     38 H                     0.022364
     39 H                     0.022364
     40 H                     0.008680
     41 H                     0.008680
     42 H                     0.152385
     43 H                     0.152385
     44 H                     0.152385
     45 H                     0.112873
     46 H                     0.112873
     47 H                     0.112873
     48 H                     0.113008
     49 H                     0.113008
     50 H                     0.113008
     51 H                     0.111048
     52 H                     0.111048
     53 H                     0.111048
     54 O                    -0.975290
     55 H                     0.089347
     56 C                    -0.222063
     57 C                     0.345006
     58 C                    -0.535516
     59 H                     0.168707
     60 C                    -0.273451
     61 H                     0.152526
     62 C                     0.658390
     63 C                    -0.566297
     64 O                    -1.024755
     65 H                     0.208907
  ----------------------------------------
  Sum of atomic charges =    -1.000000

  Related Dipole Moment =    43.5189 (X -9.8436 Y 38.4779 Z 17.7891)

 -----------------------------------------------------------------
                    Cartesian Multipole Moments
 -----------------------------------------------------------------
    Charge (ESU x 10^10)
                -4.8032
    Dipole Moment (Debye)
         X      -9.8402      Y      38.6375      Z      17.9127
       Tot      43.7098
    Quadrupole Moments (Debye-Ang)
        XX    -193.9497     XY      17.6802     YY    -362.2525
        XZ      25.4273     YZ     -77.8865     ZZ    -198.0912
    Octopole Moments (Debye-Ang^2)
       XXX    -384.0191    XXY     307.3260    XYY     -97.2484
       YYY    1865.4572    XXZ     229.4009    XYZ     -54.9636
       YYZ     539.8669    XZZ    -161.4534    YZZ     374.9689
       ZZZ     492.4337
    Hexadecapole Moments (Debye-Ang^3)
      XXXX   -5960.2676   XXXY     575.5630   XXYY   -2593.8878
      XYYY     143.5540   YYYY  -15978.0068   XXXZ     549.4744
      XXYZ    -650.1881   XYYZ     156.2227   YYYZ   -3726.7938
      XXZZ   -1813.0310   XYZZ     239.9124   YYZZ   -2885.1114
      XZZZ     474.9238   YZZZ   -1665.5316   ZZZZ   -4192.2795
 -----------------------------------------------------------------
 Total job time:  22181.69s(wall), 454317.51s(cpu) 
 Tue May 24 04:13:10 2022

        *************************************************************
        *                                                           *
        *  Thank you very much for using Q-Chem.  Have a nice day.  *
        *                                                           *
        *************************************************************


