
Running Job 1 of 1 mol.qin
qchem mol.qin_149219.0 /tmp/scratch/ 0
/clusterfs/mp/software/qchem5.4/exe/qcprog.exe_s mol.qin_149219.0 /tmp/scratch/
                  Welcome to Q-Chem
     A Quantum Leap Into The Future Of Chemistry


 Q-Chem 5.4, Q-Chem, Inc., Pleasanton, CA (2021)

 E. Epifanovsky,  A. T. B. Gilbert,  Xintian Feng,  Joonho Lee,  Yuezhi Mao,  
 N. Mardirossian,  P. Pokhilko,  A. White,  M. Wormit,  M. P. Coons,  
 A. L. Dempwolff,  Zhengting Gan,  D. Hait,  P. R. Horn,  L. D. Jacobson,  
 I. Kaliman,  J. Kussmann,  A. W. Lange,  Ka Un Lao,  D. S. Levine,  Jie Liu,  
 S. C. McKenzie,  A. F. Morrison,  K. Nanda,  F. Plasser,  D. R. Rehn,  
 M. L. Vidal,  Zhi-Qiang You,  Ying Zhu,  B. Alam,  B. Albrecht,  
 A. Aldossary,  E. Alguire,  J. H. Andersen,  D. Barton,  K. Begam,  A. Behn,  
 Y. A. Bernard,  E. J. Berquist,  H. Burton,  A. Carreras,  K. Carter-Fenk,  
 Romit Chakraborty,  A. D. Chien,  K. D. Closser,  V. Cofer-Shabica,  
 S. Dasgupta,  Jia Deng,  M. de Wergifosse,  M. Diedenhofen,  Hainam Do,  
 S. Ehlert,  Po-Tung Fang,  S. Fatehi,  Qingguo Feng,  T. Friedhoff,  
 J. Gayvert,  Qinghui Ge,  G. Gidofalvi,  M. Goldey,  J. Gomes,  
 C. Gonzalez-Espinoza,  S. Gulania,  A. Gunina,  M. W. D. Hanson-Heine,  
 P. H. P. Harbach,  A. W. Hauser,  M. F. Herbst,  M. Hernandez Vera,  
 M. Hodecker,  Z. C. Holden,  S. Houck,  Xunkun Huang,  Kerwin Hui,  
 B. C. Huynh,  M. Ivanov,  Hyunjun Ji,  Hanjie Jiang,  B. Kaduk,  S. Kaehler,  
 K. Khistyaev,  Jaehoon Kim,  P. Klunzinger,  Z. Koczor-Benda,  
 Joong Hoon Koh,  D. Kosenkov,  L. Koulias,  T. Kowalczyk,  C. M. Krauter,  
 K. Kue,  A. Kunitsa,  T. Kus,  A. Landau,  K. V. Lawler,  D. Lefrancois,  
 S. Lehtola,  Rain Li,  Yi-Pei Li,  Jiashu Liang,  M. Liebenthal,  
 Hung-Hsuan Lin,  You-Sheng Lin,  Fenglai Liu,  Kuan-Yu Liu,  
 M. Loipersberger,  A. Luenser,  A. Manjanath,  P. Manohar,  E. Mansoor,  
 S. F. Manzer,  Shan-Ping Mao,  A. V. Marenich,  T. Markovich,  S. Mason,  
 S. A. Maurer,  P. F. McLaughlin,  M. F. S. J. Menger,  J.-M. Mewes,  
 S. A. Mewes,  P. Morgante,  J. W. Mullinax,  K. J. Oosterbaan,  G. Paran,  
 Alexander C. Paul,  Suranjan K. Paul,  F. Pavosevic,  Zheng Pei,  S. Prager,  
 E. I. Proynov,  E. Ramos,  B. Rana,  A. E. Rask,  A. Rettig,  R. M. Richard,  
 F. Rob,  E. Rossomme,  T. Scheele,  M. Scheurer,  M. Schneider,  
 N. Sergueev,  S. M. Sharada,  W. Skomorowski,  D. W. Small,  C. J. Stein,  
 Yu-Chuan Su,  E. J. Sundstrom,  Zhen Tao,  J. Thirman,  T. Tsuchimochi,  
 N. M. Tubman,  S. P. Veccham,  O. Vydrov,  J. Wenzel,  J. Witte,  A. Yamada,  
 Kun Yao,  S. Yeganeh,  S. R. Yost,  A. Zech,  Igor Ying Zhang,  Xing Zhang,  
 Yu Zhang,  D. Zuev,  A. Aspuru-Guzik,  A. T. Bell,  N. A. Besley,  
 K. B. Bravaya,  B. R. Brooks,  D. Casanova,  Jeng-Da Chai,  S. Coriani,  
 C. J. Cramer,  A. E. DePrince, III,  R. A. DiStasio Jr.,  A. Dreuw,  
 B. D. Dunietz,  T. R. Furlani,  W. A. Goddard III,  S. Grimme,  
 S. Hammes-Schiffer,  T. Head-Gordon,  W. J. Hehre,  Chao-Ping Hsu,  
 T.-C. Jagau,  Yousung Jung,  A. Klamt,  Jing Kong,  D. S. Lambrecht,  
 WanZhen Liang,  N. J. Mayhall,  C. W. McCurdy,  J. B. Neaton,  T. Neudecker,  
 C. Ochsenfeld,  J. A. Parkhill,  R. Peverati,  V. A. Rassolov,  Yihan Shao,  
 L. V. Slipchenko,  R. P. Steele,  J. E. Subotnik,  A. J. W. Thom,  
 A. Tkatchenko,  D. G. Truhlar,  T. Van Voorhis,  T. A. Wesolowski,  
 K. B. Whaley,  H. L. Woodcock III,  P. M. Zimmerman,  S. Faraji,  
 P. M. W. Gill,  M. Head-Gordon,  J. M. Herbert,  A. I. Krylov

 Additional authors since Version 5.4.0: 
 Chandrima Chakravarty,  L. Cunha,  R. Kang,  Yongbin Kim,  S. Kotaru,  
 Shaozhi Li,  Xiangyuan Li,  F. Matz,  A. Molle,  V. Parravicini,  
 Haisheng Ren,  Hengyuan Shen,  Yingli Su,  Hung-Yi Tsai,  C. Utku,  
 Fang Wang,  Jeff Yang,  F. Zeller

 Contributors to earlier versions of Q-Chem not listed above: 
 R. D. Adamson,  B. Austin,  R. Baer,  J. Baker,  G. J. O. Beran,  
 K. Brandhorst,  S. T. Brown,  E. F. C. Byrd,  Arup K. Chakraborty,  
 G. K. L. Chan,  Chun-Min Chang,  Yunqing Chen,  C.-L. Cheng,  
 Siu Hung Chien,  D. M. Chipman,  D. L. Crittenden,  H. Dachsel,  
 R. J. Doerksen,  A. D. Dutoi,  R. G. Edgar,  J. Fosso-Tande,  
 L. Fusti-Molnar,  D. Ghosh,  A. Ghysels,  A. Golubeva-Zadorozhnaya,  
 J. Gonthier,  M. S. Gordon,  S. R. Gwaltney,  G. Hawkins,  J. E. Herr,  
 A. Heyden,  S. Hirata,  E. G. Hohenstein,  G. Kedziora,  F. J. Keil,  
 C. Kelley,  Jihan Kim,  R. A. King,  R. Z. Khaliullin,  P. P. Korambath,  
 W. Kurlancheek,  A. Laurent,  A. M. Lee,  M. S. Lee,  S. V. Levchenko,  
 Ching Yeh Lin,  D. Liotard,  E. Livshits,  R. C. Lochan,  I. Lotan,  
 L. A. Martinez-Martinez,  P. E. Maslen,  N. Nair,  D. P. O'Neill,  
 D. Neuhauser,  E. Neuscamman,  C. M. Oana,  R. Olivares-Amaya,  R. Olson,  
 T. M. Perrine,  B. Peters,  P. A. Pieniazek,  A. Prociuk,  Y. M. Rhee,  
 J. Ritchie,  M. A. Rohrdanz,  E. Rosta,  N. J. Russ,  H. F. Schaefer III,  
 M. W. Schmidt,  N. E. Schultz,  S. Sharma,  N. Shenvi,  C. D. Sherrill,  
 A. C. Simmonett,  A. Sodt,  T. Stein,  D. Stuck,  K. S. Thanthiriwatte,  
 V. Vanovschi,  L. Vogt,  Tao Wang,  A. Warshel,  M. A. Watson,  
 C. F. Williams,  Q. Wu,  X. Xu,  Jun Yang,  W. Zhang,  Yan Zhao

   Please cite Q-Chem as follows:
  "Software for the frontiers of quantum chemistry:
   An overview of developments in the Q-Chem 5 package"
   J. Chem. Phys. 155, 084801 (2021)
   https://doi.org/10.1063/5.0055522 (open access)

 Q-Chem 5.4.2 for Intel X86 EM64T Linux

 Parts of Q-Chem use Armadillo 9.900.5 (Nocturnal Misbehaviour).
 http://arma.sourceforge.net/

 Q-Chem begins on Sun May 22 23:42:22 2022  

 Host: 
0

     Scratch files written to /tmp/scratch//
 Dec1321 |scratch|qcdevops|jenkins|workspace|build_RNUM 7600   
 Processing $rem in /clusterfs/mp/software/qchem5.4/config/preferences:
 Processing $rem in /global/home/users/smblau/.qchemrc:
 Symmetry turned off for PCM/SM12/SMD calculation

 Checking the input file for inconsistencies... 	...done.

--------------------------------------------------------------
User input:
--------------------------------------------------------------
$molecule
-1 1
N      0.2957771893      0.0871560681     -0.2355736821
C      1.3420522501     -0.8665066640      0.2983721320
C     -0.7101412014      0.3833174418      0.8503547207
C     -0.3535022807     -0.5582590940     -1.4352363713
C      0.9206470732      1.3913905082     -0.6610522363
C      2.2445360732     -0.3142606506      1.3879856051
C     -2.0134594581      1.0229569187      0.3988322860
C     -1.1233706400     -1.8408083300     -1.1541759773
C      1.9324169820      1.2941380562     -1.7932945422
C      3.1353567228     -1.4297507430      1.9355887251
C     -2.8725478268      1.3808961717      1.6113700641
C     -2.0803775546     -2.1357742840     -2.3071186325
C      2.8568206506      2.5103927343     -1.7935684147
C      4.0882714260     -0.9389158404      3.0188052966
C     -4.2140130970      1.9846124774      1.2132699367
C     -2.8414472495     -3.4398339445     -2.1079843735
C      3.8450752499      2.4858251926     -2.9536395970
H      1.9415440949     -1.1940069515     -0.5630730305
H      0.7889647821     -1.7350060122      0.6690818144
H     -0.2037392513      1.0384098318      1.5662325895
H     -0.9138089414     -0.5620932620      1.3631011270
H      0.4547040537     -0.7727252775     -2.1417508798
H     -1.0042720331      0.2044346345     -1.8772657639
H      1.3823058407      1.8141403659      0.2365106105
H      0.0984232195      2.0565890355     -0.9412082200
H      1.6668355910      0.1201527792      2.2162090092
H      2.8886258445      0.4811799870      0.9870881730
H     -2.5783663085      0.3354451779     -0.2447606663
H     -1.8270003275      1.9324631283     -0.1887312853
H     -1.7042140024     -1.7722853776     -0.2239357259
H     -0.4216174223     -2.6782932156     -1.0460567311
H      1.4050693739      1.2394734174     -2.7562249005
H      2.5240154601      0.3709054964     -1.7202477851
H      3.7079538540     -1.8690425998      1.1053029904
H      2.5004265400     -2.2359478424      2.3337898876
H     -2.3205057871      2.0863766350      2.2509277316
H     -3.0376990671      0.4761065942      2.2167121184
H     -1.5023535518     -2.1844986656     -3.2419732815
H     -2.7884802612     -1.2978412471     -2.4135281099
H      3.4056880359      2.5422108616     -0.8391043834
H      2.2565423569      3.4328502554     -1.8355233241
H      3.5343871080     -0.5235272260      3.8730769816
H      4.7499141103     -0.1500452807      2.6329308582
H      4.7195566968     -1.7563760527      3.3907402361
H     -4.7926072105      1.2837418403      0.5944170735
H     -4.0734408921      2.9075346729      0.6323080981
H     -4.8158946639      2.2304001049      2.0977539662
H     -3.4364749216     -3.4079293157     -1.1828357060
H     -2.1425036363     -4.2847042685     -2.0382958861
H     -3.5293490400     -3.6296574979     -2.9431135979
H      3.3169595108      2.4789936537     -3.9181324990
H      4.4752681965      1.5857884829     -2.9104031445
H      4.5033951285      3.3642583951     -2.9340768492
O      2.8879702467     -1.9146176783     -2.2632976823
H      2.7559807675     -3.6069910719     -0.2342516859
C      2.1028381256     -3.8501757453     -1.0781007807
C      2.1353026679     -2.9904289233     -2.2077124980
C      1.2566546011     -4.9618133945     -0.9880387976
H      1.2752656219     -5.5719088764     -0.0780262709
C      1.2477926569     -3.3711646493     -3.2477696184
H      1.2128200087     -2.7441259822     -4.1455247260
C      0.3643722933     -5.3431921125     -2.0276812936
C      0.4104209589     -4.4885906965     -3.1639372981
O     -0.4312412148     -6.3800699091     -1.9437151569
H     -0.2658035225     -4.7119922370     -3.9962506264
$end

$rem
job_type = freq
basis = def2-svpd
max_scf_cycles = 100
gen_scfman = true
xc_grid = 3
thresh = 14
s2thresh = 16
scf_algorithm = diis
resp_charges = true
symmetry = false
sym_ignore = true
method = wb97xd
geom_opt_max_cycles = 200
solvent_method = pcm
cpscf_nseg = 3
$end

$pcm
heavypoints 194
hpoints 194
radii uff
theory cpcm
vdwscale 1.1
$end

$solvent
dielectric 38.88
$end
--------------------------------------------------------------
 ----------------------------------------------------------------
             Standard Nuclear Orientation (Angstroms)
    I     Atom           X                Y                Z
 ----------------------------------------------------------------
    1      N       0.2957771893     0.0871560681    -0.2355736821
    2      C       1.3420522501    -0.8665066640     0.2983721320
    3      C      -0.7101412014     0.3833174418     0.8503547207
    4      C      -0.3535022807    -0.5582590940    -1.4352363713
    5      C       0.9206470732     1.3913905082    -0.6610522363
    6      C       2.2445360732    -0.3142606506     1.3879856051
    7      C      -2.0134594581     1.0229569187     0.3988322860
    8      C      -1.1233706400    -1.8408083300    -1.1541759773
    9      C       1.9324169820     1.2941380562    -1.7932945422
   10      C       3.1353567228    -1.4297507430     1.9355887251
   11      C      -2.8725478268     1.3808961717     1.6113700641
   12      C      -2.0803775546    -2.1357742840    -2.3071186325
   13      C       2.8568206506     2.5103927343    -1.7935684147
   14      C       4.0882714260    -0.9389158404     3.0188052966
   15      C      -4.2140130970     1.9846124774     1.2132699367
   16      C      -2.8414472495    -3.4398339445    -2.1079843735
   17      C       3.8450752499     2.4858251926    -2.9536395970
   18      H       1.9415440949    -1.1940069515    -0.5630730305
   19      H       0.7889647821    -1.7350060122     0.6690818144
   20      H      -0.2037392513     1.0384098318     1.5662325895
   21      H      -0.9138089414    -0.5620932620     1.3631011270
   22      H       0.4547040537    -0.7727252775    -2.1417508798
   23      H      -1.0042720331     0.2044346345    -1.8772657639
   24      H       1.3823058407     1.8141403659     0.2365106105
   25      H       0.0984232195     2.0565890355    -0.9412082200
   26      H       1.6668355910     0.1201527792     2.2162090092
   27      H       2.8886258445     0.4811799870     0.9870881730
   28      H      -2.5783663085     0.3354451779    -0.2447606663
   29      H      -1.8270003275     1.9324631283    -0.1887312853
   30      H      -1.7042140024    -1.7722853776    -0.2239357259
   31      H      -0.4216174223    -2.6782932156    -1.0460567311
   32      H       1.4050693739     1.2394734174    -2.7562249005
   33      H       2.5240154601     0.3709054964    -1.7202477851
   34      H       3.7079538540    -1.8690425998     1.1053029904
   35      H       2.5004265400    -2.2359478424     2.3337898876
   36      H      -2.3205057871     2.0863766350     2.2509277316
   37      H      -3.0376990671     0.4761065942     2.2167121184
   38      H      -1.5023535518    -2.1844986656    -3.2419732815
   39      H      -2.7884802612    -1.2978412471    -2.4135281099
   40      H       3.4056880359     2.5422108616    -0.8391043834
   41      H       2.2565423569     3.4328502554    -1.8355233241
   42      H       3.5343871080    -0.5235272260     3.8730769816
   43      H       4.7499141103    -0.1500452807     2.6329308582
   44      H       4.7195566968    -1.7563760527     3.3907402361
   45      H      -4.7926072105     1.2837418403     0.5944170735
   46      H      -4.0734408921     2.9075346729     0.6323080981
   47      H      -4.8158946639     2.2304001049     2.0977539662
   48      H      -3.4364749216    -3.4079293157    -1.1828357060
   49      H      -2.1425036363    -4.2847042685    -2.0382958861
   50      H      -3.5293490400    -3.6296574979    -2.9431135979
   51      H       3.3169595108     2.4789936537    -3.9181324990
   52      H       4.4752681965     1.5857884829    -2.9104031445
   53      H       4.5033951285     3.3642583951    -2.9340768492
   54      O       2.8879702467    -1.9146176783    -2.2632976823
   55      H       2.7559807675    -3.6069910719    -0.2342516859
   56      C       2.1028381256    -3.8501757453    -1.0781007807
   57      C       2.1353026679    -2.9904289233    -2.2077124980
   58      C       1.2566546011    -4.9618133945    -0.9880387976
   59      H       1.2752656219    -5.5719088764    -0.0780262709
   60      C       1.2477926569    -3.3711646493    -3.2477696184
   61      H       1.2128200087    -2.7441259822    -4.1455247260
   62      C       0.3643722933    -5.3431921125    -2.0276812936
   63      C       0.4104209589    -4.4885906965    -3.1639372981
   64      O      -0.4312412148    -6.3800699091    -1.9437151569
   65      H      -0.2658035225    -4.7119922370    -3.9962506264
 ----------------------------------------------------------------
 Nuclear Repulsion Energy =        2434.25085796 hartrees
 There are       98 alpha and       98 beta electrons
 Requested basis set is def2-SVPD
 There are 362 shells and 826 basis functions

 Total QAlloc Memory Limit  96000 MB
 Mega-Array Size       188 MB
 MEM_STATIC part       192 MB
 Discretize the solute cavity surface with Lebedev spheres
	Using 194 Lebedev grid points for each H atom
	Using 194 Lebedev grid points for other atoms
	Atomic van der Waals radii will be scaled by 1.10
 Remove points where switching function is < 1.0e-08
 Keep 4325 surface tesserae and discard 8285 interior tesserae
 Molecular Surface Area = 488.555 Angst**2
 A cutoff of  1.0D-16 yielded  57579 shell pairs
 There are    298961 function pairs (    336423 Cartesian)
 Smallest overlap matrix eigenvalue = 5.57E-06
 Guess from superposition of atomic densities
 Warning:  Energy on first SCF cycle will be non-variational
 SAD guess density has 195.000000 electrons

 -----------------------------------------------------------------------
  General SCF calculation program by
  Eric Jon Sundstrom, Paul Horn, Yuezhi Mao, Dmitri Zuev, Alec White,
  David Stuck, Shaama M.S., Shane Yost, Joonho Lee, David Small,
  Daniel Levine, Susi Lehtola, Hugh Burton, Evgeny Epifanovsky,
  Bang C. Huynh
 -----------------------------------------------------------------------
 Exchange:     0.2220 Hartree-Fock + 1.0000 wB97X-D + LR-HF
 Correlation:  1.0000 wB97X-D
 Using SG-3 standard quadrature grid
 Dispersion:   Grimme D
 using 40 threads for integral computing
 -------------------------------------------------------
 OpenMP Integral computing Module                
 Release: version 1.0, May 2013, Q-Chem Inc. Pittsburgh 
 -------------------------------------------------------
 A restricted SCF calculation will be
 performed using DIIS
 SCF converges when DIIS error is below 1.0e-08
 ---------------------------------------
  Cycle       Energy         DIIS error
 ---------------------------------------
    1   -1073.4252365267      2.08e-02  
    2   -1066.2730346169      2.31e-03  
    3   -1066.2505795716      2.66e-03  
    4   -1066.7094347603      4.03e-04  
    5   -1066.7208095274      1.29e-04  
    6   -1066.7220603810      3.63e-05  
    7   -1066.7221553118      1.28e-05  
    8   -1066.7221688125      2.24e-06  
    9   -1066.7221695188      9.82e-07  
   10   -1066.7221694886      2.71e-07  
   11   -1066.7221697432      1.79e-07  
   12   -1066.7221696506      4.51e-08  
   13   -1066.7221696216      1.66e-08  
   14   -1066.7221697293      7.75e-09  Convergence criterion met
 ---------------------------------------
 SCF time:   CPU 20853.71s  wall 992.00s 

************** Final PCM Free Energy Summary **************
 G_electrostatic  =      -0.16485020 hartree =    -103.44505941 kcal/mol
 G_cavitation     =       0.00000000 hartree =       0.00000000 kcal/mol
 G_dispersion     =       0.00000000 hartree =       0.00000000 kcal/mol
 G_repulsion      =       0.00000000 hartree =       0.00000000 kcal/mol
 --------------------------------------------------
 Non-electrostatic Free Energy =       0.00000000 hartree =       0.00000000 kcal/mol
 Total                         =      -0.16485020 hartree =    -103.44505941 kcal/mol
 --------------------------------------------------
 SCF Energy (H0 + V/2)                       =   -1066.72216973 
 Solute Internal Energy (H0)                 =   -1066.55731953 
 Total Free Energy (H0 + V/2 + non-elec)     =   -1066.72216973 hartree
                                             = -669378.26443083 kcal/mol
***********************************************************

 SCF   energy in the final basis set =    -1066.7221697293
 Total energy in the final basis set =    -1066.7221697293
 
 --------------------------------------------------------------
 
                    Orbital Energies (a.u.)
 --------------------------------------------------------------
 
 Alpha MOs
 -- Occupied --
-19.1529 -19.1498 -14.5731 -10.3538 -10.3507 -10.3435 -10.3338 -10.3094
-10.3031 -10.3011 -10.2973 -10.2969 -10.2963 -10.2940 -10.2921 -10.2914
-10.2893 -10.2887 -10.2862 -10.2860 -10.2757 -10.2499 -10.2498 -10.2489
-10.2486  -1.1108  -1.0083  -1.0031  -0.9139  -0.9049  -0.9042  -0.8882
 -0.8680  -0.8411  -0.8385  -0.8337  -0.7962  -0.7871  -0.7533  -0.7521
 -0.7328  -0.7314  -0.6851  -0.6806  -0.6789  -0.6732  -0.6582  -0.6495
 -0.6222  -0.6138  -0.5997  -0.5940  -0.5828  -0.5684  -0.5560  -0.5532
 -0.5269  -0.5239  -0.5146  -0.5123  -0.5113  -0.5080  -0.5070  -0.5042
 -0.4993  -0.4957  -0.4893  -0.4866  -0.4772  -0.4663  -0.4643  -0.4569
 -0.4532  -0.4477  -0.4439  -0.4407  -0.4377  -0.4348  -0.4295  -0.4271
 -0.4270  -0.4232  -0.4213  -0.4154  -0.4146  -0.4141  -0.4123  -0.4079
 -0.4054  -0.4004  -0.3967  -0.3924  -0.3841  -0.3034  -0.2915  -0.2756
 -0.2725  -0.1899
 -- Virtual --
  0.0819   0.0868   0.0884   0.0915   0.0958   0.1073   0.1080   0.1096
  0.1134   0.1155   0.1238   0.1273   0.1299   0.1350   0.1376   0.1383
  0.1418   0.1485   0.1513   0.1561   0.1583   0.1631   0.1651   0.1711
  0.1732   0.1768   0.1806   0.1833   0.1845   0.1879   0.1905   0.1934
  0.1949   0.1976   0.1996   0.1999   0.2039   0.2065   0.2097   0.2111
  0.2129   0.2161   0.2206   0.2212   0.2228   0.2254   0.2273   0.2310
  0.2335   0.2393   0.2402   0.2409   0.2446   0.2470   0.2493   0.2530
  0.2558   0.2584   0.2631   0.2631   0.2661   0.2712   0.2714   0.2746
  0.2757   0.2784   0.2817   0.2844   0.2884   0.2889   0.2919   0.2946
  0.2977   0.3018   0.3038   0.3065   0.3081   0.3132   0.3152   0.3177
  0.3215   0.3227   0.3250   0.3299   0.3304   0.3352   0.3383   0.3422
  0.3446   0.3453   0.3473   0.3548   0.3579   0.3591   0.3632   0.3647
  0.3666   0.3670   0.3707   0.3743   0.3753   0.3783   0.3800   0.3828
  0.3853   0.3893   0.3916   0.3935   0.3961   0.4008   0.4034   0.4044
  0.4058   0.4086   0.4119   0.4135   0.4155   0.4186   0.4199   0.4206
  0.4230   0.4242   0.4265   0.4269   0.4293   0.4316   0.4347   0.4355
  0.4361   0.4397   0.4405   0.4427   0.4456   0.4482   0.4487   0.4503
  0.4526   0.4534   0.4558   0.4581   0.4593   0.4648   0.4669   0.4687
  0.4702   0.4724   0.4750   0.4758   0.4788   0.4802   0.4823   0.4872
  0.4885   0.4892   0.4940   0.4958   0.4988   0.4999   0.5007   0.5016
  0.5064   0.5073   0.5091   0.5113   0.5145   0.5166   0.5196   0.5236
  0.5240   0.5255   0.5276   0.5289   0.5306   0.5332   0.5353   0.5396
  0.5411   0.5418   0.5435   0.5485   0.5504   0.5541   0.5561   0.5573
  0.5604   0.5613   0.5630   0.5660   0.5681   0.5692   0.5722   0.5757
  0.5773   0.5811   0.5817   0.5849   0.5856   0.5897   0.5923   0.5933
  0.5953   0.6006   0.6014   0.6031   0.6048   0.6109   0.6126   0.6143
  0.6169   0.6197   0.6246   0.6266   0.6276   0.6331   0.6356   0.6368
  0.6398   0.6409   0.6431   0.6465   0.6490   0.6522   0.6543   0.6553
  0.6613   0.6628   0.6632   0.6651   0.6684   0.6721   0.6765   0.6808
  0.6826   0.6835   0.6855   0.6904   0.6920   0.6948   0.6977   0.7014
  0.7057   0.7078   0.7082   0.7113   0.7137   0.7187   0.7192   0.7233
  0.7251   0.7281   0.7323   0.7347   0.7359   0.7412   0.7422   0.7489
  0.7502   0.7517   0.7558   0.7601   0.7619   0.7638   0.7664   0.7690
  0.7712   0.7761   0.7777   0.7815   0.7843   0.7873   0.7911   0.7968
  0.7975   0.8022   0.8037   0.8060   0.8130   0.8157   0.8162   0.8210
  0.8215   0.8250   0.8269   0.8297   0.8345   0.8399   0.8411   0.8425
  0.8468   0.8501   0.8569   0.8577   0.8604   0.8643   0.8658   0.8706
  0.8776   0.8793   0.8818   0.8862   0.8897   0.8925   0.8945   0.8957
  0.9031   0.9096   0.9118   0.9188   0.9220   0.9240   0.9271   0.9290
  0.9356   0.9420   0.9466   0.9481   0.9509   0.9535   0.9604   0.9632
  0.9675   0.9698   0.9749   0.9781   0.9845   0.9875   0.9903   0.9954
  0.9984   1.0068   1.0168   1.0183   1.0229   1.0268   1.0330   1.0373
  1.0472   1.0522   1.0532   1.0589   1.0601   1.0655   1.0687   1.0696
  1.0776   1.0808   1.0920   1.0934   1.0976   1.1006   1.1056   1.1118
  1.1133   1.1167   1.1185   1.1222   1.1231   1.1287   1.1351   1.1391
  1.1436   1.1440   1.1452   1.1487   1.1543   1.1629   1.1656   1.1708
  1.1758   1.1838   1.1875   1.1935   1.1964   1.1989   1.2039   1.2085
  1.2119   1.2147   1.2283   1.2329   1.2374   1.2419   1.2494   1.2546
  1.2558   1.2597   1.2608   1.2674   1.2789   1.2834   1.2871   1.2961
  1.2994   1.3034   1.3084   1.3179   1.3240   1.3273   1.3350   1.3386
  1.3416   1.3488   1.3584   1.3611   1.3687   1.3733   1.3821   1.3844
  1.3856   1.3956   1.3971   1.4058   1.4087   1.4165   1.4202   1.4209
  1.4224   1.4300   1.4344   1.4455   1.4465   1.4493   1.4617   1.4657
  1.4695   1.4731   1.4791   1.4852   1.4940   1.4963   1.5075   1.5135
  1.5238   1.5265   1.5352   1.5389   1.5391   1.5457   1.5494   1.5512
  1.5624   1.5640   1.5685   1.5750   1.5835   1.5857   1.5977   1.6036
  1.6148   1.6175   1.6271   1.6461   1.6498   1.6551   1.6606   1.6693
  1.6812   1.6852   1.6912   1.6995   1.7030   1.7167   1.7205   1.7291
  1.7340   1.7424   1.7510   1.7613   1.7631   1.7703   1.7741   1.7804
  1.7846   1.7882   1.7981   1.8034   1.8095   1.8153   1.8182   1.8245
  1.8253   1.8293   1.8362   1.8493   1.8545   1.8616   1.8678   1.8709
  1.8769   1.8881   1.8932   1.8977   1.9049   1.9072   1.9137   1.9202
  1.9216   1.9284   1.9334   1.9344   1.9406   1.9425   1.9491   1.9534
  1.9624   1.9705   1.9744   1.9791   1.9828   1.9893   1.9940   1.9988
  2.0053   2.0100   2.0144   2.0199   2.0244   2.0285   2.0316   2.0356
  2.0375   2.0443   2.0505   2.0555   2.0608   2.0617   2.0729   2.0756
  2.0801   2.0858   2.0884   2.0955   2.1015   2.1022   2.1081   2.1105
  2.1198   2.1214   2.1244   2.1295   2.1340   2.1370   2.1414   2.1455
  2.1540   2.1546   2.1640   2.1658   2.1714   2.1755   2.1813   2.1883
  2.1920   2.1986   2.2029   2.2056   2.2120   2.2152   2.2216   2.2253
  2.2285   2.2390   2.2414   2.2509   2.2572   2.2576   2.2715   2.2735
  2.2808   2.2900   2.3001   2.3048   2.3064   2.3210   2.3238   2.3255
  2.3292   2.3322   2.3442   2.3540   2.3574   2.3607   2.3688   2.3757
  2.3791   2.3843   2.3913   2.3965   2.4051   2.4072   2.4140   2.4184
  2.4205   2.4276   2.4318   2.4429   2.4456   2.4532   2.4589   2.4723
  2.4747   2.4840   2.4891   2.4960   2.4974   2.5061   2.5259   2.5281
  2.5429   2.5498   2.5543   2.5582   2.5656   2.5700   2.5723   2.5880
  2.5986   2.6036   2.6177   2.6223   2.6305   2.6337   2.6390   2.6436
  2.6468   2.6544   2.6601   2.6630   2.6694   2.6745   2.6802   2.6915
  2.6955   2.7070   2.7117   2.7182   2.7305   2.7341   2.7496   2.7522
  2.7564   2.7589   2.7643   2.7693   2.7717   2.7799   2.7845   2.7925
  2.8012   2.8049   2.8065   2.8151   2.8260   2.8289   2.8368   2.8484
  2.8636   2.8685   2.8801   2.8854   2.9146   2.9206   2.9350   2.9406
  2.9420   2.9549   2.9600   2.9739   2.9817   2.9955   3.0007   3.0148
  3.0188   3.0253   3.0321   3.0511   3.0941   3.0968   3.1108   3.1225
  3.1339   3.1425   3.1496   3.1565   3.1588   3.1647   3.1712   3.1729
  3.1824   3.1899   3.1997   3.2049   3.2088   3.2209   3.2340   3.2377
  3.2521   3.2626   3.2697   3.2725   3.2798   3.2851   3.2884   3.2991
  3.3023   3.3079   3.3122   3.3308   3.3413   3.3549   3.3578   3.3627
  3.3702   3.3737   3.3839   3.4037   3.4214   3.4447   3.4814   3.5129
  3.5346   3.5430   3.5529   3.6027   3.6207   3.6584   3.9225   4.0460
 --------------------------------------------------------------
 
          Ground-State Mulliken Net Atomic Charges

     Atom                 Charge (a.u.)
  ----------------------------------------
      1 N                    -2.342513
      2 C                     0.268253
      3 C                     0.390375
      4 C                     0.285258
      5 C                     0.746423
      6 C                     0.557333
      7 C                     0.322296
      8 C                     0.207353
      9 C                     0.309374
     10 C                     0.017885
     11 C                    -0.081395
     12 C                    -0.055261
     13 C                    -0.001386
     14 C                     0.768954
     15 C                     0.598052
     16 C                     1.364592
     17 C                     0.718647
     18 H                    -0.963906
     19 H                    -0.142546
     20 H                    -0.284963
     21 H                     0.014475
     22 H                    -0.143081
     23 H                    -0.316572
     24 H                    -0.206677
     25 H                    -0.477440
     26 H                    -0.036363
     27 H                    -0.189471
     28 H                    -0.013351
     29 H                    -0.007454
     30 H                    -0.018889
     31 H                    -0.080713
     32 H                     0.151814
     33 H                    -0.382782
     34 H                     0.042284
     35 H                    -0.011808
     36 H                    -0.028721
     37 H                     0.047498
     38 H                     0.057597
     39 H                    -0.071134
     40 H                    -0.015784
     41 H                    -0.092733
     42 H                     0.076092
     43 H                     0.100460
     44 H                    -0.013171
     45 H                     0.072164
     46 H                     0.088009
     47 H                     0.003326
     48 H                     0.162195
     49 H                    -0.613258
     50 H                     0.081376
     51 H                     0.110005
     52 H                     0.040922
     53 H                    -0.011574
     54 O                    -0.835829
     55 H                    -0.399510
     56 C                     0.203248
     57 C                     0.034920
     58 C                    -0.187154
     59 H                     0.068251
     60 C                    -0.082048
     61 H                    -0.083503
     62 C                     0.300600
     63 C                    -0.063479
     64 O                    -0.890940
     65 H                    -0.064622
  ----------------------------------------
  Sum of atomic charges =    -1.000000

  Building new vdw surfaces
         Merz-Kollman RESP Net Atomic Charges

     Atom                 Charge (a.u.)
  ----------------------------------------
      1 N                     0.469906
      2 C                    -0.220395
      3 C                    -0.319756
      4 C                    -0.346195
      5 C                    -0.346195
      6 C                    -0.314132
      7 C                    -0.057052
      8 C                    -0.070654
      9 C                     0.016825
     10 C                     0.303872
     11 C                     0.144473
     12 C                     0.118010
     13 C                     0.149317
     14 C                    -0.629412
     15 C                    -0.453824
     16 C                    -0.453824
     17 C                    -0.453824
     18 H                     0.309220
     19 H                     0.109401
     20 H                     0.132303
     21 H                     0.132303
     22 H                     0.132303
     23 H                     0.132303
     24 H                     0.136113
     25 H                     0.136113
     26 H                     0.111649
     27 H                     0.111649
     28 H                     0.070819
     29 H                     0.070819
     30 H                     0.082353
     31 H                     0.082353
     32 H                     0.055004
     33 H                     0.055004
     34 H                     0.004675
     35 H                     0.004675
     36 H                     0.022279
     37 H                     0.022279
     38 H                     0.022279
     39 H                     0.022279
     40 H                     0.007731
     41 H                     0.007731
     42 H                     0.151834
     43 H                     0.151834
     44 H                     0.151834
     45 H                     0.112958
     46 H                     0.112958
     47 H                     0.112958
     48 H                     0.112994
     49 H                     0.112994
     50 H                     0.112994
     51 H                     0.110811
     52 H                     0.110811
     53 H                     0.110811
     54 O                    -0.976766
     55 H                     0.089774
     56 C                    -0.226628
     57 C                     0.342843
     58 C                    -0.528798
     59 H                     0.166850
     60 C                    -0.264063
     61 H                     0.150383
     62 C                     0.657658
     63 C                    -0.573589
     64 O                    -1.024462
     65 H                     0.210233
  ----------------------------------------
  Sum of atomic charges =    -1.000000

  Related Dipole Moment =    43.5571 (X -9.6213 Y 38.4637 Z 18.0330)

 -----------------------------------------------------------------
                    Cartesian Multipole Moments
 -----------------------------------------------------------------
    Charge (ESU x 10^10)
                -4.8032
    Dipole Moment (Debye)
         X      -9.6151      Y      38.6225      Z      18.1547
       Tot      43.7463
    Quadrupole Moments (Debye-Ang)
        XX    -193.3006     XY      16.8011     YY    -362.2175
        XZ      25.3887     YZ     -78.5947     ZZ    -199.0599
    Octopole Moments (Debye-Ang^2)
       XXX    -378.5418    XXY     305.7256    XYY     -91.9412
       YYY    1865.3903    XXZ     229.7739    XYZ     -54.0433
       YYZ     543.8614    XZZ    -162.0432    YZZ     378.2605
       ZZZ     498.0515
    Hexadecapole Moments (Debye-Ang^3)
      XXXX   -5946.2306   XXXY     551.5776   XXYY   -2590.4644
      XYYY     101.6228   YYYY  -15973.9859   XXXZ     554.8429
      XXYZ    -654.5905   XYYZ     151.9177   YYYZ   -3759.2165
      XXZZ   -1817.5070   XYZZ     235.0386   YYZZ   -2901.3932
      XZZZ     488.9031   YZZZ   -1689.6354   ZZZZ   -4219.8420
 -----------------------------------------------------------------
 Calculating MO derivatives via CPSCF
 Full subspace dimension requested for CIS/TDDFT

 CIS/TDDFT memory preview:
 --------------------------
	NOV = NOa*NVa + NOb*NVb = 142688
	NRoots = 0, max iter = 30, max vectors = 71344
	Size of each subspace vector: 1.09 Mb
	Davidson algorithm may add up to 2 x NOV x NRoots (= 0.0 Mb) per iteration
	Max memory = 155333.4 Mb (worst case scenario)
	Currently available memory = 96000.0 Mb

	In case of problems:
	(a) increase memory (MEM_TOTAL = 155334 can hold 71344 subspace vectors), or
	(b) request fewer states (CIS_N_ROOTS = 0 will fit in current MEM_TOTAL), or
	(c) reduce MAX_CIS_SUBSPACE (= 44092 will fit in current MEM_TOTAL).
	Reducing MAX_CIS_SUBSPACE may hamper convergence.

 CPSCF will be done in 3 segments to save memory.
 Computing fast CPCM-SWIG hessian.
 Computing fast CPCM-SWIG hessian.
 Computing fast CPCM-SWIG hessian.
   1         0          66      0.253718    0.006101
   2         0          66      0.071025    0.002386
   3         0          66      0.009573    0.000250
   4         0          66      0.001646    0.000049
   5         0          66      0.000262    0.000010
   6         0          66      0.000043    0.000002
   7        42          24      0.000004    0.000000
   8        66           0      0.000000    0.000000    Roots Converged
   1         0          66      0.113198    0.003180
   2         0          66      0.029301    0.001120
   3         0          66      0.004708    0.000181
   4         0          66      0.000821    0.000043
   5         0          66      0.000129    0.000007
   6        12          54      0.000021    0.000002
   7        56          10      0.000002    0.000000
   8        66           0      0.000000    0.000000    Roots Converged
   1         0          66      0.226662    0.016943
   2         0          66      0.058213    0.005392
   3         0          66      0.010283    0.001378
   4         0          66      0.002354    0.000342
   5         0          66      0.000397    0.000059
   6         5          61      0.000060    0.000010
   7        44          22      0.000007    0.000001
   8        63           3      0.000000    0.000000
   9        66           0      0.000000    0.000000    Roots Converged
 Time for AOints: 24172.8 s (CPU) 630.0 s (wall)
 ------------------------------------------------------------------------------
                     AOints        : Timing summary (seconds)
 ------------------------------------------------------------------------------
     job step          cpu (% of tot)      sys (% of tot)     wall (% of tot)
 ------------------------------------------------------------------------------
  cpscf_lag         0.1622E+06 (18.5)   0.2235E-01 (16.5)   0.2469E+05 (37.4)
  iterzp            0.6911E+06 (78.8)   0.1121E+00 (82.8)   0.4069E+05 (61.6)
  make_fx           0.0000E+00 ( 0.0)   0.0000E+00 ( 0.0)   0.0000E+00 ( 0.0)
  AOints            0.2417E+05 ( 2.8)   0.8770E-03 ( 0.6)   0.6300E+03 ( 1.0)
 ------------------------------------------------------------------------------
   Grand Totals     0.8775E+06          0.1355E+00          0.6602E+05
 ------------------------------------------------------------------------------
 Time for AOints: 23729.2 s (CPU) 621.6 s (wall)
 ------------------------------------------------------------------------------
                     AOints        : Timing summary (seconds)
 ------------------------------------------------------------------------------
     job step          cpu (% of tot)      sys (% of tot)     wall (% of tot)
 ------------------------------------------------------------------------------
  cpscf_lag         0.1622E+06 (17.9)   0.2235E-01 (15.9)   0.2469E+05 (36.4)
  iterzp            0.6911E+06 (76.1)   0.1121E+00 (80.0)   0.4069E+05 (60.0)
  make_fx           0.0000E+00 ( 0.0)   0.0000E+00 ( 0.0)   0.0000E+00 ( 0.0)
  AOints            0.4790E+05 ( 5.3)   0.1874E-02 ( 1.3)   0.1252E+04 ( 1.8)
 ------------------------------------------------------------------------------
   Grand Totals     0.9077E+06          0.1401E+00          0.6784E+05
 ------------------------------------------------------------------------------
 Time for AOints: 25017.7 s (CPU) 651.1 s (wall)
 ------------------------------------------------------------------------------
                     AOints        : Timing summary (seconds)
 ------------------------------------------------------------------------------
     job step          cpu (% of tot)      sys (% of tot)     wall (% of tot)
 ------------------------------------------------------------------------------
  cpscf_lag         0.1622E+06 (17.3)   0.2235E-01 (15.4)   0.2469E+05 (35.4)
  iterzp            0.6911E+06 (73.6)   0.1121E+00 (77.4)   0.4069E+05 (58.4)
  make_fx           0.0000E+00 ( 0.0)   0.0000E+00 ( 0.0)   0.0000E+00 ( 0.0)
  AOints            0.7292E+05 ( 7.8)   0.2784E-02 ( 1.9)   0.1903E+04 ( 2.7)
 ------------------------------------------------------------------------------
   Grand Totals     0.9391E+06          0.1448E+00          0.6970E+05
 ------------------------------------------------------------------------------
 Calculating analytic Hessian of the SCF energy
 Polarizability Matrix (a.u.)
            1           2           3
    1-400.7653838 -41.9126389 -16.2953573
    2 -41.9126389-414.0511932   8.9590154
    3 -16.2953573   8.9590154-394.5779225

 Q-Chem warning in module drvman/find_multipole_der.C, line 187:

 Net Molecular Charges From Derivative of Dipole Moment are Inconsistent

 Derivative of Dipole Moment Matrix (a.u.)
            1           2           3
    1  -0.6821827  -0.0000407  -0.0384689
    2  -0.0379866  -0.5791565   0.0127882
    3  -0.0483340  -0.0401422  -0.5655573
    4   0.3554027  -0.1108485   0.3130271
    5  -0.1667928   0.2382387  -0.1854675
    6   0.3236916  -0.2406820   0.0700976
    7   0.4259211  -0.1038857  -0.2075278
    8  -0.1052245   0.1610722   0.0807058
    9  -0.2396465   0.1025821   0.3239067
   10   0.2107857   0.1093996   0.2116105
   11   0.1328671   0.3116577   0.1664168
   12   0.2380491   0.1978716   0.3397192
   13   0.2715003   0.1770162  -0.0903716
   14   0.2029029   0.4662906  -0.1486211
   15  -0.1083337  -0.1462334   0.2311357
   16   0.0218215   0.0832680  -0.1597504
   17   0.1099699   0.0299230   0.0494318
   18  -0.1562755   0.0239382   0.0825864
   19  -0.0510185   0.1062885   0.0555011
   20   0.0917231   0.1260593  -0.0133026
   21   0.0901919  -0.0415128  -0.0091111
   22   0.0076001  -0.0781390  -0.1181376
   23  -0.0390065  -0.0356870   0.0208457
   24  -0.1308392  -0.0140593   0.0132659
   25  -0.0172519  -0.0342929   0.1165594
   26  -0.0464760  -0.1510441   0.0140926
   27   0.0581078  -0.0476529   0.1017914
   28   0.1370178  -0.0013290  -0.0326308
   29  -0.0571570   0.1477034  -0.0763925
   30  -0.0409997  -0.0215146   0.1278319
   31   0.1118076   0.0313475  -0.0104328
   32   0.0333515   0.1706762   0.0042987
   33  -0.0742337   0.0408967   0.1759059
   34   0.1718403  -0.0488441   0.0071325
   35  -0.0713649   0.1303440  -0.0096415
   36   0.0424014   0.0411626   0.1337767
   37   0.1670508  -0.0090505   0.0358796
   38   0.0067494   0.2073343  -0.0431582
   39   0.0575907   0.0046003   0.1199787
   40   0.0662761   0.0149382  -0.0583988
   41   0.0326392   0.0856830   0.0176488
   42  -0.0646968  -0.0007965   0.0701129
   43   0.0301041   0.0403324   0.0163650
   44   0.0416431   0.1083886  -0.0074254
   45   0.0451100  -0.0256201   0.0675465
   46   0.0348337  -0.0075183  -0.0317372
   47   0.0010001  -0.0222615   0.0035744
   48  -0.0290601  -0.0069814   0.1278178
   49   0.0540214  -0.0324111   0.0547307
   50  -0.0476736   0.0661474   0.0193453
   51   0.0376844  -0.0061382   0.0834507
   52   0.1085099  -0.0875206  -0.1778998
   53  -0.0032192   0.2154955   0.1539023
   54  -0.1248398   0.2376466   0.2613991
   55  -0.0167862  -0.0724607  -0.0080635
   56  -0.0521943  -0.0073474   0.0544211
   57   0.0191283   0.1013826   0.0931565
   58   0.0096494  -0.0467204  -0.0486823
   59  -0.0637058   0.0327807  -0.1074410
   60  -0.0268897  -0.0614492   0.0122388
   61   0.0349450   0.0062774   0.0572002
   62   0.0016015  -0.0580148   0.0883726
   63   0.0474035   0.0532947   0.0560608
   64   0.0515413  -0.0746381   0.0251651
   65  -0.0251079   0.1717207  -0.0384181
   66  -0.0038484  -0.0179255   0.0380178
   67   0.0195046   0.0823275  -0.1009363
   68   0.0528061  -0.0873541   0.0293389
   69  -0.0792260   0.0126170   0.0540909
   70   0.0513287  -0.0904722  -0.0369009
   71  -0.0658109   0.0418997  -0.0367477
   72  -0.0161595  -0.0495071  -0.0745568
   73  -0.0319201   0.0954752  -0.0120438
   74   0.0477948  -0.0010453   0.0204225
   75  -0.0445848   0.0608765   0.0674837
   76  -0.0163391   0.0663145   0.0826896
   77   0.0385296   0.0031308  -0.0813460
   78   0.0800928  -0.1049476  -0.0793964
   79  -0.0177972  -0.1234542   0.0324293
   80  -0.0986331  -0.0831993   0.0338766
   81   0.0383092   0.0709412   0.0272092
   82  -0.0089063  -0.0653842  -0.0828948
   83  -0.0652208   0.0017119  -0.0826736
   84  -0.0691479  -0.0578463  -0.0247008
   85   0.0426618  -0.0309428   0.0350422
   86  -0.0332862  -0.0729169   0.1205826
   87   0.0227892   0.0945630  -0.0173747
   88  -0.0169861   0.0152917   0.1238326
   89   0.0016838   0.0528555  -0.0333909
   90   0.1020027  -0.0168673  -0.1305408
   91   0.0477636  -0.0205598  -0.0737663
   92  -0.0121848   0.0231645   0.0561973
   93  -0.0547758   0.0480881   0.0587163
   94  -0.0142722  -0.0354765  -0.0919869
   95  -0.0204156   0.0711011  -0.0041868
   96  -0.0702990  -0.0298186  -0.1337469
   97   0.0417504   0.0420503  -0.0105113
   98   0.0355997   0.1823510   0.0345724
   99   0.0011865   0.0619611   0.0809169
  100  -0.0017559   0.0814369   0.0816155
  101   0.0689270   0.0120744  -0.0497613
  102   0.0631512  -0.0972815  -0.1001605
  103  -0.0638554  -0.1403152   0.0163812
  104  -0.0863118  -0.1000731   0.0733882
  105   0.0185603   0.0762804   0.0297240
  106  -0.0630046  -0.0693928  -0.0971597
  107  -0.0634248  -0.0305868  -0.1219223
  108  -0.0496491  -0.0983633  -0.0455862
  109   0.0244625   0.0097664   0.0252586
  110   0.0008879  -0.1228827   0.1520195
  111   0.0359806   0.0950954  -0.0324100
  112   0.0092416  -0.0580208   0.1271084
  113  -0.0528323   0.0550044  -0.0094638
  114   0.0904306  -0.0113752  -0.1151670
  115  -0.0850800   0.1296695  -0.0559010
  116   0.1441574  -0.1718748   0.0478966
  117  -0.0179626  -0.0105310   0.0709944
  118  -0.0201620  -0.0379205  -0.0824399
  119  -0.0206753   0.0527435   0.0234643
  120  -0.0951875  -0.0320370  -0.1877963
  121  -0.0594106   0.1356195   0.0364411
  122   0.0823698  -0.1671945  -0.0022500
  123   0.0210644   0.0133291   0.0550587
  124  -0.0157330   0.0583341   0.1178038
  125   0.0219147   0.0401773  -0.1067396
  126   0.0481607  -0.0903372  -0.1106890
  127  -0.0306568  -0.1154799   0.0112388
  128  -0.1498486  -0.0638962   0.0314878
  129   0.0589040   0.0848687   0.0171786
  130  -0.0434733   0.0964551  -0.1055258
  131   0.1246112  -0.0662006   0.0744190
  132  -0.0976631   0.0464938   0.0115664
  133  -0.0249924  -0.0406456  -0.0726644
  134  -0.0963786  -0.0399946  -0.1078064
  135  -0.1150437  -0.0796454  -0.0027681
  136   0.0339784  -0.0446725   0.0292067
  137   0.0128078  -0.1120135   0.1231561
  138  -0.0167674   0.1360422   0.0081203
  139  -0.0638164   0.0714107   0.1018579
  140   0.0677598   0.0635773  -0.0410004
  141   0.1310676  -0.0542887  -0.0893374
  142  -0.0342138  -0.0383752   0.1103175
  143   0.0064095   0.0492151  -0.0330967
  144   0.1679358   0.0213480  -0.1302400
  145   0.0960163   0.0731227  -0.0095384
  146   0.0185987   0.0014884   0.0250185
  147  -0.0217620   0.0236478   0.0827318
  148  -0.0715282  -0.0898231  -0.1368285
  149  -0.0626359   0.0309932  -0.0306473
  150  -0.1617301  -0.0542927  -0.0901562
  151  -0.0078562  -0.0004434  -0.1282145
  152   0.0034825   0.0905987  -0.0121504
  153  -0.0543544   0.0052302  -0.1555151
  154  -0.0217329   0.1056380   0.0339927
  155   0.1556897  -0.0937503  -0.0130352
  156   0.0083966   0.0353828   0.0495915
  157  -0.0540287  -0.1410030   0.0517040
  158  -0.1559219  -0.0938153   0.0157839
  159   0.0313090  -0.0037351   0.0481507
  160  -1.6222122  -1.1210247   0.2082238
  161  -1.1344915  -2.6152626  -0.0786722
  162   0.2135013  -0.0954563  -0.7738208
  163   0.0072766  -0.0986889  -0.1654085
  164  -0.1178008   0.0992220  -0.0539448
  165  -0.1866966  -0.0378420  -0.0891270
  166  -0.2762720   0.2610892  -0.2397707
  167  -0.2752332  -0.3155774  -0.6119077
  168   0.5205506   0.3320846   0.2361682
  169   0.8400154   1.4544710  -0.2285981
  170   1.4152426   1.9762550   0.0866724
  171  -0.2768355  -0.0106449  -0.5436780
  172  -0.2593591  -0.3173125   0.5707872
  173   0.2471369  -0.3210152   0.3452356
  174  -0.1603698  -0.6219506   0.1856356
  175   0.1314261  -0.0573478  -0.0246772
  176  -0.0458099  -0.0210142   0.2056826
  177  -0.0290955   0.2131188  -0.1462916
  178  -0.1795233  -0.2533220   0.6052626
  179   0.2248608  -0.2844467   0.3333432
  180  -0.1361404  -0.5853021   0.1746269
  181   0.1267938  -0.0411117  -0.0373337
  182  -0.0433317  -0.0272270   0.2129458
  183  -0.0234221   0.1938278  -0.1261359
  184   1.0621651   1.5946675  -0.2769142
  185   1.5582092   2.0078315  -0.0058561
  186  -0.3419619  -0.0667055  -0.4883336
  187  -0.2183867   0.1987808  -0.1330251
  188  -0.3260303  -0.3511054  -0.6149703
  189   0.5916348   0.3708180   0.1802737
  190  -1.6897719  -1.2932876   0.1073420
  191  -1.2511169  -2.5163469   0.0632641
  192   0.1470846   0.1196974  -0.6173898
  193  -0.0257981  -0.1083061  -0.2166392
  194  -0.0917781   0.0878817  -0.0332133
  195  -0.1856012  -0.0397142  -0.0884694
 -----------------------------------------
 Net:  -1.00319  -0.99872  -1.00013
 -----------------------------------------

 Call libqints based aoints job 221
atom: 0 element: 7
atom: 1 element: 6
atom: 2 element: 6
atom: 3 element: 6
atom: 4 element: 6
atom: 5 element: 6
atom: 6 element: 6
atom: 7 element: 6
atom: 8 element: 6
atom: 9 element: 6
atom: 10 element: 6
atom: 11 element: 6
atom: 12 element: 6
atom: 13 element: 6
atom: 14 element: 6
atom: 15 element: 6
atom: 16 element: 6
atom: 17 element: 1
atom: 18 element: 1
atom: 19 element: 1
atom: 20 element: 1
atom: 21 element: 1
atom: 22 element: 1
atom: 23 element: 1
atom: 24 element: 1
atom: 25 element: 1
atom: 26 element: 1
atom: 27 element: 1
atom: 28 element: 1
atom: 29 element: 1
atom: 30 element: 1
atom: 31 element: 1
atom: 32 element: 1
atom: 33 element: 1
atom: 34 element: 1
atom: 35 element: 1
atom: 36 element: 1
atom: 37 element: 1
atom: 38 element: 1
atom: 39 element: 1
atom: 40 element: 1
atom: 41 element: 1
atom: 42 element: 1
atom: 43 element: 1
atom: 44 element: 1
atom: 45 element: 1
atom: 46 element: 1
atom: 47 element: 1
atom: 48 element: 1
atom: 49 element: 1
atom: 50 element: 1
atom: 51 element: 1
atom: 52 element: 1
atom: 53 element: 8
atom: 54 element: 1
atom: 55 element: 6
atom: 56 element: 6
atom: 57 element: 6
atom: 58 element: 1
atom: 59 element: 6
atom: 60 element: 1
atom: 61 element: 6
atom: 62 element: 6
atom: 63 element: 8
atom: 64 element: 1
 
 Direct stationary perturbation theory relativistic correction:
 
 rels  =       0.268284698758
 relv  =      -1.673802326104
 rel2e =       0.000000000000
 E_rel =      -1.405517627346
 
 Computing fast CPCM-SWIG hessian
 Gradient time:  CPU 1259345.92 s  wall 79372.33 s
 **********************************************************************
 **                                                                  **
 **                       VIBRATIONAL ANALYSIS                       **
 **                       --------------------                       **
 **                                                                  **
 **        VIBRATIONAL FREQUENCIES (CM**-1) AND NORMAL MODES         **
 **     FORCE CONSTANTS (mDYN/ANGSTROM) AND REDUCED MASSES (AMU)     **
 **                  INFRARED INTENSITIES (KM/MOL)                   **
 **                                                                  **
 **********************************************************************
 

 Mode:                 1                      2                      3
 Frequency:      -126.65                 -55.50                 -53.60
 Force Cnst:      0.0781                 0.0086                 0.0082
 Red. Mass:       8.2643                 4.7168                 4.8653
 IR Active:          YES                    YES                    YES
 IR Intens:       31.806                 17.166                  3.502
 Raman Active:       YES                    YES                    YES
               X      Y      Z        X      Y      Z        X      Y      Z
 N         -0.012 -0.082 -0.029    0.068 -0.004 -0.016    0.022 -0.028  0.019
 C         -0.008 -0.079 -0.038    0.079  0.009 -0.017    0.041  0.009  0.055
 C         -0.009 -0.088 -0.025    0.051 -0.041 -0.025    0.012 -0.019  0.008
 C         -0.015 -0.077 -0.028    0.089 -0.002 -0.030    0.035 -0.062  0.030
 C         -0.016 -0.078 -0.024    0.044  0.016  0.011   -0.001 -0.027 -0.013
 C         -0.027 -0.084 -0.022    0.047  0.013  0.008    0.042  0.087  0.018
 C         -0.011 -0.091 -0.023    0.041 -0.072 -0.035    0.005 -0.048 -0.010
 C         -0.021 -0.071 -0.027    0.069  0.007 -0.040    0.020 -0.050  0.044
 C         -0.021 -0.072 -0.028    0.066  0.065  0.026    0.007 -0.044 -0.005
 C         -0.011 -0.075 -0.035    0.053  0.025  0.023    0.059  0.141  0.102
 C         -0.002 -0.077 -0.022    0.004 -0.142 -0.042   -0.010 -0.053 -0.019
 C         -0.054 -0.039 -0.007    0.061  0.029 -0.039   -0.013 -0.020  0.062
 C         -0.014 -0.077 -0.014   -0.006  0.121  0.038   -0.003 -0.037 -0.027
 C         -0.026 -0.070 -0.025    0.011  0.033  0.058    0.082  0.248  0.036
 C          0.003 -0.066 -0.021   -0.010 -0.185 -0.055   -0.018 -0.083 -0.034
 C         -0.091 -0.017 -0.002    0.014  0.060 -0.024   -0.045 -0.002  0.057
 C         -0.012 -0.073 -0.013    0.006  0.195  0.047    0.000 -0.053 -0.023
 H          0.010 -0.046 -0.034    0.092  0.032 -0.018    0.041 -0.023  0.066
 H          0.002 -0.096 -0.065    0.090 -0.008 -0.040    0.056  0.019  0.100
 H         -0.011 -0.084 -0.027    0.023 -0.034 -0.012   -0.002  0.004 -0.003
 H         -0.004 -0.088 -0.024    0.070 -0.051 -0.036    0.024 -0.011  0.027
 H         -0.019 -0.080 -0.031    0.105 -0.008 -0.010    0.041 -0.080  0.044
 H         -0.011 -0.073 -0.026    0.104  0.003 -0.044    0.045 -0.069  0.003
 H         -0.014 -0.082 -0.023    0.020  0.014  0.024   -0.015  0.008 -0.023
 H         -0.018 -0.077 -0.016    0.033 -0.000  0.007   -0.012 -0.051 -0.037
 H         -0.039 -0.107 -0.018    0.021 -0.004 -0.001    0.041  0.142 -0.011
 H         -0.037 -0.066 -0.004    0.043  0.028  0.030    0.032  0.065 -0.042
 H         -0.016 -0.095 -0.015    0.075 -0.069 -0.067    0.022 -0.063 -0.008
 H         -0.013 -0.095 -0.031    0.023 -0.047 -0.001   -0.007 -0.049 -0.017
 H          0.002 -0.078 -0.012    0.070  0.007 -0.040    0.042 -0.045  0.057
 H         -0.031 -0.082 -0.056    0.053 -0.005 -0.043    0.008 -0.061  0.025
 H         -0.026 -0.053 -0.027    0.085  0.028  0.018    0.013 -0.070 -0.007
 H         -0.027 -0.078 -0.046    0.117  0.100  0.043    0.015 -0.037  0.019
 H          0.003 -0.051 -0.037    0.087  0.043  0.036    0.040  0.062  0.130
 H          0.002 -0.094 -0.050    0.057  0.009 -0.004    0.070  0.177  0.194
 H          0.006 -0.079 -0.028   -0.037 -0.139 -0.009   -0.028 -0.037 -0.022
 H         -0.009 -0.072 -0.016    0.027 -0.166 -0.072    0.003 -0.051 -0.013
 H         -0.075 -0.046 -0.020    0.061  0.000 -0.037   -0.035 -0.020  0.049
 H         -0.032 -0.018  0.014    0.090  0.053 -0.049    0.005 -0.000  0.088
 H         -0.015 -0.089 -0.013   -0.016  0.148  0.043   -0.006 -0.013 -0.026
 H         -0.007 -0.072 -0.007   -0.063  0.084  0.040   -0.010 -0.042 -0.047
 H         -0.037 -0.086 -0.024   -0.025  0.012  0.045    0.098  0.321  0.011
 H         -0.037 -0.055 -0.015    0.007  0.050  0.087    0.066  0.218 -0.052
 H         -0.014 -0.062 -0.028    0.015  0.041  0.069    0.096  0.286  0.097
 H         -0.004 -0.062 -0.019    0.033 -0.191 -0.087    0.000 -0.099 -0.033
 H          0.011 -0.069 -0.024   -0.034 -0.162 -0.025   -0.032 -0.084 -0.040
 H          0.007 -0.057 -0.021   -0.041 -0.234 -0.062   -0.030 -0.088 -0.041
 H         -0.073 -0.001  0.009    0.003  0.099 -0.032   -0.012 -0.006  0.079
 H         -0.125 -0.048 -0.020   -0.019  0.036  0.002   -0.073 -0.029  0.008
 H         -0.116  0.015  0.011    0.017  0.068 -0.029   -0.082  0.043  0.077
 H         -0.010 -0.064 -0.014    0.016  0.172  0.042    0.003 -0.075 -0.025
 H         -0.017 -0.077 -0.018    0.064  0.235  0.043    0.006 -0.048 -0.004
 H         -0.007 -0.077 -0.005   -0.050  0.236  0.063   -0.006 -0.048 -0.039
 O          0.186  0.034 -0.048   -0.105 -0.015 -0.078    0.088 -0.071  0.103
 H          0.183  0.064 -0.038   -0.105  0.077 -0.000   -0.092 -0.121  0.052
 C          0.131  0.092 -0.004   -0.090  0.029  0.002   -0.063 -0.067  0.013
 C          0.136  0.071 -0.020   -0.078 -0.031 -0.043    0.027 -0.032  0.042
 C          0.049  0.168  0.058   -0.101  0.042  0.057   -0.115 -0.037 -0.066
 H          0.022  0.193  0.075   -0.126  0.102  0.098   -0.181 -0.070 -0.087
 C          0.086  0.109  0.012   -0.044 -0.104 -0.046    0.047  0.048 -0.005
 H          0.104  0.093 -0.000   -0.021 -0.162 -0.088    0.109  0.083  0.017
 C         -0.037  0.240  0.111   -0.095 -0.007  0.071   -0.087  0.037 -0.118
 C          0.005  0.177  0.070   -0.051 -0.094  0.007   -0.007  0.083 -0.081
 O         -0.168  0.365  0.209   -0.134  0.028  0.135   -0.136  0.068 -0.196
 H         -0.055  0.211  0.110   -0.033 -0.147  0.007    0.013  0.148 -0.115
 TransDip  -0.025 -0.172 -0.049    0.129 -0.001 -0.032    0.033 -0.014  0.048

 Mode:                 4                      5                      6
 Frequency:       -35.17                  27.77                  34.63
 Force Cnst:      0.0036                 0.0016                 0.0025
 Red. Mass:       4.9033                 3.4421                 3.5034
 IR Active:          YES                    YES                    YES
 IR Intens:       13.484                  2.082                  1.436
 Raman Active:       YES                    YES                    YES
               X      Y      Z        X      Y      Z        X      Y      Z
 N         -0.017  0.009 -0.034    0.039 -0.012 -0.002   -0.025 -0.053  0.002
 C         -0.020 -0.005 -0.053    0.035 -0.013  0.004   -0.005 -0.033  0.001
 C         -0.014 -0.002 -0.025    0.039  0.006 -0.004   -0.028 -0.073  0.006
 C         -0.024  0.024 -0.039    0.033 -0.024  0.007   -0.018 -0.053 -0.003
 C         -0.016  0.016 -0.012    0.041 -0.015 -0.007   -0.045 -0.041  0.008
 C          0.001 -0.025 -0.063   -0.006 -0.029  0.048   -0.005  0.005 -0.015
 C         -0.010  0.021 -0.007    0.034 -0.011 -0.016   -0.011 -0.020  0.027
 C         -0.022  0.021 -0.044    0.025 -0.016  0.031   -0.000 -0.067 -0.022
 C          0.018  0.053  0.015    0.016  0.001 -0.030   -0.017 -0.016  0.030
 C          0.006 -0.044 -0.111   -0.063 -0.047  0.107    0.016  0.044  0.028
 C          0.000  0.015  0.003    0.047  0.046 -0.023    0.054  0.081  0.046
 C         -0.030  0.022 -0.039   -0.025 -0.006  0.069    0.037 -0.082 -0.050
 C         -0.083  0.133  0.017   -0.068  0.066 -0.089   -0.058  0.017  0.055
 C          0.066 -0.069 -0.155   -0.156 -0.074  0.203   -0.014  0.106  0.028
 C          0.005  0.038  0.021    0.051  0.048 -0.036    0.114  0.242  0.083
 C         -0.047  0.033 -0.025   -0.030  0.002  0.102    0.040 -0.087 -0.074
 C         -0.071  0.233  0.026   -0.119  0.130 -0.134   -0.040  0.070  0.069
 H         -0.026 -0.009 -0.057    0.058  0.008  0.011   -0.010 -0.032 -0.003
 H         -0.024 -0.002 -0.052    0.032 -0.025 -0.029    0.013 -0.038  0.016
 H         -0.004 -0.024 -0.012    0.036  0.029 -0.023   -0.017 -0.109  0.031
 H         -0.022 -0.011 -0.044    0.048  0.019  0.022   -0.050 -0.087 -0.029
 H         -0.028  0.031 -0.047    0.031 -0.039  0.009   -0.015 -0.031 -0.006
 H         -0.026  0.028 -0.028    0.037 -0.026 -0.002   -0.032 -0.057  0.009
 H         -0.044  0.014  0.004    0.064 -0.026 -0.014   -0.075 -0.025  0.016
 H         -0.015  0.010 -0.030    0.040 -0.007  0.015   -0.051 -0.060 -0.015
 H          0.022 -0.037 -0.042   -0.041 -0.016  0.016   -0.010  0.021 -0.028
 H         -0.003 -0.021 -0.063    0.032 -0.043  0.081   -0.020  0.003 -0.041
 H         -0.021  0.037 -0.014    0.026 -0.036  0.018   -0.066 -0.012  0.065
 H         -0.002  0.027  0.005    0.029 -0.036 -0.057    0.018 -0.050 -0.010
 H         -0.018  0.019 -0.042    0.062 -0.012  0.053   -0.029 -0.073 -0.039
 H         -0.021  0.020 -0.049    0.019 -0.025  0.003    0.012 -0.055 -0.002
 H          0.049 -0.013  0.002   -0.005 -0.064 -0.015    0.006 -0.032  0.019
 H          0.090  0.104  0.065    0.075  0.040 -0.010    0.011  0.003  0.042
 H         -0.041 -0.046 -0.142    0.004 -0.044  0.151    0.041  0.034  0.049
 H          0.011 -0.036 -0.089   -0.108 -0.044  0.040    0.033  0.038  0.044
 H          0.013 -0.001  0.010    0.060  0.064 -0.054    0.152  0.020  0.028
 H         -0.007  0.008 -0.009    0.040  0.072  0.013   -0.034  0.103  0.055
 H         -0.035  0.008 -0.041   -0.063 -0.012  0.046    0.066 -0.078 -0.032
 H         -0.021  0.030 -0.043   -0.020  0.002  0.098    0.032 -0.089 -0.072
 H         -0.095  0.180  0.022   -0.029  0.117 -0.114   -0.073  0.026  0.063
 H         -0.167  0.079  0.015   -0.138  0.022 -0.073   -0.091 -0.005  0.057
 H          0.117 -0.061 -0.126   -0.232 -0.081  0.157   -0.040  0.109  0.009
 H          0.063 -0.080 -0.184   -0.110 -0.076  0.278   -0.036  0.118  0.016
 H          0.069 -0.082 -0.190   -0.202 -0.088  0.249    0.009  0.137  0.059
 H         -0.008  0.054  0.015    0.038  0.033 -0.006    0.012  0.313  0.097
 H          0.012  0.044  0.033    0.059  0.025 -0.071    0.210  0.225  0.080
 H          0.015  0.032  0.029    0.061  0.088 -0.040    0.170  0.313  0.100
 H         -0.044  0.049 -0.023    0.009  0.008  0.127    0.021 -0.096 -0.086
 H         -0.057  0.025 -0.018   -0.035 -0.005  0.073    0.037 -0.090 -0.069
 H         -0.051  0.034 -0.021   -0.068  0.008  0.131    0.056 -0.079 -0.089
 H         -0.061  0.195  0.021   -0.162  0.084 -0.110   -0.026  0.063  0.061
 H          0.013  0.291  0.023   -0.050  0.177 -0.156   -0.006  0.094  0.066
 H         -0.152  0.293  0.043   -0.184  0.179 -0.168   -0.075  0.095  0.091
 O          0.163 -0.147  0.147    0.039 -0.023 -0.031    0.016 -0.025 -0.067
 H          0.038 -0.194  0.103    0.075 -0.063 -0.060   -0.080  0.077  0.008
 C          0.032 -0.133  0.090    0.049 -0.039 -0.048   -0.042  0.036 -0.010
 C          0.089 -0.098  0.117    0.026 -0.013 -0.030    0.014 -0.022 -0.053
 C         -0.017 -0.101  0.042    0.043 -0.036 -0.051   -0.058  0.051  0.014
 H         -0.047 -0.138  0.019    0.065 -0.059 -0.067   -0.109  0.105  0.051
 C          0.064 -0.012  0.106   -0.012  0.021 -0.011    0.068 -0.079 -0.079
 H          0.093  0.025  0.131   -0.035  0.044  0.006    0.122 -0.135 -0.121
 C         -0.024 -0.027  0.021    0.007 -0.002 -0.033   -0.014  0.004 -0.006
 C          0.010  0.024  0.061   -0.022  0.028 -0.012    0.057 -0.069 -0.058
 O         -0.056 -0.009 -0.029    0.003  0.000 -0.037   -0.041  0.028  0.022
 H         -0.001  0.093  0.052   -0.052  0.057  0.004    0.100 -0.117 -0.080
 TransDip  -0.053  0.085 -0.061   -0.011  0.017  0.042   -0.002 -0.011  0.037

 Mode:                 7                      8                      9
 Frequency:        40.68                  56.00                  59.12
 Force Cnst:      0.0034                 0.0063                 0.0066
 Red. Mass:       3.5081                 3.4116                 3.1921
 IR Active:          YES                    YES                    YES
 IR Intens:        0.532                 10.004                  3.193
 Raman Active:       YES                    YES                    YES
               X      Y      Z        X      Y      Z        X      Y      Z
 N         -0.007 -0.033 -0.002   -0.012  0.017 -0.051   -0.013  0.040 -0.042
 C         -0.007 -0.028  0.010   -0.001  0.018 -0.062   -0.008  0.041 -0.054
 C         -0.022 -0.025 -0.016    0.005  0.003 -0.029    0.004  0.049 -0.025
 C          0.004 -0.045 -0.002   -0.030  0.028 -0.047   -0.032  0.022 -0.023
 C         -0.009 -0.030  0.005   -0.019  0.020 -0.052   -0.020  0.039 -0.054
 C          0.009  0.001 -0.018    0.012  0.051 -0.088   -0.021  0.015 -0.032
 C         -0.011 -0.028 -0.052   -0.000  0.035  0.030   -0.021  0.010 -0.009
 C         -0.000 -0.040  0.021   -0.034  0.030 -0.047    0.023 -0.002  0.026
 C          0.047 -0.011  0.054    0.005  0.017 -0.033    0.011  0.040 -0.028
 C          0.013  0.017  0.009   -0.072  0.058  0.059   -0.005 -0.001 -0.089
 C         -0.020  0.052 -0.083    0.019 -0.085  0.082    0.004  0.026  0.004
 C         -0.060 -0.031  0.068   -0.043  0.040 -0.044   -0.046 -0.069  0.103
 C          0.012  0.018  0.115    0.042 -0.010  0.015    0.044  0.017  0.039
 C          0.068  0.067 -0.061   -0.125  0.116  0.083   -0.080 -0.071  0.007
 C          0.005  0.073 -0.137    0.006 -0.049  0.181   -0.034 -0.043  0.025
 C         -0.071 -0.019  0.115   -0.066  0.054 -0.037   -0.001 -0.078  0.226
 C          0.073  0.076  0.165    0.092 -0.029  0.058    0.114  0.012  0.100
 H         -0.020 -0.048  0.009   -0.018 -0.005 -0.066   -0.002  0.055 -0.055
 H         -0.007 -0.016  0.038    0.003  0.027 -0.034   -0.003  0.031 -0.073
 H         -0.033 -0.017 -0.016    0.025 -0.026 -0.018    0.008  0.078 -0.055
 H         -0.031 -0.018 -0.008    0.003 -0.010 -0.054    0.036  0.059  0.006
 H          0.011 -0.050  0.006   -0.041  0.031 -0.061   -0.048  0.044 -0.049
 H          0.006 -0.051 -0.015   -0.033  0.034 -0.031   -0.070 -0.001 -0.005
 H         -0.057 -0.012  0.021   -0.038  0.033 -0.048   -0.042  0.055 -0.050
 H         -0.008 -0.047 -0.037   -0.022  0.008 -0.072   -0.023  0.026 -0.077
 H          0.022  0.033 -0.026    0.019  0.164 -0.143   -0.035 -0.040 -0.012
 H          0.007 -0.016 -0.055    0.068 -0.023 -0.146   -0.036  0.049  0.011
 H         -0.015 -0.052 -0.024   -0.005  0.089 -0.023   -0.023 -0.022  0.026
 H          0.005 -0.060 -0.097   -0.009  0.089  0.111   -0.054 -0.005 -0.042
 H          0.042 -0.037  0.046   -0.030  0.032 -0.045    0.082 -0.009  0.064
 H         -0.005 -0.047 -0.008   -0.037  0.025 -0.052    0.058  0.023 -0.006
 H          0.096 -0.021  0.028    0.026  0.048 -0.046    0.040  0.075 -0.046
 H          0.063  0.002  0.079   -0.018  0.001 -0.037   -0.010  0.026 -0.030
 H         -0.030 -0.041  0.010   -0.037 -0.042  0.136    0.052  0.097 -0.101
 H          0.016  0.052  0.083   -0.133  0.122  0.091    0.005 -0.062 -0.196
 H         -0.011  0.068 -0.108    0.031 -0.148  0.141   -0.003  0.072 -0.041
 H         -0.056  0.086 -0.041    0.037 -0.147 -0.006    0.058  0.043  0.045
 H         -0.108 -0.044  0.040   -0.048  0.028 -0.046   -0.108 -0.104  0.067
 H         -0.052 -0.021  0.100   -0.029  0.052 -0.044   -0.073 -0.090  0.111
 H         -0.036  0.019  0.142    0.003 -0.036  0.038   -0.011 -0.011  0.072
 H         -0.015 -0.000  0.102    0.071  0.008 -0.000    0.069  0.033  0.019
 H          0.112  0.128 -0.062   -0.169  0.209  0.008   -0.141 -0.181  0.021
 H          0.063  0.033 -0.139   -0.068  0.057  0.062   -0.092 -0.004  0.123
 H          0.070  0.079 -0.038   -0.183  0.123  0.199   -0.065 -0.083 -0.044
 H         -0.003  0.060 -0.115   -0.008  0.013  0.123   -0.025 -0.090  0.071
 H          0.045  0.040 -0.180   -0.016  0.014  0.276   -0.090 -0.060 -0.015
 H         -0.005  0.135 -0.161    0.030 -0.148  0.225   -0.014 -0.033  0.035
 H         -0.024 -0.004  0.144   -0.067  0.069 -0.038    0.070 -0.046  0.270
 H         -0.080 -0.030  0.085   -0.078  0.044 -0.030    0.025 -0.058  0.215
 H         -0.115 -0.014  0.151   -0.066  0.059 -0.037   -0.061 -0.137  0.289
 H          0.123  0.078  0.138    0.134 -0.006  0.035    0.174  0.036  0.067
 H          0.104  0.099  0.180    0.064 -0.047  0.078    0.093 -0.001  0.127
 H          0.040  0.100  0.218    0.116 -0.048  0.094    0.131 -0.002  0.153
 O         -0.045  0.022 -0.067    0.075 -0.074 -0.067    0.063 -0.038 -0.032
 H          0.173 -0.085 -0.142    0.132 -0.087 -0.074   -0.113  0.072  0.047
 C          0.097 -0.052 -0.093    0.082 -0.065 -0.044   -0.061  0.041  0.016
 C         -0.018  0.004 -0.054    0.043 -0.051 -0.035    0.026 -0.013 -0.023
 C          0.115 -0.064 -0.069    0.073 -0.057 -0.018   -0.079  0.055  0.014
 H          0.205 -0.110 -0.101    0.115 -0.074 -0.030   -0.143  0.099  0.044
 C         -0.105  0.042  0.007   -0.025 -0.018  0.010    0.078 -0.045 -0.056
 H         -0.194  0.086  0.041   -0.064 -0.005  0.021    0.142 -0.089 -0.089
 C          0.012 -0.014  0.001    0.012 -0.030  0.023   -0.008  0.008 -0.029
 C         -0.094  0.035  0.034   -0.041 -0.005  0.039    0.061 -0.035 -0.059
 O          0.015 -0.014  0.033    0.010 -0.028  0.044   -0.005  0.004 -0.042
 H         -0.173  0.074  0.089   -0.091  0.022  0.072    0.115 -0.070 -0.094
 TransDip   0.002 -0.010  0.021   -0.063  0.079  0.006   -0.032  0.037  0.029

 Mode:                10                     11                     12
 Frequency:        76.56                  84.09                  90.46
 Force Cnst:      0.0059                 0.0076                 0.0165
 Red. Mass:       1.6994                 1.8285                 3.4188
 IR Active:          YES                    YES                    YES
 IR Intens:        0.714                  7.426                 26.384
 Raman Active:       YES                    YES                    YES
               X      Y      Z        X      Y      Z        X      Y      Z
 N          0.005 -0.017 -0.011   -0.006 -0.001  0.021   -0.007  0.007  0.048
 C          0.015 -0.003 -0.003   -0.002 -0.006  0.007   -0.014 -0.008  0.042
 C          0.005 -0.021 -0.012   -0.002  0.001  0.028   -0.025  0.006  0.039
 C          0.010 -0.026 -0.009   -0.014  0.015  0.018    0.007  0.025  0.032
 C         -0.009 -0.013 -0.021   -0.005  0.001  0.026    0.009  0.005  0.065
 C         -0.045 -0.010  0.051   -0.011 -0.008  0.017   -0.011 -0.018  0.046
 C          0.010 -0.009 -0.008   -0.025 -0.048  0.019   -0.009  0.027  0.013
 C         -0.017 -0.011 -0.007   -0.006  0.005 -0.009   -0.020  0.036  0.011
 C          0.003 -0.010 -0.011   -0.024  0.007  0.009   -0.017 -0.004  0.043
 C          0.128  0.052 -0.104    0.043  0.019 -0.018    0.022 -0.005  0.018
 C          0.001 -0.044 -0.004    0.053  0.157  0.014   -0.106 -0.082 -0.023
 C         -0.027  0.017 -0.007   -0.015  0.051 -0.015   -0.079  0.107  0.041
 C         -0.009 -0.001 -0.011    0.005 -0.015  0.024    0.004 -0.022  0.018
 C         -0.043  0.030  0.058   -0.004  0.035  0.018    0.061  0.016 -0.025
 C          0.034  0.037  0.007   -0.047 -0.082 -0.011   -0.027  0.058 -0.084
 C         -0.049  0.027 -0.022   -0.029  0.052 -0.065   -0.133  0.140  0.052
 C          0.020 -0.014  0.014   -0.018 -0.010  0.005   -0.065 -0.025 -0.041
 H          0.053  0.038  0.007   -0.000  0.005  0.003   -0.019 -0.007  0.040
 H          0.027 -0.031 -0.049    0.002 -0.014 -0.006   -0.020 -0.009  0.032
 H          0.007 -0.028 -0.007   -0.010  0.036  0.002   -0.030 -0.007  0.054
 H          0.001 -0.024 -0.019    0.028  0.011  0.058   -0.044  0.002  0.023
 H          0.016 -0.044  0.003   -0.020  0.033  0.005    0.016  0.014  0.045
 H          0.026 -0.022 -0.025   -0.022  0.020  0.039    0.031  0.039  0.021
 H         -0.024  0.005 -0.023    0.011 -0.011  0.023    0.030 -0.016  0.063
 H         -0.016 -0.029 -0.037   -0.006  0.009  0.048    0.017  0.023  0.085
 H         -0.101 -0.201  0.112   -0.027 -0.057  0.031   -0.015 -0.044  0.057
 H         -0.163  0.133  0.148   -0.047  0.031  0.037   -0.031  0.002  0.054
 H          0.014  0.013 -0.034   -0.066 -0.145  0.158    0.037  0.075 -0.079
 H          0.018  0.009  0.023   -0.055 -0.143 -0.138    0.021  0.076  0.099
 H         -0.013 -0.000 -0.006    0.005 -0.026  0.001    0.020  0.016  0.038
 H         -0.035 -0.026 -0.011   -0.005  0.001 -0.045   -0.038  0.012 -0.049
 H          0.013 -0.024 -0.016   -0.040  0.043  0.015   -0.041  0.009  0.055
 H          0.012 -0.003  0.000   -0.041 -0.007 -0.022   -0.025 -0.012  0.021
 H          0.264  0.317 -0.151    0.081  0.086 -0.028   -0.003 -0.001 -0.002
 H          0.257 -0.146 -0.297    0.085 -0.035 -0.059    0.049 -0.012  0.047
 H          0.018 -0.102  0.046    0.043  0.365 -0.209   -0.130 -0.199  0.127
 H         -0.046 -0.071 -0.059    0.196  0.288  0.249   -0.222 -0.153 -0.162
 H         -0.033  0.019 -0.010   -0.017  0.079 -0.018   -0.114  0.092  0.019
 H         -0.014  0.030  0.007   -0.007  0.062  0.016   -0.041  0.143  0.082
 H         -0.031  0.021  0.001    0.023 -0.053  0.015    0.057 -0.048 -0.012
 H         -0.016 -0.007 -0.042    0.026  0.000  0.059    0.019 -0.010  0.065
 H         -0.188 -0.273  0.111   -0.046 -0.045  0.030    0.092  0.016 -0.005
 H         -0.192  0.258  0.267   -0.055  0.100  0.065    0.033  0.021 -0.060
 H          0.116  0.090 -0.079    0.049  0.062 -0.012    0.088  0.027 -0.046
 H          0.017  0.101 -0.048   -0.038 -0.305  0.233   -0.000  0.185 -0.254
 H          0.085  0.068  0.068   -0.197 -0.223 -0.272    0.093  0.136  0.070
 H          0.027  0.006  0.011    0.018  0.097 -0.016   -0.113 -0.040 -0.115
 H         -0.041  0.022 -0.016   -0.031  0.024 -0.065   -0.090  0.150  0.079
 H         -0.063  0.014 -0.041   -0.038  0.042 -0.095   -0.161  0.111  0.009
 H         -0.059  0.053 -0.019   -0.029  0.091 -0.074   -0.177  0.181  0.078
 H          0.044 -0.040  0.001   -0.037  0.031  0.015   -0.123  0.010 -0.009
 H          0.029 -0.006  0.048   -0.042 -0.029 -0.032   -0.089 -0.044 -0.098
 H          0.009 -0.006  0.012    0.007 -0.029  0.017   -0.038 -0.044 -0.063
 O         -0.011  0.008  0.024    0.043 -0.043 -0.045    0.104 -0.069 -0.114
 H          0.006 -0.009  0.011    0.028 -0.014 -0.023   -0.018  0.067 -0.012
 C          0.001 -0.006  0.013    0.021 -0.018 -0.018    0.007  0.028 -0.021
 C         -0.012  0.009  0.023    0.025 -0.029 -0.027    0.064 -0.040 -0.072
 C          0.011 -0.015  0.001    0.012 -0.011 -0.002   -0.005  0.040  0.015
 H          0.026 -0.031 -0.010    0.014 -0.002  0.003   -0.037  0.093  0.051
 C         -0.029  0.026  0.031    0.013 -0.032 -0.017    0.088 -0.091 -0.077
 H         -0.047  0.045  0.045    0.015 -0.044 -0.025    0.131 -0.153 -0.122
 C          0.004 -0.006  0.003    0.002 -0.014  0.007    0.037 -0.024  0.002
 C         -0.022  0.021  0.022    0.002 -0.023 -0.000    0.073 -0.081 -0.040
 O          0.023 -0.023 -0.014   -0.003 -0.010  0.019    0.056 -0.039  0.021
 H         -0.035  0.035  0.028   -0.003 -0.026  0.005    0.112 -0.133 -0.058
 TransDip   0.006 -0.005 -0.026   -0.040  0.065  0.043   -0.100  0.091  0.093

 Mode:                13                     14                     15
 Frequency:       100.48                 101.47                 113.70
 Force Cnst:      0.0095                 0.0235                 0.0208
 Red. Mass:       1.5929                 3.8806                 2.7267
 IR Active:          YES                    YES                    YES
 IR Intens:        1.272                  9.012                  0.797
 Raman Active:       YES                    YES                    YES
               X      Y      Z        X      Y      Z        X      Y      Z
 N          0.002  0.005 -0.008   -0.018  0.062  0.052   -0.012 -0.013 -0.007
 C          0.011  0.009 -0.019   -0.017  0.052  0.041   -0.061 -0.039  0.046
 C          0.001 -0.012 -0.005   -0.029  0.062  0.050   -0.007  0.073 -0.026
 C          0.001  0.012 -0.012   -0.006  0.055  0.050   -0.020 -0.026  0.004
 C         -0.007  0.012  0.004   -0.017  0.063  0.050    0.054 -0.057 -0.041
 C          0.012  0.010 -0.019   -0.002  0.033  0.036   -0.083 -0.038  0.063
 C         -0.009 -0.032 -0.005   -0.025  0.067  0.035    0.043  0.181 -0.018
 C          0.020  0.001 -0.013    0.043  0.027  0.047   -0.061  0.003  0.028
 C         -0.052  0.036 -0.041   -0.036  0.044  0.035    0.126 -0.112  0.027
 C          0.010  0.012 -0.014    0.047  0.028 -0.053   -0.001  0.002  0.009
 C         -0.010 -0.024 -0.009   -0.097 -0.007  0.007    0.013  0.043  0.005
 C          0.013 -0.013 -0.002    0.131 -0.053 -0.003   -0.005 -0.044 -0.008
 C          0.106 -0.083  0.099   -0.019  0.029 -0.019    0.064 -0.062  0.039
 C         -0.018  0.009  0.012   -0.005 -0.033  0.020    0.013  0.053 -0.025
 C          0.015  0.027 -0.018   -0.068  0.031 -0.041   -0.056 -0.075  0.061
 C          0.023 -0.015  0.019    0.183 -0.084 -0.012    0.011 -0.055 -0.012
 C         -0.059  0.058 -0.043   -0.010 -0.068 -0.010   -0.029  0.114 -0.044
 H          0.011  0.016 -0.022   -0.035  0.032  0.034   -0.044 -0.063  0.069
 H          0.019  0.004 -0.020   -0.022  0.060  0.051   -0.096 -0.018  0.045
 H         -0.008 -0.002 -0.007   -0.030  0.056  0.057    0.040  0.023 -0.013
 H          0.018 -0.014 -0.002   -0.036  0.059  0.040   -0.094  0.086 -0.037
 H         -0.004  0.031 -0.023   -0.005  0.076  0.046   -0.015 -0.068  0.021
 H         -0.013  0.009  0.003   -0.030  0.036  0.053    0.009 -0.018 -0.026
 H          0.029 -0.017 -0.001   -0.003  0.059  0.045    0.004 -0.018 -0.034
 H         -0.013  0.027  0.058   -0.017  0.065  0.058    0.087 -0.053 -0.130
 H          0.012  0.014 -0.021    0.000 -0.030  0.071   -0.103 -0.109  0.086
 H          0.014  0.008 -0.020   -0.039  0.075  0.061   -0.134  0.017  0.093
 H         -0.005 -0.044  0.004    0.012  0.090 -0.022    0.043  0.275 -0.118
 H         -0.020 -0.037 -0.016   -0.013  0.098  0.087    0.099  0.245  0.100
 H          0.027 -0.010 -0.008   -0.014  0.026  0.012   -0.108  0.062 -0.005
 H          0.032  0.010 -0.019    0.079  0.064  0.105   -0.079 -0.005  0.101
 H         -0.094  0.234 -0.029   -0.052  0.028  0.045    0.183 -0.173 -0.001
 H         -0.163 -0.049 -0.184   -0.036  0.044  0.043    0.146 -0.092  0.102
 H          0.030  0.025 -0.007    0.083  0.137 -0.086   -0.006  0.052 -0.021
 H          0.009  0.002 -0.035    0.082 -0.045 -0.144    0.065 -0.043  0.022
 H          0.004 -0.048  0.006   -0.133 -0.055  0.091   -0.047  0.058  0.040
 H         -0.044 -0.026 -0.023   -0.142 -0.048 -0.066    0.105 -0.007 -0.045
 H          0.005 -0.018 -0.007    0.191 -0.051  0.035    0.038 -0.058  0.020
 H          0.007 -0.018 -0.003    0.095 -0.092 -0.071   -0.015 -0.059 -0.060
 H          0.233 -0.362  0.035   -0.026  0.074 -0.016    0.132 -0.101  0.001
 H          0.218  0.004  0.383   -0.002  0.037 -0.079    0.004 -0.095  0.158
 H         -0.042 -0.011  0.007   -0.050 -0.175  0.060    0.023 -0.002  0.008
 H         -0.021  0.025  0.038   -0.054  0.061  0.127   -0.065  0.109 -0.045
 H         -0.014  0.013  0.013    0.048 -0.033 -0.068    0.093  0.094 -0.069
 H          0.002  0.058 -0.041   -0.027  0.082 -0.136    0.005 -0.108  0.041
 H          0.055  0.034  0.002   -0.023  0.076  0.041   -0.170 -0.031  0.105
 H          0.009  0.029 -0.023   -0.129 -0.037 -0.064   -0.062 -0.185  0.087
 H          0.029 -0.006  0.022    0.101 -0.072 -0.065   -0.030 -0.048 -0.039
 H          0.028 -0.010  0.026    0.213 -0.050  0.082    0.024 -0.041  0.033
 H          0.019 -0.030  0.026    0.263 -0.151 -0.063    0.051 -0.084 -0.038
 H         -0.196  0.391  0.029   -0.003 -0.124 -0.013   -0.109  0.190  0.000
 H         -0.199 -0.056 -0.366   -0.029 -0.078  0.057    0.027  0.146 -0.195
 H          0.086 -0.054  0.092    0.008 -0.080 -0.066   -0.078  0.150 -0.002
 O         -0.004 -0.004  0.021    0.061 -0.089 -0.079    0.009 -0.002 -0.032
 H          0.007 -0.025  0.006    0.145 -0.147 -0.122    0.003  0.019 -0.019
 C          0.002 -0.016  0.007    0.084 -0.107 -0.089    0.001  0.014 -0.016
 C         -0.005 -0.005  0.016    0.038 -0.071 -0.065    0.003  0.005 -0.023
 C         -0.000 -0.016  0.001    0.049 -0.080 -0.066    0.001  0.016 -0.007
 H          0.004 -0.026 -0.006    0.079 -0.103 -0.082    0.000  0.023 -0.003
 C         -0.011  0.008  0.018   -0.024 -0.029 -0.030   -0.001 -0.000 -0.019
 H         -0.017  0.019  0.026   -0.050 -0.013 -0.017    0.000 -0.008 -0.025
 C         -0.009 -0.002  0.003   -0.052 -0.004 -0.008    0.001  0.008 -0.004
 C         -0.013  0.009  0.012   -0.064  0.003 -0.003   -0.001 -0.000 -0.010
 O         -0.014  0.002 -0.002   -0.141  0.067  0.044    0.002  0.008  0.004
 H         -0.021  0.022  0.015   -0.129  0.053  0.036   -0.001 -0.007 -0.008
 TransDip   0.016 -0.017 -0.027    0.009  0.071  0.064   -0.010 -0.001  0.027

 Mode:                16                     17                     18
 Frequency:       127.58                 142.71                 150.26
 Force Cnst:      0.0257                 0.0278                 0.0406
 Red. Mass:       2.6758                 2.3164                 3.0548
 IR Active:          YES                    YES                    YES
 IR Intens:        0.869                  6.030                 19.819
 Raman Active:       YES                    YES                    YES
               X      Y      Z        X      Y      Z        X      Y      Z
 N          0.008  0.018 -0.027   -0.013 -0.007  0.004    0.008 -0.011  0.002
 C         -0.012  0.025  0.022   -0.021 -0.018  0.005    0.025  0.002 -0.006
 C         -0.022  0.008 -0.056   -0.033 -0.034 -0.009    0.002 -0.033  0.005
 C          0.057  0.007 -0.046    0.014  0.016 -0.024    0.010 -0.007 -0.004
 C          0.008  0.027 -0.010   -0.004 -0.001  0.042   -0.008 -0.000  0.013
 C         -0.172 -0.026  0.181    0.039  0.004 -0.058   -0.016 -0.014  0.039
 C         -0.059 -0.068 -0.055   -0.001  0.036 -0.005    0.014 -0.003  0.008
 C          0.075 -0.005 -0.054    0.020  0.012 -0.046   -0.012  0.009 -0.006
 C         -0.012  0.046 -0.032    0.011 -0.008  0.060   -0.041  0.024 -0.018
 C         -0.077 -0.005  0.069    0.027  0.005 -0.037   -0.006 -0.011  0.032
 C          0.025 -0.022 -0.006    0.008  0.033  0.002    0.009  0.009  0.001
 C          0.033  0.000 -0.018    0.093 -0.061 -0.084    0.116 -0.090 -0.086
 C          0.022  0.021 -0.027   -0.002 -0.002  0.015   -0.021  0.009  0.000
 C          0.063  0.019 -0.066   -0.029  0.006  0.012    0.030 -0.001 -0.003
 C          0.014  0.027  0.114   -0.017 -0.009  0.021    0.007 -0.010 -0.022
 C         -0.003  0.034  0.058   -0.102  0.083  0.119   -0.030  0.015  0.048
 C          0.028 -0.016 -0.022   -0.044 -0.039 -0.020   -0.001 -0.008  0.019
 H          0.096  0.106  0.064   -0.060 -0.064 -0.005    0.054  0.047 -0.000
[...]
 C          0.036 -0.084  0.014   -0.000  0.001 -0.000   -0.000  0.000  0.000
 C          0.000  0.000 -0.000   -0.001 -0.000  0.002    0.028 -0.009 -0.088
 C          0.001 -0.001  0.000    0.074 -0.041  0.025    0.002 -0.001  0.001
 C          0.005  0.010  0.003   -0.000 -0.001 -0.000   -0.000 -0.000 -0.000
 H         -0.001  0.001  0.002   -0.012  0.007  0.017   -0.000  0.000  0.000
 H         -0.005 -0.007  0.003   -0.024 -0.037  0.016    0.001  0.001 -0.000
 H          0.000  0.000  0.000    0.012  0.016  0.017    0.001  0.001  0.001
 H         -0.000 -0.001  0.001   -0.004 -0.016  0.008   -0.001 -0.004  0.002
 H         -0.002  0.000  0.001    0.053 -0.014 -0.047   -0.002  0.000  0.001
 H         -0.000  0.001 -0.000    0.027 -0.028  0.017    0.000 -0.000  0.000
 H         -0.001 -0.001 -0.002    0.004  0.003  0.007   -0.000 -0.000 -0.000
 H         -0.001  0.001 -0.000   -0.002  0.002 -0.001   -0.000  0.000 -0.000
 H         -0.003  0.002  0.002   -0.009  0.007  0.014    0.000 -0.000 -0.000
 H         -0.001 -0.000 -0.001   -0.008 -0.010  0.005    0.000  0.000 -0.000
 H          0.000 -0.000 -0.000    0.010  0.013  0.012    0.003  0.006  0.006
 H         -0.000 -0.000  0.000    0.002  0.010 -0.007   -0.000  0.004 -0.002
 H          0.001 -0.000 -0.001   -0.080  0.012  0.132   -0.001  0.000  0.002
 H          0.002 -0.002  0.000   -0.149  0.174 -0.025   -0.003  0.004 -0.001
 H          0.001 -0.000  0.001   -0.005 -0.001 -0.008   -0.000 -0.000 -0.001
 H          0.001 -0.002  0.000   -0.005  0.008 -0.001   -0.001  0.001 -0.000
 H         -0.025  0.020  0.037   -0.003  0.002  0.004    0.000 -0.000 -0.000
 H          0.025  0.032 -0.015   -0.003 -0.005  0.002    0.000  0.000 -0.000
 H         -0.000 -0.000 -0.000    0.002  0.003  0.003    0.023  0.028  0.026
 H         -0.000 -0.000  0.000    0.001  0.005 -0.003   -0.006 -0.036  0.024
 H         -0.000  0.000  0.001   -0.047  0.004  0.077   -0.001  0.000  0.001
 H         -0.001  0.001 -0.000   -0.084  0.103 -0.014   -0.002  0.002 -0.000
 H         -0.002 -0.000 -0.003   -0.001 -0.000 -0.001    0.000 -0.000  0.000
 H          0.004 -0.006  0.000   -0.001  0.002 -0.000   -0.000  0.000 -0.000
 H         -0.162  0.108  0.256    0.000  0.000 -0.000    0.000 -0.000 -0.000
 H          0.230  0.253 -0.132   -0.005 -0.005  0.003    0.000  0.000 -0.000
 H         -0.492  0.639 -0.288    0.006 -0.008  0.004    0.000 -0.000  0.000
 H          0.000  0.000  0.000   -0.001 -0.002 -0.001    0.187  0.224  0.181
 H         -0.000 -0.001  0.000    0.002  0.012 -0.007   -0.045 -0.307  0.177
 H         -0.000  0.000  0.001    0.011 -0.004 -0.016   -0.470  0.192  0.695
 H         -0.001  0.000  0.002   -0.088  0.002  0.157   -0.002  0.000  0.003
 H         -0.007  0.009 -0.001   -0.478  0.574 -0.044   -0.011  0.013 -0.001
 H         -0.005 -0.001 -0.006   -0.324 -0.092 -0.405   -0.008 -0.002 -0.010
 H         -0.019  0.002 -0.035    0.000 -0.000  0.001    0.001 -0.000  0.001
 H          0.028 -0.038  0.003   -0.002  0.003 -0.000   -0.001  0.001 -0.000
 H         -0.063 -0.084 -0.002    0.004  0.005  0.000    0.002  0.003  0.000
 O          0.000  0.000 -0.000    0.000  0.000  0.000    0.000 -0.000 -0.000
 H          0.001  0.001  0.002   -0.003 -0.001 -0.003   -0.000 -0.000 -0.000
 C         -0.000 -0.000 -0.000    0.000  0.000  0.000    0.000  0.000  0.000
 C         -0.000 -0.000  0.000   -0.000 -0.000 -0.000    0.000 -0.000 -0.000
 C         -0.000  0.001 -0.001   -0.000  0.001 -0.001   -0.000  0.000 -0.000
 H          0.000 -0.008  0.013    0.000 -0.008  0.013    0.000 -0.000  0.001
 C          0.000  0.000 -0.000    0.000 -0.004  0.005    0.000 -0.000  0.000
 H          0.000 -0.000  0.000   -0.002  0.039 -0.056   -0.000  0.000 -0.001
 C          0.000  0.000  0.000    0.001  0.000 -0.000    0.000  0.000 -0.000
 C         -0.000 -0.000 -0.000    0.001  0.001  0.001    0.000  0.000  0.000
 O         -0.000 -0.000 -0.000   -0.000 -0.000  0.000   -0.000  0.000  0.000
 H          0.002  0.001  0.003   -0.011 -0.004 -0.013   -0.000 -0.000 -0.000
 TransDip   0.100 -0.168  0.039    0.126 -0.006  0.065    0.069 -0.026 -0.202

 Mode:               184                    185                    186
 Frequency:      3149.49                3155.38                3160.21
 Force Cnst:      6.3977                 6.4558                 6.4297
 Red. Mass:       1.0947                 1.1005                 1.0927
 IR Active:          YES                    YES                    YES
 IR Intens:      124.399                 36.859                 38.592
 Raman Active:       YES                    YES                    YES
               X      Y      Z        X      Y      Z        X      Y      Z
 N          0.000 -0.000  0.000    0.000 -0.000  0.000    0.000 -0.000 -0.000
 C         -0.001 -0.001  0.001   -0.054 -0.051  0.048   -0.001 -0.000  0.001
 C         -0.000 -0.000  0.000    0.003  0.004  0.005    0.000 -0.000  0.000
 C         -0.000  0.000  0.000   -0.000 -0.001  0.001    0.002 -0.001 -0.001
 C          0.000  0.000  0.000    0.004  0.000  0.004    0.000 -0.000  0.000
 C         -0.001 -0.000  0.001   -0.012 -0.003  0.013   -0.001 -0.000  0.001
 C         -0.000 -0.000 -0.000    0.001  0.001  0.000    0.000  0.000  0.000
 C          0.002 -0.001 -0.001    0.009 -0.008 -0.003   -0.001  0.002  0.000
 C          0.000 -0.000  0.000   -0.003  0.003 -0.002   -0.000  0.000 -0.000
 C         -0.001  0.000  0.001   -0.003 -0.001  0.003   -0.002  0.000  0.003
 C         -0.000 -0.000  0.000    0.000  0.000  0.000    0.000  0.000  0.000
 C          0.001 -0.001 -0.001    0.001 -0.001 -0.001   -0.000  0.000  0.000
 C          0.000 -0.000  0.000   -0.001  0.001 -0.000   -0.000  0.000 -0.000
 C         -0.001  0.000  0.000   -0.000 -0.001  0.001   -0.001  0.000  0.001
 C         -0.000  0.000  0.000   -0.000  0.000  0.000    0.000  0.000 -0.000
 C          0.004 -0.003  0.000    0.001 -0.001  0.000   -0.000  0.000 -0.000
 C          0.000 -0.000  0.000   -0.000  0.000 -0.000   -0.000 -0.000 -0.000
 H          0.004 -0.002 -0.006    0.172 -0.105 -0.261    0.009 -0.004 -0.014
 H          0.011  0.017 -0.007    0.464  0.708 -0.306    0.004  0.007 -0.003
 H         -0.000 -0.000 -0.000   -0.040 -0.050 -0.054   -0.001 -0.001 -0.001
 H          0.000  0.002 -0.001    0.003  0.002 -0.002    0.000  0.002 -0.001
 H          0.003 -0.001 -0.003    0.006 -0.002 -0.005   -0.016  0.004  0.014
 H          0.002 -0.002  0.001   -0.004  0.007 -0.003   -0.011  0.012 -0.007
 H         -0.001 -0.001 -0.001   -0.020 -0.017 -0.037   -0.001 -0.001 -0.003
 H         -0.000  0.000 -0.000   -0.025  0.021 -0.008   -0.003  0.003 -0.001
 H          0.004 -0.004 -0.007    0.069 -0.055 -0.105    0.006 -0.005 -0.009
 H          0.004  0.005 -0.002    0.079  0.096 -0.045    0.004  0.005 -0.003
 H          0.000  0.001  0.000   -0.006 -0.007 -0.006   -0.000 -0.001 -0.001
 H          0.000  0.000 -0.000   -0.000  0.001 -0.000    0.000  0.000 -0.000
 H         -0.005  0.001  0.009   -0.030  0.004  0.049    0.002 -0.000 -0.004
 H         -0.014  0.016 -0.001   -0.078  0.090 -0.014    0.017 -0.019  0.001
 H         -0.001 -0.000 -0.001    0.010  0.001  0.018    0.002  0.000  0.003
 H         -0.001  0.002 -0.000    0.029 -0.045  0.003    0.003 -0.005  0.000
 H          0.009 -0.008 -0.014    0.018 -0.014 -0.024    0.019 -0.018 -0.031
 H          0.004  0.006 -0.002    0.020  0.029 -0.015    0.008  0.010 -0.004
 H         -0.000  0.000  0.000   -0.001 -0.002 -0.002   -0.000 -0.000 -0.000
 H          0.000  0.000 -0.000   -0.000 -0.000  0.000   -0.000 -0.000  0.000
 H         -0.005  0.000  0.008   -0.006  0.001  0.011    0.001 -0.000 -0.001
 H         -0.005  0.007 -0.001   -0.011  0.012 -0.002    0.000 -0.001  0.000
 H         -0.000 -0.000 -0.000    0.002  0.000  0.003    0.000  0.000  0.001
 H         -0.000  0.000 -0.000    0.004 -0.007  0.001    0.000 -0.000  0.000
 H          0.004 -0.003 -0.006    0.002 -0.002 -0.004    0.005 -0.004 -0.008
 H          0.002  0.003 -0.001    0.005  0.005 -0.002    0.003  0.004 -0.002
 H          0.002 -0.002  0.001   -0.005  0.006 -0.003    0.003 -0.004  0.002
 H         -0.000 -0.000 -0.000   -0.001 -0.000 -0.000   -0.000 -0.000 -0.000
 H          0.000  0.000 -0.000   -0.000 -0.000  0.000   -0.000 -0.000  0.000
 H          0.000 -0.000 -0.001    0.001 -0.001 -0.002   -0.000  0.000  0.000
 H         -0.009  0.000  0.015   -0.003 -0.000  0.005    0.001 -0.000 -0.002
 H         -0.030  0.036 -0.003   -0.009  0.011 -0.001    0.005 -0.005  0.000
 H         -0.013 -0.004 -0.017   -0.005 -0.001 -0.006    0.001  0.000  0.001
 H         -0.000  0.000 -0.000    0.001  0.000  0.002    0.000 -0.000  0.000
 H         -0.000  0.000 -0.000    0.002 -0.002  0.000    0.000 -0.000 -0.000
 H         -0.000 -0.000  0.000   -0.003 -0.003  0.000    0.000  0.000  0.000
 O         -0.000 -0.000 -0.000   -0.000 -0.000 -0.000    0.000  0.001 -0.000
 H          0.150  0.057  0.193   -0.015 -0.005 -0.019    0.519  0.195  0.674
 C         -0.013 -0.005 -0.017    0.001  0.000  0.002   -0.046 -0.017 -0.058
 C          0.002  0.001  0.002    0.000  0.001  0.000   -0.002 -0.004  0.002
 C          0.001  0.003 -0.003   -0.000  0.000 -0.000    0.001  0.022 -0.030
 H         -0.001 -0.025  0.035    0.000 -0.001  0.001    0.006 -0.227  0.337
 C         -0.000  0.035 -0.048   -0.000 -0.001  0.001    0.000 -0.008  0.012
 H          0.021 -0.378  0.541   -0.000  0.008 -0.012   -0.006  0.094 -0.136
 C         -0.001 -0.003  0.002    0.000  0.000 -0.000    0.002  0.002  0.001
 C         -0.039 -0.014 -0.046    0.001  0.000  0.001    0.010  0.003  0.012
 O          0.000  0.001 -0.000   -0.000 -0.000  0.000   -0.001 -0.001 -0.000
 H          0.431  0.141  0.529   -0.011 -0.004 -0.014   -0.113 -0.036 -0.139
 TransDip  -0.153  0.035 -0.321   -0.003 -0.186 -0.057   -0.119 -0.016 -0.159

 Mode:               187                    188                    189
 Frequency:      3168.39                3172.70                3176.66
 Force Cnst:      6.5500                 6.5665                 6.5756
 Red. Mass:       1.1074                 1.1072                 1.1060
 IR Active:          YES                    YES                    YES
 IR Intens:        1.603                 21.076                 16.791
 Raman Active:       YES                    YES                    YES
               X      Y      Z        X      Y      Z        X      Y      Z
 N         -0.000  0.000  0.000   -0.000 -0.001 -0.000   -0.000 -0.000 -0.001
 C         -0.002  0.000  0.003   -0.004 -0.004  0.003   -0.003 -0.003  0.003
 C          0.005  0.012  0.002   -0.037 -0.083 -0.012   -0.003 -0.006 -0.002
 C         -0.076  0.046  0.022   -0.010  0.006  0.003   -0.002  0.002  0.000
 C          0.001  0.001  0.002    0.006 -0.003  0.003   -0.069  0.016 -0.060
 C         -0.001  0.000  0.001    0.003 -0.001 -0.004   -0.003 -0.002  0.002
 C         -0.001 -0.000 -0.001   -0.008 -0.016 -0.001    0.001  0.005 -0.002
 C         -0.015  0.012  0.008   -0.005  0.003  0.004   -0.000  0.000  0.000
 C          0.001 -0.001  0.002    0.001 -0.000  0.001   -0.009  0.007 -0.008
 C         -0.000 -0.000  0.000    0.000 -0.000 -0.000   -0.000 -0.000  0.000
 C          0.000  0.000 -0.000   -0.001 -0.003 -0.000    0.000  0.000 -0.000
 C         -0.002  0.001  0.001   -0.000  0.000  0.000   -0.000  0.000 -0.000
 C          0.000 -0.000  0.000    0.000 -0.000  0.000   -0.001  0.000 -0.001
 C          0.000 -0.000  0.000    0.000 -0.000 -0.000    0.000 -0.000  0.000
 C          0.000 -0.000 -0.000    0.000  0.000 -0.000    0.000  0.000 -0.000
 C         -0.001  0.000 -0.000    0.000  0.000  0.000    0.000 -0.000  0.000
 C          0.000  0.000  0.000    0.000  0.000  0.000    0.000  0.000  0.000
 H          0.019 -0.010 -0.025    0.010 -0.005 -0.014    0.013 -0.007 -0.020
 H          0.004  0.006 -0.002    0.037  0.059 -0.026    0.021  0.031 -0.013
 H         -0.049 -0.063 -0.069    0.326  0.411  0.450    0.031  0.041  0.045
 H         -0.016 -0.078  0.043    0.119  0.577 -0.308    0.008  0.037 -0.019
 H          0.560 -0.138 -0.488    0.072 -0.017 -0.062    0.011 -0.002 -0.010
 H          0.351 -0.411  0.233    0.043 -0.051  0.028    0.017 -0.017  0.011
 H         -0.009 -0.009 -0.018   -0.008 -0.007 -0.018    0.275  0.248  0.537
 H         -0.001 -0.000  0.000   -0.057  0.045 -0.020    0.552 -0.438  0.181
 H          0.009 -0.007 -0.014   -0.030  0.022  0.040    0.009 -0.007 -0.013
 H          0.001  0.002 -0.001   -0.007 -0.010  0.005    0.024  0.031 -0.015
 H          0.007  0.009  0.009    0.073  0.083  0.079   -0.007 -0.009 -0.009
 H         -0.001 -0.005  0.003    0.020  0.110 -0.071   -0.015 -0.055  0.037
 H          0.074 -0.006 -0.116    0.033 -0.002 -0.052    0.001 -0.000 -0.001
 H          0.108 -0.134  0.017    0.023 -0.028  0.003    0.001 -0.002  0.000
 H         -0.017 -0.003 -0.028   -0.004 -0.000 -0.006    0.046  0.003  0.091
 H         -0.002  0.003 -0.000   -0.004  0.006 -0.000    0.055 -0.082  0.005
 H          0.001 -0.001 -0.002   -0.003  0.002  0.004    0.002 -0.001 -0.002
 H          0.001  0.001 -0.001   -0.001 -0.002  0.001    0.003  0.005 -0.003
 H          0.000  0.001  0.001    0.010  0.016  0.015   -0.001 -0.001 -0.001
 H         -0.001 -0.002  0.002    0.005  0.018 -0.014   -0.001 -0.004  0.003
 H          0.010 -0.001 -0.019    0.003 -0.001 -0.006    0.000 -0.000 -0.000
 H          0.018 -0.017  0.004    0.003 -0.003  0.001    0.000 -0.000  0.000
 H         -0.002 -0.000 -0.003   -0.001 -0.000 -0.001    0.007  0.002  0.009
 H         -0.001  0.001 -0.000   -0.000  0.000  0.000    0.004 -0.009  0.000
 H          0.000 -0.000 -0.000   -0.001  0.000  0.001    0.000 -0.000 -0.001
 H          0.000  0.000 -0.000   -0.001 -0.001  0.000    0.001  0.001 -0.000
 H         -0.001  0.001 -0.001   -0.001  0.001 -0.000   -0.002  0.002 -0.001
 H          0.001  0.001  0.001    0.001  0.000  0.000   -0.000 -0.000 -0.000
 H          0.000  0.000 -0.000   -0.001  0.001 -0.000   -0.000 -0.001  0.001
 H         -0.001  0.001  0.002   -0.000  0.000  0.001   -0.000  0.000  0.001
 H          0.002  0.000 -0.003    0.000  0.000 -0.000   -0.000 -0.000  0.000
 H          0.005 -0.008  0.000    0.000 -0.000  0.000   -0.000  0.000 -0.000
 H          0.004  0.001  0.005   -0.001 -0.000 -0.001   -0.000 -0.000 -0.000
 H         -0.000  0.000 -0.001   -0.000  0.000 -0.000   -0.001 -0.000  0.000
 H         -0.000  0.000  0.000    0.000 -0.000  0.000    0.000  0.000 -0.000
 H         -0.001 -0.002 -0.000   -0.001 -0.001  0.000   -0.001 -0.001  0.000
 O          0.000 -0.000  0.000    0.000 -0.000 -0.000   -0.000 -0.000  0.000
 H          0.011  0.004  0.014    0.000  0.000 -0.000    0.002  0.001  0.002
 C         -0.001 -0.000 -0.001   -0.000 -0.000 -0.000   -0.000 -0.000 -0.000
 C          0.000  0.000  0.000    0.000  0.000  0.000    0.000  0.000  0.000
 C         -0.000  0.001 -0.001   -0.000  0.000 -0.000   -0.000  0.000 -0.000
 H          0.000 -0.005  0.008    0.000 -0.001  0.002   -0.000 -0.001  0.001
 C         -0.000  0.000  0.000   -0.000 -0.000  0.000   -0.000 -0.000  0.000
 H         -0.000  0.000 -0.000   -0.000  0.001 -0.001   -0.000  0.000 -0.000
 C          0.000  0.000  0.000    0.000  0.000 -0.000    0.000  0.000  0.000
 C          0.000  0.000  0.000    0.000  0.000  0.000    0.000  0.000  0.000
 O         -0.000 -0.000  0.000   -0.000 -0.000  0.000   -0.000 -0.000  0.000
 H         -0.004 -0.001 -0.004   -0.001 -0.000 -0.001   -0.001 -0.000 -0.001
 TransDip  -0.007  0.032 -0.024   -0.058 -0.133 -0.021   -0.078  0.002 -0.105

 STANDARD THERMODYNAMIC QUANTITIES AT   298.15 K  AND     1.00 ATM

   This Molecule has  4 Imaginary Frequencies
   Zero point vibrational energy:      371.685 kcal/mol

   Atom    1 Element N  Has Mass   14.00307
   Atom    2 Element C  Has Mass   12.00000
   Atom    3 Element C  Has Mass   12.00000
   Atom    4 Element C  Has Mass   12.00000
   Atom    5 Element C  Has Mass   12.00000
   Atom    6 Element C  Has Mass   12.00000
   Atom    7 Element C  Has Mass   12.00000
   Atom    8 Element C  Has Mass   12.00000
   Atom    9 Element C  Has Mass   12.00000
   Atom   10 Element C  Has Mass   12.00000
   Atom   11 Element C  Has Mass   12.00000
   Atom   12 Element C  Has Mass   12.00000
   Atom   13 Element C  Has Mass   12.00000
   Atom   14 Element C  Has Mass   12.00000
   Atom   15 Element C  Has Mass   12.00000
   Atom   16 Element C  Has Mass   12.00000
   Atom   17 Element C  Has Mass   12.00000
   Atom   18 Element H  Has Mass    1.00783
   Atom   19 Element H  Has Mass    1.00783
   Atom   20 Element H  Has Mass    1.00783
   Atom   21 Element H  Has Mass    1.00783
   Atom   22 Element H  Has Mass    1.00783
   Atom   23 Element H  Has Mass    1.00783
   Atom   24 Element H  Has Mass    1.00783
   Atom   25 Element H  Has Mass    1.00783
   Atom   26 Element H  Has Mass    1.00783
   Atom   27 Element H  Has Mass    1.00783
   Atom   28 Element H  Has Mass    1.00783
   Atom   29 Element H  Has Mass    1.00783
   Atom   30 Element H  Has Mass    1.00783
   Atom   31 Element H  Has Mass    1.00783
   Atom   32 Element H  Has Mass    1.00783
   Atom   33 Element H  Has Mass    1.00783
   Atom   34 Element H  Has Mass    1.00783
   Atom   35 Element H  Has Mass    1.00783
   Atom   36 Element H  Has Mass    1.00783
   Atom   37 Element H  Has Mass    1.00783
   Atom   38 Element H  Has Mass    1.00783
   Atom   39 Element H  Has Mass    1.00783
   Atom   40 Element H  Has Mass    1.00783
   Atom   41 Element H  Has Mass    1.00783
   Atom   42 Element H  Has Mass    1.00783
   Atom   43 Element H  Has Mass    1.00783
   Atom   44 Element H  Has Mass    1.00783
   Atom   45 Element H  Has Mass    1.00783
   Atom   46 Element H  Has Mass    1.00783
   Atom   47 Element H  Has Mass    1.00783
   Atom   48 Element H  Has Mass    1.00783
   Atom   49 Element H  Has Mass    1.00783
   Atom   50 Element H  Has Mass    1.00783
   Atom   51 Element H  Has Mass    1.00783
   Atom   52 Element H  Has Mass    1.00783
   Atom   53 Element H  Has Mass    1.00783
   Atom   54 Element O  Has Mass   15.99491
   Atom   55 Element H  Has Mass    1.00783
   Atom   56 Element C  Has Mass   12.00000
   Atom   57 Element C  Has Mass   12.00000
   Atom   58 Element C  Has Mass   12.00000
   Atom   59 Element H  Has Mass    1.00783
   Atom   60 Element C  Has Mass   12.00000
   Atom   61 Element H  Has Mass    1.00783
   Atom   62 Element C  Has Mass   12.00000
   Atom   63 Element C  Has Mass   12.00000
   Atom   64 Element O  Has Mass   15.99491
   Atom   65 Element H  Has Mass    1.00783
   Molecular Mass:   350.306090 amu
   Principal axes and moments of inertia in amu*Bohr^2:
                             1           2           3
    Eigenvalues --     9296.41162 11868.19389 15134.24093
          X              -0.01423     0.99704     0.07552
          Y               0.92992     0.04095    -0.36547
          Z               0.36748    -0.06503     0.92775
   Rotational Symmetry Number is   1
   The Molecule is an Asymmetric Top
   Translational Enthalpy:        0.889 kcal/mol
   Rotational Enthalpy:           0.889 kcal/mol
   Vibrational Enthalpy:        386.718 kcal/mol
   gas constant (RT):             0.592 kcal/mol
   Translational Entropy:        43.455  cal/mol.K
   Rotational Entropy:           35.766  cal/mol.K
   Vibrational Entropy:          99.004  cal/mol.K

   Total Enthalpy:              389.088 kcal/mol
   Total Entropy:               178.225  cal/mol.K
 Total job time:  80372.31s(wall), 1280328.47s(cpu) 
 Mon May 23 22:01:55 2022

        *************************************************************
        *                                                           *
        *  Thank you very much for using Q-Chem.  Have a nice day.  *
        *                                                           *
        *************************************************************


